Title
29212
    1ASP      N    1   1.657   2.534   4.618 -0.3568 -0.4982 -0.6517
    1ASP    HT1    2   1.753   2.502   4.598  1.1191  0.7183  3.4197
    1ASP    HT2    3   1.594   2.512   4.538 -0.4934 -0.6299 -0.5095
    1ASP    HT3    4   1.606   2.481   4.692 -2.8803 -1.5546 -2.9630
    1ASP     CA    5   1.646   2.685   4.627  0.1830  0.7715 -0.5378
    1ASP     HA    6   1.543   2.700   4.654  0.3019  0.7406 -0.0574
    1ASP     CB    7   1.750   2.745   4.728  0.0697  0.2170  0.1170
    1ASP    HB1    8   1.737   2.854   4.742 -2.2968 -0.0261  0.2828
    1ASP    HB2    9   1.855   2.716   4.704  0.3103 -0.1690  1.5364
    1ASP     CG   10   1.717   2.684   4.872  0.2726 -0.1547  0.0359
    1ASP    OD1   11   1.801   2.711   4.962  0.0868 -0.4105  0.2841
    1ASP    OD2   12   1.610   2.625   4.893 -0.1087 -0.2437 -0.5842
    1ASP      C   13   1.650   2.736   4.482 -0.3550  0.0159  0.0500
    1ASP      O   14   1.718   2.672   4.399 -0.1618 -0.0292  0.0215
    2GLY      N   15   1.590   2.856   4.459  0.1295 -0.1516 -0.7437
    2GLY     HN   16   1.545   2.884   4.543  1.0916 -3.0933  0.8998
    2GLY     CA   17   1.607   2.946   4.344 -0.2202 -0.8213 -0.1381
    2GLY    HA1   18   1.535   3.024   4.365  0.3472 -0.6749  1.3305
    2GLY    HA2   19   1.589   2.884   4.257 -0.4569 -0.4859 -0.3315
    2GLY      C   20   1.752   2.997   4.321  0.0452 -0.4541 -0.2448
    2GLY      O   21   1.845   2.946   4.386  0.5845 -0.2634 -0.7258
    3ASP      N   22   1.780   3.090   4.231  0.3003 -0.7962  0.7931
    3ASP     HN   23   1.708   3.120   4.169 -0.6412 -1.0702  1.7260
    3ASP     CA   24   1.914   3.154   4.221  0.0378 -0.0501  0.0721
    3ASP     HA   25   1.989   3.080   4.201 -0.3094 -0.0581 -1.2571
    3ASP     CB   26   1.920   3.267   4.108 -0.5028  0.1440  0.0107
    3ASP    HB1   27   2.012   3.329   4.105 -1.0296  0.9403 -0.0895
    3ASP    HB2   28   1.835   3.332   4.137 -1.5010 -1.1425  0.0854
    3ASP     CG   29   1.904   3.208   3.971  0.5897 -0.7398  0.1984
    3ASP    OD1   30   1.912   3.293   3.875  0.4670 -0.0099 -0.3597
    3ASP    OD2   31   1.889   3.085   3.947 -0.0880  0.3637 -0.1469
    3ASP      C   32   1.964   3.209   4.348  1.0675  0.0636  0.0909
    3ASP      O   33   1.889   3.285   4.415 -0.0210  0.1099  0.6164
    4GLY      N   34   2.079   3.178   4.395  0.1378 -0.5732  0.1920
    4GLY     HN   35   2.144   3.122   4.343  0.4975 -2.7965  2.8183
    4GLY     CA   36   2.131   3.218   4.522 -0.2721  0.3501  0.4100
    4GLY    HA1   37   2.169   3.127   4.566 -1.8499 -1.5841 -1.9470
    4GLY    HA2   38   2.054   3.265   4.582 -1.2406 -0.0009 -0.5082
    4GLY      C   39   2.252   3.317   4.513 -0.2909 -0.0535 -0.2957
    4GLY      O   40   2.274   3.387   4.413 -0.1716 -0.2882 -0.0395
    5PRO      N   41   2.325   3.343   4.623 -0.1667  0.5649  1.3394
    5PRO     CD   42   2.318   3.257   4.736 -0.4998  0.4415 -0.6097
    5PRO    HD1   43   2.345   3.153   4.706 -3.0701 -0.6156  0.4893
    5PRO    HD2   44   2.215   3.260   4.776 -0.7467  1.3905 -1.3097
    5PRO     CA   45   2.459   3.407   4.622  0.6498  0.4761  0.1641
    5PRO     HA   46   2.440   3.514   4.623  1.1399  0.6362 -1.9748
    5PRO     CB   47   2.529   3.357   4.748 -0.0117  0.1920  0.0342
    5PRO    HB1   48   2.594   3.428   4.804 -0.2984 -0.6878  1.5303
    5PRO    HB2   49   2.586   3.265   4.722  0.1162  0.6007 -1.1865
    5PRO     CG   50   2.411   3.314   4.837 -0.5646  0.3367  0.3526
    5PRO    HG1   51   2.418   3.241   4.921 -1.6759  0.7307  0.8097
    5PRO    HG2   52   2.370   3.408   4.879  0.2666  0.4325  0.9964
    5PRO      C   53   2.543   3.380   4.498 -0.5760 -0.3055  1.2505
    5PRO      O   54   2.558   3.265   4.454  0.1707  0.1280 -1.0452
    6GLY      N   55   2.608   3.480   4.435  0.1601  0.7006  0.8638
    6GLY     HN   56   2.605   3.575   4.465 -0.4744  1.5818 -1.7399
    6GLY     CA   57   2.717   3.454   4.337 -0.4312 -0.1167  0.2153
    6GLY    HA1   58   2.753   3.550   4.302  2.9327 -1.1611  0.3833
    6GLY    HA2   59   2.668   3.414   4.250 -1.3534 -0.1056  0.7223
    6GLY      C   60   2.840   3.387   4.383 -0.7163 -0.1471  0.1693
    6GLY      O   61   2.865   3.346   4.497  0.4273 -0.2375 -0.4691
    7ASP      N   62   2.935   3.375   4.288  0.5066 -0.0010 -0.3584
    7ASP     HN   63   2.915   3.408   4.196 -1.0859  0.5063  0.1368
    7ASP     CA   64   3.071   3.330   4.308  0.4796 -0.1274 -0.3195
    7ASP     HA   65   3.068   3.253   4.384 -0.1773 -0.3605 -0.5769
    7ASP     CB   66   3.138   3.280   4.172  0.0658  0.1109 -0.6455
    7ASP    HB1   67   3.237   3.232   4.192 -1.0245 -1.5756  1.1262
    7ASP    HB2   68   3.145   3.368   4.105  0.8745 -1.2576 -2.4560
    7ASP     CG   69   3.059   3.173   4.101  0.0899 -0.0332 -0.3433
    7ASP    OD1   70   3.105   3.137   3.986 -0.3376 -0.6874  0.3782
    7ASP    OD2   71   2.958   3.120   4.153 -0.0047 -0.0317 -0.4222
    7ASP      C   72   3.142   3.450   4.377 -0.0680  0.2440 -0.8141
    7ASP      O   73   3.112   3.564   4.336  0.0604  0.3252  0.1320
    8PRO      N   74   3.228   3.431   4.478  0.3897  0.3141  0.1449
    8PRO     CD   75   3.296   3.313   4.507 -0.2796  0.3217  0.1153
    8PRO    HD1   76   3.383   3.318   4.438  0.5372 -1.2128  0.9695
    8PRO    HD2   77   3.239   3.222   4.480  0.1935  0.2685 -0.7586
    8PRO     CA   78   3.270   3.540   4.571  0.0958  0.5691 -0.0824
    8PRO     HA   79   3.177   3.551   4.625  0.8236  0.0800  1.3263
    8PRO     CB   80   3.377   3.477   4.660 -0.5392  0.9425  0.0413
    8PRO    HB1   81   3.368   3.508   4.766 -0.7567  2.0114 -0.2746
    8PRO    HB2   82   3.476   3.487   4.611 -0.2841  1.7067  0.6826
    8PRO     CG   83   3.345   3.331   4.655  0.0279 -0.1643  0.2351
    8PRO    HG1   84   3.427   3.258   4.674 -0.0270 -0.3729 -0.2904
    8PRO    HG2   85   3.263   3.308   4.726 -0.1207  0.3821  0.2402
    8PRO      C   86   3.295   3.685   4.522 -0.7110  0.0682  0.0422
    8PRO      O   87   3.367   3.701   4.426 -0.0731  0.0764 -0.1617
    9GLY      N   88   3.248   3.793   4.593  0.1310  0.4460  0.7745
    9GLY     HN   89   3.193   3.773   4.673  0.0358 -0.6514  0.4512
    9GLY     CA   90   3.270   3.936   4.556  0.1220  0.0578 -1.0509
    9GLY    HA1   91   3.231   4.005   4.629 -0.9784  2.1505 -3.4679
    9GLY    HA2   92   3.214   3.950   4.465 -0.9093 -0.8215 -0.5706
    9GLY      C   93   3.411   3.978   4.516  0.8034 -0.2151  0.4417
    9GLY      O   94   3.515   3.950   4.579  0.5167  0.5239 -0.6829
   10ASP      N   95   3.425   4.061   4.408  0.3825  0.0535  0.1269
   10ASP     HN   96   3.350   4.088   4.350  0.7477  0.1491 -0.3056
   10ASP     CA   97   3.555   4.120   4.362  0.2924 -0.1822 -0.2845
   10ASP     HA   98   3.636   4.051   4.374 -0.7084 -1.0662  2.1182
   10ASP     CB   99   3.547   4.157   4.204 -0.0458 -0.7775 -0.2397
   10ASP    HB1  100   3.639   4.211   4.175 -1.5923  1.3181 -1.5623
   10ASP    HB2  101   3.468   4.231   4.178  1.9318  1.5460  0.1201
   10ASP     CG  102   3.518   4.034   4.121 -0.5138  0.0484 -0.6153
   10ASP    OD1  103   3.438   4.040   4.028  0.4089  0.5572  0.7882
   10ASP    OD2  104   3.588   3.930   4.143  0.5766 -0.1377 -0.0410
   10ASP      C  105   3.584   4.245   4.444  0.6769  0.2671  0.6391
   10ASP      O  106   3.502   4.336   4.440  0.2360 -0.0592 -0.4757
   11GLY      N  107   3.703   4.252   4.513 -0.1845  0.2423 -0.4485
   11GLY     HN  108   3.767   4.175   4.511  1.0565  1.2377 -0.4123
   11GLY     CA  109   3.753   4.362   4.593 -0.4730 -0.4085  0.3851
   11GLY    HA1  110   3.812   4.325   4.674 -0.1046  1.9159  1.2548
   11GLY    HA2  111   3.673   4.413   4.645  0.4433 -1.7859  3.3474
   11GLY      C  112   3.838   4.459   4.503  0.5287 -0.8651  0.4722
   11GLY    OT1  113   3.783   4.569   4.470 -0.2150 -0.0140 -0.4731
   11GLY    OT2  114   3.951   4.427   4.454 -0.4046  0.6392 -0.0614
   12LIT    LIT  115   3.017   4.403   4.072 -0.9305 -0.1805 -0.5105
   13LIT    LIT  116   4.878   2.754   1.838 -0.0228  0.4824  0.4724
   14LIT    LIT  117   6.819   0.576   2.549  0.5635  0.0071 -0.2032
   15LIT    LIT  118   3.342   6.579   3.488  0.5596  0.2569 -0.6265
   16LIT    LIT  119   3.952   4.594   4.350 -0.2422 -1.0125  0.4538
   17LIT    LIT  120   6.595   5.239   4.380  0.3474  0.7792 -0.3036
   18LIT    LIT  121   5.061   4.664   4.107  0.9231 -0.0031 -0.0235
   19LIT    LIT  122   2.600   0.918   0.239 -0.7475 -0.2470  0.4976
   20LIT    LIT  123   5.168   2.859   2.407 -0.9084  0.0843  0.7776
   21LIT    LIT  124   6.885   2.441   1.372  0.0058 -0.2655 -0.6838
   22LIT    LIT  125   6.221   6.039   1.865 -0.7113 -0.3938  0.0915
   23LIT    LIT  126   0.516   3.994   4.957 -0.6356 -0.1784  0.6436
   24LIT    LIT  127   4.214   0.873   0.631  0.5118 -0.5645  0.3213
   25LIT    LIT  128   2.927   2.970   4.031 -0.0147 -0.3265 -0.5099
   26LIT    LIT  129   3.554   3.893   3.952  0.0337 -0.1984 -0.8254
   27LIT    LIT  130   3.277   3.561   2.330  0.0038  0.0424  0.0084
   28LIT    LIT  131   1.437   4.744   1.869  0.1006 -0.9688 -0.2011
   29LIT    LIT  132   5.764   6.451   1.561  0.5610  0.2548 -0.3174
   30LIT    LIT  133   2.411   0.890   2.968 -0.5907 -0.8356  0.5381
   31LIT    LIT  134   4.618   4.657   4.316  0.7025 -0.0283 -0.2500
   32LIT    LIT  135   0.527   3.867   3.205  0.0074  0.0320  0.6177
   33LIT    LIT  136   1.429   5.020   5.421  0.1422  0.0564 -0.0751
   34LIT    LIT  137   6.616   2.297   5.363 -0.8763 -0.7258  0.2588
   35LIT    LIT  138   3.149   1.373   5.023 -0.8160  0.9638  1.4570
   36LIT    LIT  139   2.501   2.991   3.600 -0.4111  0.5571  0.6528
   37LIT    LIT  140   7.078   5.462   3.921 -0.0014  0.3115 -0.5068
   38LIT    LIT  141   1.251   4.750   4.541 -0.0419 -0.3021 -0.3546
   39LIT    LIT  142   1.464   2.703   4.977  0.5438 -0.9802 -0.3458
   40LIT    LIT  143   6.542   3.580   2.523 -1.4866  0.4798 -0.0644
   41LIT    LIT  144   0.001   4.468   0.077  0.3137  0.1136 -0.7052
   42LIT    LIT  145   1.956   2.912   3.939  0.1723  0.6182 -0.0504
   43CLA    CLA  146   3.808   4.237   1.357  0.0864 -0.1922  0.3140
   44CLA    CLA  147   1.798   0.409   3.608 -0.1048 -0.1028 -0.0360
   45CLA    CLA  148   0.576   3.377   4.944 -0.0663 -0.4052  0.0041
   46CLA    CLA  149   3.544   1.854   3.666 -0.1043 -0.1145  0.0574
   47CLA    CLA  150   6.321   2.645   0.951 -0.4971  0.5081 -0.1121
   48CLA    CLA  151   0.238   1.859   0.881 -0.3598  0.2859  0.1489
   49CLA    CLA  152   6.447   5.631   5.879 -0.0742 -0.1889  0.1514
   50CLA    CLA  153   1.946   4.490   2.541 -0.4598 -0.7283 -0.3118
   51CLA    CLA  154   1.924   3.986   4.762 -0.2929  0.0680 -0.4536
   52CLA    CLA  155   5.030   2.459   5.630 -0.2813  0.0701 -0.0260
   53CLA    CLA  156   5.800   2.706   2.249 -0.0845 -0.0957 -0.1531
   54CLA    CLA  157   6.031   3.710   5.081 -0.5091 -0.2437  0.0321
   55CLA    CLA  158   5.420   6.409   3.989  0.0070 -0.2667  0.5166
   56CLA    CLA  159   1.729   0.404   0.590 -0.0170  0.5845 -0.0304
   57CLA    CLA  160   2.885   3.251   5.822 -0.2399 -0.3712  0.1617
   58CLA    CLA  161   0.608   3.437   2.685 -0.1710  0.1107 -0.4941
   59CLA    CLA  162   6.359   1.649   2.699 -0.0732 -0.0122  0.0816
   60CLA    CLA  163   3.203   5.264   1.966  0.0641 -0.1504 -0.2125
   61CLA    CLA  164   1.091   1.592   1.754  0.3220  0.4203 -0.0467
   62CLA    CLA  165   0.060   0.850   0.685  0.3389 -0.0974  0.5147
   63CLA    CLA  166   2.822   2.378   1.395  0.1255  0.1326  0.2160
   64CLA    CLA  167   0.700   5.764   2.018 -0.3379  0.1827 -0.1006
   65CLA    CLA  168   1.694   5.824   1.979 -0.5665 -0.2690  0.1489
   66CLA    CLA  169   6.670   5.275   1.705  0.0134  0.0705 -0.2031
   67CLA    CLA  170   0.573   6.219   1.470  0.7294 -0.1405 -0.0562
   68CLA    CLA  171   7.163   3.478   1.495  0.3598 -0.1460  0.2438
   69CLA    CLA  172   3.319   6.454   3.292  0.0168  0.2887  0.0501
   70TIP3   OH2  173   3.358   5.267   4.830 -0.2547  0.4453  0.1950
   70TIP3    H1  174   3.449   5.276   4.860  0.3077  1.3741 -1.6718
   70TIP3    H2  175   3.349   5.174   4.808  0.3817  0.4267 -0.0074
   71TIP3   OH2  176   5.535   2.739   5.758  0.0009  0.1449  0.2015
   71TIP3    H1  177   5.558   2.714   5.847  1.3345  2.6638  0.6620
   71TIP3    H2  178   5.442   2.719   5.750  0.0175 -0.7549  1.8965
   72TIP3   OH2  179   2.932   2.970   2.177 -0.1598  0.3438 -0.2676
   72TIP3    H1  180   2.860   2.930   2.128  0.0527  1.4872 -1.5767
   72TIP3    H2  181   2.990   2.897   2.199 -0.2905 -0.2259 -1.6919
   73TIP3   OH2  182   1.065   2.938   2.779  0.5598 -0.1906 -0.2937
   73TIP3    H1  183   1.119   2.956   2.702  0.0836  0.9573 -0.3757
   73TIP3    H2  184   1.085   2.847   2.801  4.4335  0.8028  1.1608
   74TIP3   OH2  185   5.036   3.141   3.212 -0.1277 -0.1619  0.3217
   74TIP3    H1  186   4.961   3.094   3.249 -0.1574 -0.3046  0.0833
   74TIP3    H2  187   5.065   3.198   3.283  0.6770 -1.4271  1.0663
   75TIP3   OH2  188   6.117   0.122   2.513 -0.3356  0.4111 -0.8417
   75TIP3    H1  189   6.031   0.098   2.548 -0.3306 -1.3696 -1.9287
   75TIP3    H2  190   6.102   0.205   2.467 -0.7994  1.6530  1.3951
   76TIP3   OH2  191   3.576   6.491   3.054 -0.5459 -0.2373  0.1064
   76TIP3    H1  192   3.515   6.507   3.127 -1.2617  2.0463 -0.8868
   76TIP3    H2  193   3.537   6.418   3.006 -1.5424  0.0077  0.5069
   77TIP3   OH2  194   3.472   3.393   2.971  0.2375  0.2250  0.0223
   77TIP3    H1  195   3.534   3.439   3.028  0.2781 -2.1004  2.0156
   77TIP3    H2  196   3.400   3.368   3.029 -0.0813 -1.6002 -1.0908
   78TIP3   OH2  197   4.012   0.156   2.052  0.1806  0.6472 -0.6442
   78TIP3    H1  198   3.984   0.070   2.082 -0.3162  1.3138  0.9115
   78TIP3    H2  199   4.035   0.144   1.960  1.1801 -1.3895 -0.1723
   79TIP3   OH2  200   1.911   3.864   4.291  0.4529 -0.1029 -0.2996
   79TIP3    H1  201   1.835   3.920   4.279  1.2066  1.2295  0.8497
   79TIP3    H2  202   1.965   3.909   4.356  1.8977 -1.3447 -0.5574
   80TIP3   OH2  203   5.144   2.965   0.014 -0.1308  0.5460  0.0813
   80TIP3    H1  204   5.158   2.967   0.109  1.0658 -0.4607 -0.0570
   80TIP3    H2  205   5.232   2.958  -0.024 -0.6294  0.3182 -1.0808
   81TIP3   OH2  206   1.191   5.479   3.147 -0.3458  0.1826 -0.1712
   81TIP3    H1  207   1.244   5.451   3.072  0.4186 -0.3148  0.5303
   81TIP3    H2  208   1.221   5.424   3.219 -0.4030  1.2777  0.7238
   82TIP3   OH2  209   3.181   2.496   1.466  0.1422 -0.2759 -0.1388
   82TIP3    H1  210   3.126   2.569   1.438 -0.1302 -0.6908 -0.6963
   82TIP3    H2  211   3.149   2.420   1.417  0.1843 -0.8548  0.7022
   83TIP3   OH2  212   2.634   4.673   5.597 -0.0105  0.2678  0.4739
   83TIP3    H1  213   2.681   4.610   5.652 -0.8360 -0.8745 -0.0905
   83TIP3    H2  214   2.687   4.752   5.602  1.4946 -0.6917  0.5869
   84TIP3   OH2  215   4.299   0.974   3.799 -0.2025  0.5005  0.6552
   84TIP3    H1  216   4.300   1.049   3.740  0.9116  0.6918  0.8924
   84TIP3    H2  217   4.259   1.007   3.880 -0.1317  0.7129  0.6023
   85TIP3   OH2  218   3.415   3.133   2.460  0.2072 -0.6812 -0.2768
   85TIP3    H1  219   3.472   3.204   2.491 -1.8416  1.5010 -1.1839
   85TIP3    H2  220   3.406   3.075   2.535  0.3612  1.1100  1.2096
   86TIP3   OH2  221   0.357   1.964   5.796 -0.2073 -0.4921  0.4284
   86TIP3    H1  222   0.266   1.993   5.788 -0.2019 -0.3909  0.7245
   86TIP3    H2  223   0.407   2.032   5.751 -0.4301 -1.5499 -1.5002
   87TIP3   OH2  224   7.130   3.848   2.854  0.3830  0.2669  0.2031
   87TIP3    H1  225   7.201   3.895   2.811  0.0975  0.8515  0.3644
   87TIP3    H2  226   7.167   3.762   2.874  1.4965  1.0102  1.5120
   88TIP3   OH2  227   1.359   2.968   2.195 -0.5696  0.1220 -0.4224
   88TIP3    H1  228   1.282   2.952   2.250 -0.2628 -0.5124 -0.1690
   88TIP3    H2  229   1.323   3.004   2.114 -1.0734  0.5073 -0.0398
   89TIP3   OH2  230   5.452   5.109   0.311 -0.3586 -0.3038 -0.1362
   89TIP3    H1  231   5.393   5.100   0.386 -0.9449 -1.4367 -0.7035
   89TIP3    H2  232   5.523   5.047   0.328  0.0543  0.1907 -0.0297
   90TIP3   OH2  233   3.976   4.354   3.948  0.1158 -0.0486  0.2274
   90TIP3    H1  234   4.025   4.403   3.882 -0.7387 -2.1330 -2.1189
   90TIP3    H2  235   3.890   4.394   3.950 -0.6763 -1.4663 -1.8993
   91TIP3   OH2  236   4.976   5.173   2.165  0.7142  0.2226  0.3398
   91TIP3    H1  237   4.954   5.090   2.208  1.1106  0.2415  0.5832
   91TIP3    H2  238   4.951   5.159   2.073  0.5233 -0.0664  0.4321
   92TIP3   OH2  239   5.171   2.681   0.063 -0.1848  0.7626  0.0877
   92TIP3    H1  240   5.101   2.746   0.067 -0.4649  0.5164 -0.6709
   92TIP3    H2  241   5.240   2.724   0.012 -0.6552  0.2237 -1.0408
   93TIP3   OH2  242   3.594   4.613   5.658  0.3137 -0.0948  0.0872
   93TIP3    H1  243   3.520   4.602   5.718 -0.0947  0.4899 -0.3039
   93TIP3    H2  244   3.632   4.525   5.650 -0.0296 -0.2987  0.6829
   94TIP3   OH2  245   3.030   2.414   0.640 -0.7389  0.3321  0.1886
   94TIP3    H1  246   2.945   2.457   0.626 -0.7819  0.0998 -0.3059
   94TIP3    H2  247   3.008   2.322   0.656 -0.6888  0.5929  1.8944
   95TIP3   OH2  248   0.353   5.287   1.429  0.5438  0.2549 -0.4085
   95TIP3    H1  249   0.327   5.374   1.399 -0.9787 -0.2008 -0.4926
   95TIP3    H2  250   0.393   5.303   1.514 -0.2425  0.9993 -0.1548
   96TIP3   OH2  251   4.253   4.205   2.789 -0.4897 -0.6121  0.0874
   96TIP3    H1  252   4.185   4.241   2.845 -0.0329  0.1493  0.1713
   96TIP3    H2  253   4.215   4.126   2.752 -0.9338 -0.9338  1.1867
   97TIP3   OH2  254   3.405   3.379   2.667 -0.6955  0.4732 -0.1386
   97TIP3    H1  255   3.410   3.398   2.761  1.1324  0.1799 -0.1327
   97TIP3    H2  256   3.321   3.337   2.655 -1.2413  1.1016  1.2591
   98TIP3   OH2  257   3.806   5.403   2.493 -0.1518  0.0457 -0.4949
   98TIP3    H1  258   3.781   5.495   2.502 -0.3018 -0.0939  0.5495
   98TIP3    H2  259   3.723   5.357   2.481 -0.2452 -0.1598  0.8171
   99TIP3   OH2  260   1.352   2.756   5.798 -0.6376  0.0598  0.5435
   99TIP3    H1  261   1.340   2.681   5.741  4.0436  0.4162 -1.3756
   99TIP3    H2  262   1.385   2.719   5.880 -1.2806 -0.1119  0.7280
  100TIP3   OH2  263   0.063   1.330   0.694  0.2008  0.6905 -0.0855
  100TIP3    H1  264   0.120   1.334   0.771 -0.0109 -0.1887  0.1261
  100TIP3    H2  265   0.121   1.349   0.620  1.0119 -1.1328  0.0232
  101TIP3   OH2  266   3.263   6.519   1.459 -0.2534  0.3831 -0.2611
  101TIP3    H1  267   3.279   6.568   1.379 -1.6978  0.7619 -0.3501
  101TIP3    H2  268   3.243   6.430   1.429 -0.4563  0.4429 -0.3078
  102TIP3   OH2  269   1.200   0.482   5.173  0.0715 -0.1109 -0.4571
  102TIP3    H1  270   1.211   0.446   5.085 -1.4360 -1.0997 -0.2751
  102TIP3    H2  271   1.289   0.485   5.209  0.7316  0.5306 -2.0723
  103TIP3   OH2  272   1.940   3.824   2.514  0.0631  0.0715  0.4626
  103TIP3    H1  273   1.872   3.887   2.491  0.8499  0.0248 -2.3842
  103TIP3    H2  274   2.022   3.868   2.492  0.7608 -1.0315  0.7969
  104TIP3   OH2  275   4.365   0.173   5.390 -0.1104  0.0386  0.0188
  104TIP3    H1  276   4.326   0.113   5.326  1.2642 -0.4485 -0.4037
  104TIP3    H2  277   4.330   0.143   5.474 -1.6176  0.4278 -0.4311
  105TIP3   OH2  278   0.157   4.984   5.147  0.0372  0.0990 -0.3272
  105TIP3    H1  279   0.220   4.935   5.199  0.8842  1.9602  0.4657
  105TIP3    H2  280   0.089   4.919   5.125  1.7388 -1.7403 -0.4832
  106TIP3   OH2  281   5.795   5.789   1.396  0.4497  0.2275 -0.0181
  106TIP3    H1  282   5.865   5.733   1.429  2.1357  0.5494 -2.7275
  106TIP3    H2  283   5.828   5.878   1.406 -0.3098  0.4949  0.1809
  107TIP3   OH2  284   2.672   6.385   2.190  0.1968  0.0258  0.5056
  107TIP3    H1  285   2.680   6.480   2.180  1.1632  0.0833  1.5890
  107TIP3    H2  286   2.762   6.352   2.179 -0.1354 -0.7704  0.0881
  108TIP3   OH2  287   1.267   3.107   3.120 -0.6633  0.1135 -0.5972
  108TIP3    H1  288   1.269   3.016   3.092 -2.4273  0.0903 -0.7607
  108TIP3    H2  289   1.216   3.152   3.052 -0.0387  1.1802 -0.3858
  109TIP3   OH2  290   2.456   5.203   4.717 -0.0406 -0.3708 -0.3374
  109TIP3    H1  291   2.458   5.107   4.718 -0.9063 -0.3962  0.2394
  109TIP3    H2  292   2.364   5.224   4.701  0.2071  0.3741 -0.8347
  110TIP3   OH2  293   5.419   2.535   1.208  0.4997 -0.8747 -0.3725
  110TIP3    H1  294   5.404   2.519   1.115 -3.1899  0.4486 -0.1812
  110TIP3    H2  295   5.370   2.465   1.252  0.0563 -0.0456  0.4944
  111TIP3   OH2  296   3.173   4.333   2.215  0.2074  0.3762  0.4801
  111TIP3    H1  297   3.258   4.375   2.225  0.1147  0.4443  1.0160
  111TIP3    H2  298   3.191   4.239   2.222  0.2341  0.3917  0.6209
  112TIP3   OH2  299   1.260   4.112   4.530 -0.0602  0.1000 -0.7206
  112TIP3    H1  300   1.240   4.039   4.471 -0.7454 -0.0676 -0.2805
  112TIP3    H2  301   1.354   4.128   4.516  0.2805 -1.3563 -0.2641
  113TIP3   OH2  302   3.271   0.875   3.432 -0.5585 -0.2956  0.1175
  113TIP3    H1  303   3.194   0.922   3.466  0.5008  1.4198  0.2541
  113TIP3    H2  304   3.346   0.918   3.475  0.6363 -0.1450 -1.9910
  114TIP3   OH2  305   6.708   0.808   1.590 -0.6779 -0.2094  0.2395
  114TIP3    H1  306   6.794   0.800   1.550  0.1634 -1.7052  2.2093
  114TIP3    H2  307   6.648   0.772   1.525  0.0331  1.4754 -1.4346
  115TIP3   OH2  308   6.869   1.088   0.360 -0.0247 -0.2965 -0.3956
  115TIP3    H1  309   6.926   1.163   0.377  1.4677 -1.4706 -0.0337
  115TIP3    H2  310   6.790   1.126   0.322  1.1927  1.3488 -1.3993
  116TIP3   OH2  311   3.092   1.659   2.319 -0.1384 -0.0461 -0.1846
  116TIP3    H1  312   3.038   1.603   2.376 -1.0045  0.5089 -0.4332
  116TIP3    H2  313   3.051   1.745   2.326  0.5745  0.3243 -0.5922
  117TIP3   OH2  314   6.466   6.226   1.236 -0.2217 -0.4495  0.5758
  117TIP3    H1  315   6.548   6.215   1.285 -0.0881  3.6696  1.6371
  117TIP3    H2  316   6.398   6.199   1.298  0.1370  1.6334  1.9992
  118TIP3   OH2  317   4.781   1.188   4.981 -0.2667  0.1622 -0.0314
  118TIP3    H1  318   4.810   1.200   5.071 -0.3881  0.3206 -0.0145
  118TIP3    H2  319   4.703   1.242   4.973 -1.0118 -0.8639  0.1514
  119TIP3   OH2  320   4.309   4.101   4.214  0.3183  0.1754 -0.4010
  119TIP3    H1  321   4.326   4.064   4.127 -2.2936 -0.1612 -0.8488
  119TIP3    H2  322   4.255   4.179   4.197 -0.6391 -0.1670  0.9012
  120TIP3   OH2  323   6.339   3.029   3.027  0.1455  0.8811 -0.9043
  120TIP3    H1  324   6.277   3.089   2.987 -1.0776 -0.0032 -0.4113
  120TIP3    H2  325   6.296   2.943   3.023  0.2137  0.6447  1.7022
  121TIP3   OH2  326   5.025   5.515   2.263  0.1289 -0.1989  0.0685
  121TIP3    H1  327   4.994   5.598   2.299  0.7410  0.4357 -0.8201
  121TIP3    H2  328   4.946   5.469   2.236 -0.4340 -1.0076  2.7563
  122TIP3   OH2  329   3.434   5.411   3.446 -0.4941 -0.1022  0.1440
  122TIP3    H1  330   3.440   5.396   3.351  1.0845 -2.1418  0.4916
  122TIP3    H2  331   3.513   5.461   3.467 -1.0521  0.7068  0.3353
  123TIP3   OH2  332   1.433   4.951   2.577  0.3271  0.0761 -0.3979
  123TIP3    H1  333   1.351   4.921   2.539  0.2566  0.2094 -0.3518
  123TIP3    H2  334   1.500   4.898   2.534  0.1709 -0.4721  0.0294
  124TIP3   OH2  335   2.546   6.005   2.745  0.2919  0.3319 -0.0206
  124TIP3    H1  336   2.580   6.051   2.668 -1.2885 -0.6627 -1.4105
  124TIP3    H2  337   2.451   6.017   2.739 -0.0602 -1.7989  0.3736
  125TIP3   OH2  338   1.647   5.284   3.157 -0.1582  0.1421 -0.4133
  125TIP3    H1  339   1.658   5.239   3.240 -0.7839 -0.0225 -0.4125
  125TIP3    H2  340   1.642   5.377   3.180  0.7259  0.1894 -0.3765
  126TIP3   OH2  341   0.767   2.939   4.746  0.2067 -0.1700 -0.5384
  126TIP3    H1  342   0.674   2.946   4.723  0.4370 -0.9817 -1.8443
  126TIP3    H2  343   0.768   2.938   4.841 -1.2865 -1.7940 -0.4813
  127TIP3   OH2  344   2.249   0.387   1.148  0.5373  0.0747  0.3907
  127TIP3    H1  345   2.344   0.391   1.145  0.5448  0.5678  1.0794
  127TIP3    H2  346   2.228   0.390   1.241 -0.1236 -0.8501  0.2906
  128TIP3   OH2  347   5.328   5.949   3.756  0.0962  0.2687 -0.5687
  128TIP3    H1  348   5.329   6.036   3.795 -1.7668  0.2152 -0.3275
  128TIP3    H2  349   5.284   5.961   3.672 -0.0545 -0.4202 -0.5920
  129TIP3   OH2  350   7.173   3.156   3.100 -0.1421 -0.0711  0.5389
  129TIP3    H1  351   7.123   3.125   3.175 -0.6112 -0.0760  0.2304
  129TIP3    H2  352   7.262   3.124   3.115  0.0497  0.9176  1.6744
  130TIP3   OH2  353   3.795   5.734   5.473 -0.3919 -0.4935  0.2500
  130TIP3    H1  354   3.825   5.713   5.385 -1.6435 -1.2738 -0.0168
  130TIP3    H2  355   3.857   5.801   5.504  0.2309 -0.4048 -1.0941
  131TIP3   OH2  356   5.736   4.780   3.983  0.3016  0.1033  0.6254
  131TIP3    H1  357   5.688   4.782   3.900  1.7533  0.5011 -0.2317
  131TIP3    H2  358   5.683   4.723   4.039  0.0668 -1.4739 -1.0790
  132TIP3   OH2  359   4.375   0.254   1.874  0.1271 -0.4985 -0.2455
  132TIP3    H1  360   4.421   0.263   1.958 -1.0546 -0.4883  0.4266
  132TIP3    H2  361   4.369   0.159   1.861  1.6565 -0.5174 -1.1205
  133TIP3   OH2  362   3.392   4.845   2.924  0.5808 -0.3488 -0.0225
  133TIP3    H1  363   3.420   4.762   2.884  0.7817 -0.5498  0.5187
  133TIP3    H2  364   3.395   4.828   3.018 -0.1202  0.0400  0.0746
  134TIP3   OH2  365   0.033   3.836   0.208  0.4827  0.2866 -0.0045
  134TIP3    H1  366   0.005   3.752   0.245  0.8477  0.9020  1.7824
  134TIP3    H2  367  -0.018   3.901   0.256  2.0821  1.2188  0.5077
  135TIP3   OH2  368   1.707   4.161   2.205 -0.4217 -0.5307 -0.0123
  135TIP3    H1  369   1.719   4.138   2.297 -0.4089 -0.0772  0.1027
  135TIP3    H2  370   1.726   4.080   2.158  1.4311 -0.3074  0.2699
  136TIP3   OH2  371   4.418   6.656   2.007  0.1747  0.5816  0.1831
  136TIP3    H1  372   4.350   6.716   1.977 -0.8920 -0.8823 -0.5161
  136TIP3    H2  373   4.500   6.698   1.983 -0.5639 -0.0395 -4.2466
  137TIP3   OH2  374   5.575   1.020   5.725  0.3254  0.4916 -0.7652
  137TIP3    H1  375   5.600   0.930   5.704 -0.7266 -0.7829  2.8112
  137TIP3    H2  376   5.520   1.047   5.651 -1.6302 -2.8661 -0.7502
  138TIP3   OH2  377   4.513   2.477   2.505 -0.1023  0.1090  0.0521
  138TIP3    H1  378   4.546   2.559   2.469  0.4355  0.3174  0.9965
  138TIP3    H2  379   4.545   2.410   2.445  2.3923  0.2530  1.0983
  139TIP3   OH2  380   6.402   3.463   1.085  0.4057 -0.6572 -0.1701
  139TIP3    H1  381   6.337   3.415   1.034 -0.1409  0.0778 -0.1804
  139TIP3    H2  382   6.486   3.425   1.059  0.0817 -0.7342 -1.1273
  140TIP3   OH2  383   5.739   5.667   0.043  0.9370  0.2668 -0.3373
  140TIP3    H1  384   5.751   5.704  -0.044  2.6351  0.0509 -0.2205
  140TIP3    H2  385   5.805   5.710   0.097 -1.5465  2.1270  1.4406
  141TIP3   OH2  386   4.029   5.511   2.334 -0.0581  0.6127  0.5413
  141TIP3    H1  387   3.962   5.462   2.381  0.2098 -2.3662 -1.8420
  141TIP3    H2  388   4.108   5.457   2.341  0.5866  1.2304 -1.2751
  142TIP3   OH2  389   2.275   3.476   0.522  0.1932 -0.1670 -0.3335
  142TIP3    H1  390   2.181   3.459   0.529  0.0365 -0.6815 -2.7339
  142TIP3    H2  391   2.282   3.550   0.462  1.3323 -0.0658 -0.1042
  143TIP3   OH2  392   4.770   1.741   0.599  0.6099 -0.2227  0.2897
  143TIP3    H1  393   4.698   1.747   0.662 -0.0943 -1.4465 -0.3586
  143TIP3    H2  394   4.849   1.754   0.651 -0.0848  2.2160  0.8517
  144TIP3   OH2  395   1.733   6.360   3.862  0.4565 -0.3280 -0.4138
  144TIP3    H1  396   1.715   6.441   3.911 -1.8683 -1.4342  0.7168
  144TIP3    H2  397   1.806   6.320   3.910  0.9159  0.5491 -0.3427
  145TIP3   OH2  398   6.950   4.874   0.960 -0.4392  0.2918  0.1355
  145TIP3    H1  399   6.991   4.917   0.885  0.0447 -1.0145 -0.3712
  145TIP3    H2  400   6.880   4.935   0.987  0.9100  1.9025  0.1543
  146TIP3   OH2  401   2.351   2.021   1.653 -0.2761 -0.0063 -0.2031
  146TIP3    H1  402   2.443   2.020   1.627 -0.2875  1.2609 -0.3169
  146TIP3    H2  403   2.334   2.111   1.681 -1.2651 -0.4225  0.6290
  147TIP3   OH2  404   1.233   1.485   3.424 -0.2639  0.0093 -0.4675
  147TIP3    H1  405   1.138   1.482   3.426 -0.2409 -0.8472  1.4636
  147TIP3    H2  406   1.257   1.548   3.492  0.5609 -0.1620 -0.5809
  148TIP3   OH2  407   4.003   4.056   3.707  0.2430 -0.3582  0.0387
  148TIP3    H1  408   4.020   4.084   3.797 -0.9257 -0.2573  0.2403
  148TIP3    H2  409   4.080   4.004   3.683  1.2404  0.8318  0.5762
  149TIP3   OH2  410   0.653   1.578   0.480  0.0729 -0.4751  0.2908
  149TIP3    H1  411   0.665   1.633   0.558 -1.2527  0.3464 -0.0497
  149TIP3    H2  412   0.625   1.639   0.412  0.8590 -1.2362 -0.7520
  150TIP3   OH2  413   1.829   5.815   3.046 -0.2367 -0.2620  0.0632
  150TIP3    H1  414   1.889   5.881   3.011 -0.3265 -0.0945  0.2184
  150TIP3    H2  415   1.761   5.807   2.980 -0.2823 -0.1189  0.0918
  151TIP3   OH2  416   4.636   3.627   4.011 -0.2841 -0.0492  0.8447
  151TIP3    H1  417   4.581   3.653   4.085 -2.7801 -1.0361 -0.5409
  151TIP3    H2  418   4.697   3.564   4.048 -1.0246 -0.0023  2.2024
  152TIP3   OH2  419   1.639   5.896   5.429 -0.1457 -0.0259  0.8476
  152TIP3    H1  420   1.569   5.835   5.405  1.2916 -1.0501 -0.9676
  152TIP3    H2  421   1.718   5.841   5.434  1.4990  1.7881 -2.2707
  153TIP3   OH2  422   7.077   0.420   5.331 -0.7829 -0.2541  0.2521
  153TIP3    H1  423   7.126   0.461   5.402 -1.1217 -0.3582  0.5482
  153TIP3    H2  424   6.990   0.460   5.334 -1.1501 -1.0506  0.6096
  154TIP3   OH2  425   4.727   1.100   3.827 -0.2110  0.4746 -0.3944
  154TIP3    H1  426   4.696   1.041   3.896  1.8014 -0.9264 -0.6196
  154TIP3    H2  427   4.804   1.057   3.791  1.5262  3.3802 -0.4272
  155TIP3   OH2  428   6.192   2.336   1.223  0.5305  0.0584  0.1821
  155TIP3    H1  429   6.143   2.394   1.165  1.2362  0.4903  0.0036
  155TIP3    H2  430   6.143   2.254   1.222  1.4165 -0.5171 -2.3751
  156TIP3   OH2  431   0.647   3.722   4.271  0.0464  0.3553 -0.3228
  156TIP3    H1  432   0.696   3.790   4.225 -2.1926  1.0056 -1.9127
  156TIP3    H2  433   0.674   3.640   4.229  2.9638  0.0694  1.7819
  157TIP3   OH2  434   5.813   2.688   1.287  0.2925 -0.6188 -0.1384
  157TIP3    H1  435   5.895   2.729   1.259  0.2625 -1.4008 -1.4483
  157TIP3    H2  436   5.839   2.607   1.330  0.2036 -1.7799 -2.1337
  158TIP3   OH2  437   6.334   6.431   0.508 -0.2632 -0.5871  0.4106
  158TIP3    H1  438   6.332   6.445   0.602 -1.5229  2.1778  0.0745
  158TIP3    H2  439   6.253   6.386   0.488  1.0636 -3.3451  0.8247
  159TIP3   OH2  440   5.934   2.919   4.536 -0.4460  0.6621  0.8187
  159TIP3    H1  441   5.995   2.862   4.490 -1.9314 -0.1039 -0.3012
  159TIP3    H2  442   5.989   2.974   4.592  1.2528  0.1574 -0.2922
  160TIP3   OH2  443   0.887   3.708   5.896  0.2690 -0.4270 -0.3567
  160TIP3    H1  444   0.830   3.707   5.819 -0.0176 -0.1416 -0.1509
  160TIP3    H2  445   0.975   3.696   5.861  0.1266 -0.4343 -0.7162
  161TIP3   OH2  446   5.706   6.161   4.833 -0.0499 -0.5747  0.4656
  161TIP3    H1  447   5.656   6.193   4.907  0.1417 -1.1010  0.8290
  161TIP3    H2  448   5.717   6.067   4.849  2.1781 -0.2627  1.0914
  162TIP3   OH2  449   1.682   4.136   5.273 -0.4263 -0.6132 -0.8249
  162TIP3    H1  450   1.767   4.161   5.236 -0.8939  0.3299 -1.2876
  162TIP3    H2  451   1.699   4.053   5.317  0.7437 -0.4221 -0.8843
  163TIP3   OH2  452   0.149   6.598   0.373 -0.3920  0.3074  0.5756
  163TIP3    H1  453   0.227   6.547   0.351 -0.7726  0.4658 -1.2962
  163TIP3    H2  454   0.137   6.585   0.467 -0.1869 -2.6586  0.2840
  164TIP3   OH2  455   6.180   3.396   4.884 -0.0534 -0.7115 -0.1945
  164TIP3    H1  456   6.204   3.307   4.912  0.8760 -0.6848 -0.8640
  164TIP3    H2  457   6.126   3.383   4.806 -0.7956 -0.7066  0.3008
  165TIP3   OH2  458   5.458   2.374   3.824 -0.1618 -0.0504 -0.8761
  165TIP3    H1  459   5.545   2.411   3.808 -0.3002  1.2051  0.9208
  165TIP3    H2  460   5.473   2.302   3.885 -0.5077  1.6761  1.4000
  166TIP3   OH2  461   4.902   0.079   3.870  0.0671  0.0653 -0.1965
  166TIP3    H1  462   4.943   0.015   3.812  2.7766 -1.3424  2.9263
  166TIP3    H2  463   4.909   0.040   3.957 -0.9712  3.3210  1.5279
  167TIP3   OH2  464   6.563   4.836   0.336  0.8633 -0.3035 -0.0983
  167TIP3    H1  465   6.562   4.906   0.270 -2.4692 -0.8290 -0.7837
  167TIP3    H2  466   6.630   4.775   0.306  0.9930  0.5983 -1.7275
  168TIP3   OH2  467   1.237   5.668   2.114 -0.8827  0.1759  0.0390
  168TIP3    H1  468   1.321   5.638   2.079  0.0672 -0.2091  2.4608
  168TIP3    H2  469   1.175   5.652   2.043  0.8869 -0.5540 -1.4397
  169TIP3   OH2  470   6.213   2.974   0.608  0.0325 -0.2641  0.3876
  169TIP3    H1  471   6.261   2.967   0.691  0.3952 -2.0156  0.0565
  169TIP3    H2  472   6.121   2.967   0.633  0.1773 -1.7344  0.5832
  170TIP3   OH2  473   5.790   4.402   4.910 -0.1489 -0.1538  0.1777
  170TIP3    H1  474   5.853   4.453   4.960 -0.3072  0.5163 -0.2998
  170TIP3    H2  475   5.787   4.317   4.955  1.2482 -0.2766  0.0682
  171TIP3   OH2  476   6.179   3.088   1.574 -0.2058 -0.1265  0.5336
  171TIP3    H1  477   6.210   3.005   1.537 -0.1832  0.2944 -0.4064
  171TIP3    H2  478   6.219   3.155   1.519  1.1424  0.6008  2.2892
  172TIP3   OH2  479   5.665   6.620   4.074 -0.3203 -0.2964  0.2625
  172TIP3    H1  480   5.596   6.556   4.055  0.5576 -1.1255 -0.2549
  172TIP3    H2  481   5.714   6.581   4.146  1.8924 -1.6428 -1.7869
  173TIP3   OH2  482   4.816   4.351   1.322  0.0512  0.3885  0.1260
  173TIP3    H1  483   4.802   4.257   1.335  0.8182  0.3964  1.2009
  173TIP3    H2  484   4.788   4.368   1.232 -0.3301 -0.8190  0.0041
  174TIP3   OH2  485   5.899   1.505   5.559  0.2668  0.2337  0.5093
  174TIP3    H1  486   5.855   1.420   5.562  2.2466 -0.8113  1.5708
  174TIP3    H2  487   5.860   1.548   5.483 -0.8748 -1.5618 -0.0051
  175TIP3   OH2  488   3.962   4.959   4.863 -0.2068 -0.0529 -0.0496
  175TIP3    H1  489   3.912   4.904   4.924  0.0646  0.2183  0.4304
  175TIP3    H2  490   4.037   4.904   4.838 -0.2430 -0.1153 -0.0215
  176TIP3   OH2  491   5.311   3.886   2.029  0.4092 -0.7374 -1.0094
  176TIP3    H1  492   5.251   3.946   2.072  0.1187 -1.6555 -0.0771
  176TIP3    H2  493   5.378   3.867   2.095  0.1031 -1.9642 -1.0235
  177TIP3   OH2  494   3.846   6.146   4.511 -0.2838  0.5103 -0.0229
  177TIP3    H1  495   3.936   6.178   4.512  0.3696 -1.2156  0.7793
  177TIP3    H2  496   3.843   6.085   4.437 -0.0948 -1.1512  1.2698
  178TIP3   OH2  497   4.820   1.886   4.475  0.2652 -0.0588  0.3355
  178TIP3    H1  498   4.771   1.818   4.522 -0.8707  0.9451  0.6619
  178TIP3    H2  499   4.835   1.849   4.388 -0.8620 -0.5155  0.3135
  179TIP3   OH2  500   3.854   6.642   0.247  0.0091  0.3442  0.5299
  179TIP3    H1  501   3.812   6.558   0.232  0.3232  0.2970 -0.0941
  179TIP3    H2  502   3.849   6.655   0.342 -1.2104  0.2363  0.4962
  180TIP3   OH2  503   5.043   3.983   0.686  0.3614 -0.1470 -0.4431
  180TIP3    H1  504   5.039   3.893   0.718 -1.3096  0.1026  0.1361
  180TIP3    H2  505   5.121   3.985   0.630  0.7455 -1.7909 -0.0270
  181TIP3   OH2  506   0.710   2.455   2.981  0.2881  0.7723  0.1500
  181TIP3    H1  507   0.803   2.442   2.998  0.3382  1.0712  0.1070
  181TIP3    H2  508   0.690   2.391   2.912  0.1801 -0.1253  0.9949
  182TIP3   OH2  509   3.195   3.995   2.231 -0.0796  0.2705  0.0666
  182TIP3    H1  510   3.182   4.052   2.155  0.0729  1.7246  1.1022
  182TIP3    H2  511   3.121   3.934   2.228  0.2227 -0.0500 -1.5358
  183TIP3   OH2  512   0.685   3.471   0.723  0.5352 -0.7456 -0.1609
  183TIP3    H1  513   0.727   3.523   0.791 -2.9023  1.6924  0.4006
  183TIP3    H2  514   0.639   3.402   0.770 -0.5819  0.0113 -0.0968
  184TIP3   OH2  515   1.586   5.881   2.289  0.4656 -0.4115 -0.3908
  184TIP3    H1  516   1.601   5.789   2.312  2.8200 -0.0722 -0.2693
  184TIP3    H2  517   1.626   5.890   2.203  0.1465  0.4741 -0.4492
  185TIP3   OH2  518   0.953   6.630   3.140 -0.3759 -0.5262 -0.4287
  185TIP3    H1  519   0.867   6.667   3.160  0.2526  0.2563  0.9029
  185TIP3    H2  520   1.014   6.703   3.147  0.8503 -1.6623  1.8580
  186TIP3   OH2  521   4.377   0.956   0.984 -0.1325 -0.2914  0.1846
  186TIP3    H1  522   4.463   0.920   1.007  1.3842  2.0078 -1.3846
  186TIP3    H2  523   4.329   0.883   0.947  1.6955 -1.3665 -0.1922
  187TIP3   OH2  524   0.679   1.276   1.385  0.4496  0.2266 -1.0406
  187TIP3    H1  525   0.755   1.218   1.381 -0.0213 -0.5265  0.2330
  187TIP3    H2  526   0.610   1.229   1.338  0.4794  0.4440 -1.3059
  188TIP3   OH2  527   4.679   1.484   5.800 -0.2029  0.0748 -0.4169
  188TIP3    H1  528   4.652   1.529   5.880  2.6455 -0.7082  1.1266
  188TIP3    H2  529   4.601   1.437   5.771 -1.3862  0.5682  1.7619
  189TIP3   OH2  530   1.103   2.217   3.209 -0.2355  0.4318 -0.0934
  189TIP3    H1  531   1.013   2.225   3.238 -0.1380  0.9953  0.0578
  189TIP3    H2  532   1.131   2.131   3.241 -0.6241  0.3784  0.1036
  190TIP3   OH2  533   4.935   2.366   1.997 -0.3250  0.3798  0.0969
  190TIP3    H1  534   4.999   2.297   1.980 -1.0209 -0.1692 -0.3692
  190TIP3    H2  535   4.861   2.345   1.939 -1.1378  0.7067  0.9943
  191TIP3   OH2  536   4.009   1.300   4.509 -0.5452  0.0082  0.3701
  191TIP3    H1  537   3.963   1.228   4.466 -0.0154  0.2561 -0.6573
  191TIP3    H2  538   4.102   1.284   4.492 -0.4530  1.3322 -0.5876
  192TIP3   OH2  539   4.457   4.671   4.427 -0.3496 -0.7325 -0.1300
  192TIP3    H1  540   4.435   4.618   4.504 -1.9215  0.8817  0.6107
  192TIP3    H2  541   4.372   4.704   4.396  0.3174 -0.8065 -2.1796
  193TIP3   OH2  542   3.335   2.641   4.849  0.0172  0.1314 -0.2205
  193TIP3    H1  543   3.431   2.638   4.855  0.2620  3.2728 -0.6142
  193TIP3    H2  544   3.314   2.587   4.772  1.9096  2.1727 -2.3462
  194TIP3   OH2  545   4.022   0.433   2.381  0.7022  0.0366 -0.0287
  194TIP3    H1  546   3.931   0.447   2.355  0.3424 -0.2313  1.0247
  194TIP3    H2  547   4.069   0.420   2.299  0.2048  2.4161 -0.7507
  195TIP3   OH2  548   3.096   3.403   2.894 -0.0882  0.4665 -0.0965
  195TIP3    H1  549   3.036   3.443   2.957  0.5207  0.8176  0.2643
  195TIP3    H2  550   3.046   3.330   2.857 -0.0410 -0.5193  1.6922
  196TIP3   OH2  551   7.198   0.692   2.331  0.1398  0.6400 -0.0066
  196TIP3    H1  552   7.265   0.757   2.308  1.3471 -0.1201  1.2842
  196TIP3    H2  553   7.142   0.737   2.394 -1.2816  1.6440 -1.8763
  197TIP3   OH2  554   0.298   1.454   2.599 -0.6380 -0.0506 -0.2362
  197TIP3    H1  555   0.254   1.427   2.679 -4.1762 -0.5320 -2.1330
  197TIP3    H2  556   0.338   1.374   2.565  1.0739  0.2051  1.0901
  198TIP3   OH2  557   3.287   5.966   4.661 -0.2296 -0.5061 -0.0731
  198TIP3    H1  558   3.223   6.035   4.645 -0.7510 -1.0750 -0.5214
  198TIP3    H2  559   3.244   5.907   4.724  0.5877  0.0705  1.0549
  199TIP3   OH2  560   2.198   3.663   0.333 -0.1615 -0.4950  0.0078
  199TIP3    H1  561   2.185   3.736   0.394 -0.8210 -1.0670  0.5735
  199TIP3    H2  562   2.109   3.634   0.311  0.0770 -0.5127 -0.9780
  200TIP3   OH2  563   3.130   5.807   2.760  0.0983  0.2323  0.1754
  200TIP3    H1  564   3.213   5.774   2.795  0.1484 -1.2192 -1.2084
  200TIP3    H2  565   3.108   5.881   2.817  1.2767 -0.6411  1.8593
  201TIP3   OH2  566   4.065   0.671   1.302 -0.4535  0.2607  0.8743
  201TIP3    H1  567   3.972   0.649   1.297  0.0759 -1.8824 -1.6659
  201TIP3    H2  568   4.101   0.607   1.362  0.0844 -2.2797 -1.9383
  202TIP3   OH2  569   3.320   5.675   2.911  0.1415  0.6718 -0.3577
  202TIP3    H1  570   3.306   5.645   3.001  0.4933 -0.8415 -0.7857
  202TIP3    H2  571   3.360   5.601   2.867 -0.9321  1.0368 -2.0335
  203TIP3   OH2  572   5.970   2.411   2.367  0.4250 -0.1634 -0.4677
  203TIP3    H1  573   5.976   2.507   2.372  0.2523 -0.2052  1.0054
  203TIP3    H2  574   5.876   2.393   2.374  0.5652 -0.4839  0.8984
  204TIP3   OH2  575   3.479   1.490   3.020 -0.0767  0.5987 -0.0103
  204TIP3    H1  576   3.499   1.441   2.940  0.0722 -0.2255  0.5255
  204TIP3    H2  577   3.386   1.510   3.012  0.0911  1.1254 -0.7141
  205TIP3   OH2  578   0.293   4.749   4.709 -1.0617 -0.5154  0.5412
  205TIP3    H1  579   0.373   4.769   4.757 -0.6240  0.9935 -0.7632
  205TIP3    H2  580   0.296   4.654   4.698  0.7474 -0.4533  0.1948
  206TIP3   OH2  581   2.886   6.786   1.353 -0.0089  0.3252  0.0849
  206TIP3    H1  582   2.929   6.788   1.438 -1.0254 -2.4251  0.7689
  206TIP3    H2  583   2.793   6.776   1.373 -0.3700  0.4428 -1.3577
  207TIP3   OH2  584   3.457   1.045   5.108  0.0491  1.0542 -0.0569
  207TIP3    H1  585   3.528   1.092   5.152  0.0950  1.1288 -0.2130
  207TIP3    H2  586   3.434   0.975   5.169  0.0799  1.1885  0.1099
  208TIP3   OH2  587   1.915   6.265   1.753 -0.7091 -0.9363  0.1236
  208TIP3    H1  588   1.992   6.310   1.789 -1.2074 -0.0214  0.0899
  208TIP3    H2  589   1.946   6.178   1.730  0.6332 -0.1828 -1.0564
  209TIP3   OH2  590   5.914   1.144   2.076 -0.2596 -0.2644  0.2415
  209TIP3    H1  591   5.883   1.215   2.019 -0.8297 -0.2178  0.5971
  209TIP3    H2  592   5.904   1.065   2.023  1.0661 -0.0131 -0.4218
  210TIP3   OH2  593   0.724   1.403   3.483 -0.5784  0.0221  0.0720
  210TIP3    H1  594   0.668   1.457   3.538  2.5085  1.6660  1.8888
  210TIP3    H2  595   0.768   1.343   3.544  1.9120  0.9465 -0.6807
  211TIP3   OH2  596   2.086   0.142   2.336 -0.1956  0.1944 -0.0222
  211TIP3    H1  597   2.034   0.077   2.384 -2.2556  1.0252 -0.9615
  211TIP3    H2  598   2.142   0.183   2.402 -2.2839  0.6906  1.5470
  212TIP3   OH2  599   4.396   2.034   4.475 -0.3977 -0.4285  0.0708
  212TIP3    H1  600   4.362   1.985   4.400 -0.2349 -0.8154  0.2457
  212TIP3    H2  601   4.318   2.063   4.522 -0.4985 -0.3207 -0.1640
  213TIP3   OH2  602   5.020   3.735   4.287 -0.1597 -0.2162 -0.3872
  213TIP3    H1  603   5.062   3.723   4.373 -1.3402 -0.0681  0.2331
  213TIP3    H2  604   4.926   3.725   4.305 -0.5304  1.1867 -1.4144
  214TIP3   OH2  605   2.786   5.778   2.508 -0.8767  0.5743  0.1771
  214TIP3    H1  606   2.856   5.842   2.519 -1.1002  0.8002  0.3127
  214TIP3    H2  607   2.800   5.715   2.578 -1.5476  1.3134  1.0107
  215TIP3   OH2  608   2.644   2.850   1.591 -0.6582 -0.1727 -0.6273
  215TIP3    H1  609   2.722   2.887   1.551 -1.0127 -1.7163 -2.9344
  215TIP3    H2  610   2.625   2.908   1.665  1.7885  1.0774 -0.8905
  216TIP3   OH2  611   2.316   0.509   4.671  0.4722 -0.0230  0.3649
  216TIP3    H1  612   2.253   0.474   4.733  0.2305 -3.1403 -1.4169
  216TIP3    H2  613   2.393   0.529   4.725 -0.6504  0.0806  2.0190
  217TIP3   OH2  614   4.414   3.583   1.980  0.1450 -0.4295  0.7662
  217TIP3    H1  615   4.494   3.543   2.014  0.0795  0.0613  1.5147
  217TIP3    H2  616   4.346   3.518   1.996  0.1094 -0.1925  1.6201
  218TIP3   OH2  617   2.516   1.750   5.685 -0.0493  0.0537 -0.1435
  218TIP3    H1  618   2.498   1.814   5.754 -1.2765  1.0794 -1.3694
  218TIP3    H2  619   2.499   1.797   5.604 -0.9318 -1.8163 -1.0944
  219TIP3   OH2  620   2.099   5.599   2.432 -0.0097  0.2212 -0.5206
  219TIP3    H1  621   2.157   5.631   2.501  0.0775  0.1795 -0.5745
  219TIP3    H2  622   2.051   5.677   2.403 -2.1311 -0.2265  1.5511
  220TIP3   OH2  623   3.080   5.582   5.079 -0.4891  0.2204 -0.0871
  220TIP3    H1  624   3.144   5.637   5.126 -1.2883 -0.2204  1.6217
  220TIP3    H2  625   3.131   5.536   5.013  0.5844  1.4065 -0.1249
  221TIP3   OH2  626   2.157   0.411   4.854 -0.9869  0.1663  0.0217
  221TIP3    H1  627   2.211   0.348   4.902  0.1057  0.1550 -1.1661
  221TIP3    H2  628   2.115   0.463   4.923  0.0338 -0.2531  1.0044
  222TIP3   OH2  629   6.770   5.218   4.661  0.3241 -0.4132  0.1266
  222TIP3    H1  630   6.806   5.138   4.697 -0.4349 -1.0768 -0.5591
  222TIP3    H2  631   6.705   5.247   4.726  1.3224  0.2323  0.8706
  223TIP3   OH2  632   5.998   6.137   0.642 -0.1474 -0.1897  0.3310
  223TIP3    H1  633   5.926   6.103   0.696  0.7420 -1.3535  0.8208
  223TIP3    H2  634   6.074   6.135   0.700 -0.1929  3.7460  0.8033
  224TIP3   OH2  635   2.965   2.434   1.828 -0.2352 -0.2874  0.3091
  224TIP3    H1  636   2.872   2.437   1.808 -0.2906  2.5122  0.5181
  224TIP3    H2  637   3.001   2.368   1.768 -2.2215 -0.8932 -0.2756
  225TIP3   OH2  638   1.911   2.388   0.308  0.3001 -0.2049  0.0546
  225TIP3    H1  639   1.841   2.443   0.343  0.3826  0.0885 -0.2319
  225TIP3    H2  640   1.878   2.358   0.224  1.2812  1.5555 -1.0283
  226TIP3   OH2  641   2.461   0.588   1.823 -0.0452 -0.1717 -0.0415
  226TIP3    H1  642   2.499   0.504   1.849  0.3818 -0.5426 -1.7356
  226TIP3    H2  643   2.529   0.652   1.844  0.2798 -0.4520 -0.2285
  227TIP3   OH2  644   0.339   4.241   3.752 -0.0561  0.4027  0.8871
  227TIP3    H1  645   0.346   4.158   3.705 -0.6596  1.3094 -0.8715
  227TIP3    H2  646   0.407   4.296   3.715  0.6996  0.5734  2.4198
  228TIP3   OH2  647   5.997   3.100   0.415  0.3983 -0.0945  0.0982
  228TIP3    H1  648   6.054   3.075   0.342  1.6227 -0.2610  1.0802
  228TIP3    H2  649   5.956   3.018   0.442 -3.3396  0.4555 -2.9329
  229TIP3   OH2  650   0.693   4.885   5.193  0.6546 -0.0180 -0.2611
  229TIP3    H1  651   0.676   4.826   5.266  0.8420 -1.3386 -1.2392
  229TIP3    H2  652   0.789   4.890   5.187  0.6417  0.6690  0.0266
  230TIP3   OH2  653   3.521   6.234   2.555  0.7795 -0.1197  0.6608
  230TIP3    H1  654   3.538   6.281   2.636 -0.6226  0.1909  0.8132
  230TIP3    H2  655   3.508   6.143   2.581 -1.5216  0.2630  1.1095
  231TIP3   OH2  656   4.702   4.884   1.410  0.5035  0.2273 -0.4364
  231TIP3    H1  657   4.748   4.934   1.343 -0.9099  0.7769 -1.0328
  231TIP3    H2  658   4.644   4.826   1.361  0.6000 -0.5040  0.2944
  232TIP3   OH2  659   4.191   6.237   1.282  0.2779 -0.3476 -0.1984
  232TIP3    H1  660   4.252   6.180   1.235  0.9299 -0.4137  0.6986
  232TIP3    H2  661   4.156   6.295   1.215  0.2795 -1.2212 -0.9706
  233TIP3   OH2  662   3.563   3.695   3.991 -0.3865 -0.3223 -0.8130
  233TIP3    H1  663   3.490   3.643   4.026  0.1009 -1.8363 -1.9429
  233TIP3    H2  664   3.639   3.665   4.041 -0.5880  1.8839  0.9866
  234TIP3   OH2  665   1.243   4.763   4.349  0.7690  0.5147 -0.5883
  234TIP3    H1  666   1.281   4.762   4.261 -0.0248  1.3221 -0.9582
  234TIP3    H2  667   1.159   4.807   4.338  0.2541 -0.1833  0.4221
  235TIP3   OH2  668   6.209   2.405   3.712 -0.0249 -0.3784 -0.1230
  235TIP3    H1  669   6.196   2.386   3.805 -0.9754  0.4878 -0.0609
  235TIP3    H2  670   6.120   2.411   3.676  0.2642  1.2682 -0.6538
  236TIP3   OH2  671   1.111   6.619   4.878  0.4368  0.2565 -0.1628
  236TIP3    H1  672   1.207   6.622   4.873  0.3649  1.2539 -1.5946
  236TIP3    H2  673   1.081   6.665   4.800 -1.2260  1.6197  1.1805
  237TIP3   OH2  674   2.636   6.351   5.810 -0.2374 -0.0091 -0.1113
  237TIP3    H1  675   2.550   6.386   5.837  0.5335  1.9961 -0.0981
  237TIP3    H2  676   2.629   6.340   5.715 -0.2950  0.8326 -0.2117
  238TIP3   OH2  677   1.970   5.505   4.052 -0.7282 -0.1861  0.1973
  238TIP3    H1  678   1.951   5.463   3.968 -1.3835 -2.3990  1.3763
  238TIP3    H2  679   1.889   5.551   4.074 -0.3178  0.9967 -0.6767
  239TIP3   OH2  680   1.003   1.356   0.341  0.3244  0.7931 -0.0989
  239TIP3    H1  681   1.013   1.451   0.350 -0.8629  0.7901  2.0833
  239TIP3    H2  682   0.916   1.338   0.375  0.7080 -1.1334 -0.0121
  240TIP3   OH2  683   4.893   0.147   3.226  0.1194  0.5363  0.5528
  240TIP3    H1  684   4.804   0.158   3.193  0.6052 -0.6830 -1.2921
  240TIP3    H2  685   4.939   0.226   3.197  0.1928  0.1053 -0.5533
  241TIP3   OH2  686   4.507   1.767   3.202  0.5092  0.0985  0.3064
  241TIP3    H1  687   4.553   1.750   3.120 -0.9946 -3.0637 -0.0211
  241TIP3    H2  688   4.421   1.799   3.176  0.2720 -0.2364  0.6741
  242TIP3   OH2  689   2.688   2.617   2.937  0.0796  0.3443 -0.3052
  242TIP3    H1  690   2.713   2.650   3.023  0.2676 -0.3986 -0.0656
  242TIP3    H2  691   2.720   2.526   2.935  1.9133  0.9542 -1.9478
  243TIP3   OH2  692   2.342   4.241   2.429  0.5072 -0.1100 -0.3761
  243TIP3    H1  693   2.314   4.323   2.390  0.7827  0.1323 -0.0741
  243TIP3    H2  694   2.295   4.236   2.512 -2.8053 -2.2847 -2.1523
  244TIP3   OH2  695   5.845   6.342  -0.005  0.2323 -0.2624 -0.4846
  244TIP3    H1  696   5.773   6.336  -0.067 -0.6629  1.4684  0.2958
  244TIP3    H2  697   5.812   6.300   0.075  0.4564 -0.3306 -0.4260
  245TIP3   OH2  698   0.491   5.919   2.192 -0.4170 -0.2628  0.5777
  245TIP3    H1  699   0.438   5.910   2.113  1.3205  0.6675 -0.7554
  245TIP3    H2  700   0.576   5.882   2.169 -0.0067 -0.3714  2.1625
  246TIP3   OH2  701   2.508   1.030   5.140  0.9661  0.6259 -0.4712
  246TIP3    H1  702   2.542   1.093   5.203  0.2925  2.3150 -1.7032
  246TIP3    H2  703   2.438   0.983   5.187  1.0948  1.1901  0.2995
  247TIP3   OH2  704   3.775   6.069   0.183  0.0280  0.0396  0.4405
  247TIP3    H1  705   3.717   6.058   0.258  0.8517 -0.7486  0.9886
  247TIP3    H2  706   3.861   6.087   0.221  0.5732 -0.8998 -0.2818
  248TIP3   OH2  707   3.525   0.039   3.723 -0.4274 -0.5447  0.0198
  248TIP3    H1  708   3.583   0.075   3.656 -1.4571  2.2732  0.5060
  248TIP3    H2  709   3.466  -0.020   3.675  0.0401 -0.0228 -1.2157
  249TIP3   OH2  710   5.150   5.993   1.633 -0.0856  0.2398 -0.0387
  249TIP3    H1  711   5.240   5.963   1.618 -0.1989 -0.6207  0.8779
  249TIP3    H2  712   5.104   5.972   1.552  0.2524 -0.5161 -0.0467
  250TIP3   OH2  713   4.718   6.512   5.834 -0.1938 -0.6173  0.2929
  250TIP3    H1  714   4.734   6.418   5.836  1.4151 -0.5225 -2.5242
  250TIP3    H2  715   4.801   6.550   5.805 -1.7984  1.2706 -2.2281
  251TIP3   OH2  716   7.131   3.960   4.650 -0.1684  0.0659  0.0528
  251TIP3    H1  717   7.216   3.967   4.607 -0.4474  1.5288 -0.3395
  251TIP3    H2  718   7.145   3.900   4.723  1.2133  0.3138  0.0125
  252TIP3   OH2  719   1.759   0.565   5.355 -0.2667  0.1686 -0.2239
  252TIP3    H1  720   1.832   0.554   5.416  0.5041  0.4168 -1.0747
  252TIP3    H2  721   1.772   0.496   5.290 -2.0872 -1.2381  0.8189
  253TIP3   OH2  722   0.507   0.991   1.426 -0.5310 -0.2016  0.0874
  253TIP3    H1  723   0.422   0.948   1.416 -0.9615  0.7604 -0.5136
  253TIP3    H2  724   0.539   1.000   1.336  0.1559 -0.4327  0.3014
  254TIP3   OH2  725   3.921   4.783   1.460 -0.0947  0.0167 -0.2299
  254TIP3    H1  726   3.887   4.821   1.541  0.8850 -1.0940  0.7179
  254TIP3    H2  727   3.887   4.694   1.459  0.2520 -0.1121 -0.8264
  255TIP3   OH2  728   1.476   2.051   4.763 -0.5211  0.0333  0.0891
  255TIP3    H1  729   1.535   2.020   4.695 -0.8594  1.3892 -0.8661
  255TIP3    H2  730   1.394   2.071   4.717 -0.8444  0.7173  0.9273
  256TIP3   OH2  731   5.539   4.767   0.485  0.6739 -0.9592  0.4091
  256TIP3    H1  732   5.531   4.839   0.547  0.6914 -1.0496  0.5182
  256TIP3    H2  733   5.632   4.762   0.465  0.8002 -1.5092  1.0807
  257TIP3   OH2  734   4.808   4.948   2.220 -0.3389 -1.1770 -0.3057
  257TIP3    H1  735   4.729   4.936   2.167 -0.4725 -0.1348 -0.3655
  257TIP3    H2  736   4.793   4.895   2.297 -0.4986 -2.0728 -0.9404
  258TIP3   OH2  737   2.941   6.667   5.573 -0.2567  0.7015  0.7244
  258TIP3    H1  738   2.857   6.632   5.542  0.4338 -0.3150 -0.0625
  258TIP3    H2  739   2.994   6.590   5.592  1.2289  1.2622 -0.8297
  259TIP3   OH2  740   6.591   0.771   5.053  0.3369  0.1990 -0.7123
  259TIP3    H1  741   6.531   0.824   5.105 -1.5278 -2.7581  0.3949
  259TIP3    H2  742   6.677   0.786   5.092  0.2756  3.6116 -1.5769
  260TIP3   OH2  743   3.366   2.344   2.224 -0.6726 -0.2640  0.4285
  260TIP3    H1  744   3.383   2.434   2.200  1.0866 -0.6140  0.2137
  260TIP3    H2  745   3.434   2.323   2.289  0.5265 -2.1366 -1.3098
  261TIP3   OH2  746   2.187   1.540   5.480 -0.4874 -0.1458  0.0127
  261TIP3    H1  747   2.122   1.543   5.550  0.2111  1.1008  0.6378
  261TIP3    H2  748   2.192   1.447   5.456  0.1230 -0.8176  2.4376
  262TIP3   OH2  749   3.864   6.157   2.019  0.3180 -0.1988  0.0227
  262TIP3    H1  750   3.880   6.230   1.959  1.7008  0.3596  1.0261
  262TIP3    H2  751   3.864   6.080   1.962 -1.2010  0.5379 -1.0577
  263TIP3   OH2  752   5.383   4.602   3.623  0.0175  0.5541  0.7552
  263TIP3    H1  753   5.295   4.616   3.588  0.2791 -1.2728 -0.7846
  263TIP3    H2  754   5.368   4.566   3.711 -0.8409 -0.7664  0.1013
  264TIP3   OH2  755   2.467   5.829   0.145 -0.0654 -0.1265 -0.6301
  264TIP3    H1  756   2.397   5.763   0.141  0.2566 -0.4895 -0.3263
  264TIP3    H2  757   2.528   5.803   0.076  0.3851 -0.5239 -0.0895
  265TIP3   OH2  758   0.398   4.967   0.852  0.1383 -0.0076 -0.1044
  265TIP3    H1  759   0.415   4.935   0.941 -0.0803  0.4790  0.1159
  265TIP3    H2  760   0.479   5.011   0.826  0.1451 -0.0070 -0.0826
  266TIP3   OH2  761   0.537   3.918   1.712 -0.0384  0.1191  0.5049
  266TIP3    H1  762   0.594   3.954   1.644 -1.9228 -0.2039 -1.3875
  266TIP3    H2  763   0.548   3.823   1.704 -1.8171 -0.0313 -0.9227
  267TIP3   OH2  764   2.691   4.143   0.558 -0.5726  0.9061 -0.0670
  267TIP3    H1  765   2.632   4.112   0.489  1.3722 -0.1170 -1.3486
  267TIP3    H2  766   2.695   4.070   0.620  0.5177  0.3179 -0.7934
  268TIP3   OH2  767   4.758   4.289   0.830 -0.0295  0.0510 -0.0538
  268TIP3    H1  768   4.849   4.298   0.804  0.0538  1.8185  0.7517
  268TIP3    H2  769   4.757   4.309   0.924 -1.5332  2.4411 -0.4819
  269TIP3   OH2  770   3.474   5.328   5.790  0.3970  0.2423  0.2296
  269TIP3    H1  771   3.487   5.380   5.870  0.1526  2.4277 -1.0669
  269TIP3    H2  772   3.432   5.247   5.820  1.8286  0.2595  2.4921
  270TIP3   OH2  773   2.384   5.311   5.018 -0.1327 -0.7109 -0.7023
  270TIP3    H1  774   2.427   5.280   5.097  2.0900  2.8595 -0.2559
  270TIP3    H2  775   2.451   5.306   4.950 -0.4112  0.6987 -1.1298
  271TIP3   OH2  776   5.954   1.081   1.744 -0.4311 -0.1347 -0.5158
  271TIP3    H1  777   6.043   1.049   1.729  0.3507  0.9133  1.5591
  271TIP3    H2  778   5.965   1.168   1.782 -2.3044 -0.3909  0.7706
  272TIP3   OH2  779   6.911   1.813   2.740  0.1213  0.3610 -0.3342
  272TIP3    H1  780   6.853   1.873   2.787 -0.4725 -1.1233  0.9138
  272TIP3    H2  781   6.870   1.727   2.749 -0.7554  0.0908 -4.7776
  273TIP3   OH2  782   1.684   5.838   4.297  0.6006 -0.2744 -0.2079
  273TIP3    H1  783   1.589   5.850   4.292  0.6474 -0.1919 -1.1478
  273TIP3    H2  784   1.710   5.882   4.378  0.0280  0.9840 -0.6813
  274TIP3   OH2  785   0.851   1.318   2.870 -0.5278 -0.1533 -0.1596
  274TIP3    H1  786   0.890   1.268   2.798 -1.7721 -2.2667  0.5489
  274TIP3    H2  787   0.775   1.361   2.831 -0.4724 -0.2569 -0.3836
  275TIP3   OH2  788   3.774   1.027   4.103  0.1708  0.2344 -0.1760
  275TIP3    H1  789   3.812   1.107   4.066  1.3105  0.7663  1.9674
  275TIP3    H2  790   3.694   1.058   4.148  0.1172  0.0256 -0.1284
  276TIP3   OH2  791   5.365   4.301   0.056  0.2845  0.5738 -0.5850
  276TIP3    H1  792   5.455   4.334   0.065  0.3103  0.7234 -1.2961
  276TIP3    H2  793   5.366   4.216   0.101  0.7810  0.5768 -0.5862
  277TIP3   OH2  794   1.573   1.606   5.010  0.2417 -0.0493 -0.3876
  277TIP3    H1  795   1.607   1.538   4.952  0.1297 -0.9582  0.5669
  277TIP3    H2  796   1.633   1.679   5.000  2.0820 -1.3464  0.6993
  278TIP3   OH2  797   7.123   6.325   1.086 -0.5993  0.1096 -0.9322
  278TIP3    H1  798   7.105   6.258   1.020 -1.9684 -0.2215 -0.2439
  278TIP3    H2  799   7.055   6.314   1.152  0.5355  0.6651  0.3864
  279TIP3   OH2  800   1.266   3.611   2.345  0.0984  0.8684 -0.3865
  279TIP3    H1  801   1.264   3.694   2.391 -2.5006 -1.5367  4.5903
  279TIP3    H2  802   1.340   3.563   2.384 -1.1107 -0.6536  0.1559
  280TIP3   OH2  803   2.613   2.248   0.214  0.1123 -0.0253  0.4363
  280TIP3    H1  804   2.638   2.258   0.306 -0.1745  2.4783  0.3048
  280TIP3    H2  805   2.657   2.319   0.169  0.0256 -1.0527 -1.3555
  281TIP3   OH2  806   3.510   4.552   5.320  0.1306 -0.1925  0.1219
  281TIP3    H1  807   3.501   4.623   5.384  0.0909  0.6834 -0.8272
  281TIP3    H2  808   3.562   4.485   5.365  0.4393  0.5677  0.9264
  282TIP3   OH2  809   1.567   0.645   0.748 -0.2251 -0.7842 -0.1358
  282TIP3    H1  810   1.587   0.614   0.837 -1.9633 -1.3059  0.1189
  282TIP3    H2  811   1.603   0.579   0.690  2.1221  0.2264  0.0701
  283TIP3   OH2  812   2.219   4.097   1.366 -0.0237  0.1204 -0.2807
  283TIP3    H1  813   2.165   4.021   1.343 -2.0147  1.9487 -1.9915
  283TIP3    H2  814   2.157   4.162   1.398  1.7181  0.8771  1.7818
  284TIP3   OH2  815   7.000   2.974   4.452  0.1386  0.5235  0.2826
  284TIP3    H1  816   7.051   2.930   4.384 -0.4626 -0.0226  0.1663
  284TIP3    H2  817   6.939   3.030   4.403 -0.6548 -0.2688  0.3301
  285TIP3   OH2  818   2.791   5.070   3.216  0.4292  0.1520  0.5561
  285TIP3    H1  819   2.704   5.048   3.183  0.1173  2.1271 -0.0946
  285TIP3    H2  820   2.851   5.051   3.144  0.1840  1.1666  0.0624
  286TIP3   OH2  821   5.925   2.095   4.493 -0.6484 -0.3908 -0.6442
  286TIP3    H1  822   5.933   2.009   4.535  2.4563 -0.2291 -0.6592
  286TIP3    H2  823   5.857   2.083   4.427 -2.1631 -2.0473  1.0981
  287TIP3   OH2  824   3.488   4.820   5.502 -0.3480  0.1759  0.3604
  287TIP3    H1  825   3.427   4.860   5.564  1.6837 -0.6756  3.1347
  287TIP3    H2  826   3.543   4.763   5.556  1.4796 -0.7913 -2.3054
  288TIP3   OH2  827   7.125   3.796   1.790  0.0894  0.0563  0.1175
  288TIP3    H1  828   7.093   3.826   1.875 -1.1032 -0.3993 -0.1546
  288TIP3    H2  829   7.101   3.703   1.787  1.9050 -0.4568  0.1000
  289TIP3   OH2  830   2.541   6.752   4.110 -0.0387  0.4776  0.2567
  289TIP3    H1  831   2.517   6.669   4.152  0.2137  0.1686 -0.1894
  289TIP3    H2  832   2.512   6.820   4.171  0.1912  0.0479  0.8590
  290TIP3   OH2  833   3.755   4.413   3.659 -0.3756 -0.1219 -0.0736
  290TIP3    H1  834   3.719   4.327   3.638 -1.1173  0.0197  0.5558
  290TIP3    H2  835   3.769   4.410   3.754  0.6679  0.0654 -0.2079
  291TIP3   OH2  836   2.764   0.855   0.607  0.6533 -0.2208 -0.1064
  291TIP3    H1  837   2.672   0.876   0.625  0.8209  0.6441 -0.2175
  291TIP3    H2  838   2.766   0.841   0.512  0.6704 -0.0441 -0.1329
  292TIP3   OH2  839   2.997   3.443   1.362  0.3945  0.2472  0.2969
  292TIP3    H1  840   2.938   3.422   1.434 -2.8122 -0.3235 -2.2490
  292TIP3    H2  841   2.963   3.526   1.327  1.4062  0.1592 -0.9665
  293TIP3   OH2  842   0.448   0.770   5.448 -0.6158  0.1198 -0.0860
  293TIP3    H1  843   0.412   0.698   5.396 -1.3385  1.0299 -0.8797
  293TIP3    H2  844   0.422   0.750   5.538 -0.6211 -0.7101 -0.2614
  294TIP3   OH2  845   2.344   3.348   3.707 -0.0637  0.2599  0.1305
  294TIP3    H1  846   2.283   3.294   3.656  0.6302 -1.2369  0.8209
  294TIP3    H2  847   2.370   3.418   3.647  1.3093 -1.8441 -1.9139
  295TIP3   OH2  848   0.304   5.202   5.067 -0.3978 -0.1672  0.0720
  295TIP3    H1  849   0.246   5.131   5.095  2.1273 -2.5881 -0.3961
  295TIP3    H2  850   0.375   5.158   5.020  1.2666  2.7119 -0.3568
  296TIP3   OH2  851   5.745   3.923   4.981 -0.3961 -0.2829  0.2000
  296TIP3    H1  852   5.746   3.879   5.066 -1.4270 -1.0021 -0.1393
  296TIP3    H2  853   5.814   3.990   4.988  0.2102 -0.9836  1.2346
  297TIP3   OH2  854   4.657   3.467   2.566  0.0822  0.5728 -0.1353
  297TIP3    H1  855   4.626   3.551   2.599 -0.0639  0.5225 -0.1436
  297TIP3    H2  856   4.610   3.455   2.484 -1.6780 -0.6099  0.9820
  298TIP3   OH2  857   6.796   1.689   3.352  0.1031  0.1398 -0.3508
  298TIP3    H1  858   6.745   1.639   3.415 -1.3106  1.0613 -0.7057
  298TIP3    H2  859   6.747   1.682   3.270  1.1250  0.1799 -0.9917
  299TIP3   OH2  860   5.202   4.928   5.123 -0.1011  0.2291 -0.0835
  299TIP3    H1  861   5.239   5.006   5.163 -0.1706  0.2239 -0.0087
  299TIP3    H2  862   5.159   4.882   5.195  1.4162 -0.7621  0.2498
  300TIP3   OH2  863   1.052   2.661   5.060  0.4019  0.1959  0.1366
  300TIP3    H1  864   1.033   2.754   5.068  2.2257  0.7398 -1.2050
  300TIP3    H2  865   1.023   2.623   5.143 -0.2634  1.9617  0.7493
  301TIP3   OH2  866   4.348   2.003   4.859 -0.1888  0.3577  0.1491
  301TIP3    H1  867   4.364   1.948   4.935  1.2767  2.5461  1.5495
  301TIP3    H2  868   4.282   1.956   4.808 -1.1397 -1.2535  2.6830
  302TIP3   OH2  869   3.187   2.240   4.147  0.2721  0.1238 -0.0849
  302TIP3    H1  870   3.212   2.150   4.165  0.3107  0.1667  0.0761
  302TIP3    H2  871   3.095   2.235   4.122  0.7112 -0.1707 -1.7464
  303TIP3   OH2  872   3.882   1.313   4.043 -0.1419 -0.8328  0.3358
  303TIP3    H1  873   3.888   1.379   4.112 -1.8919  0.8982 -1.0128
  303TIP3    H2  874   3.967   1.317   3.999  0.5945 -1.1708  1.6927
  304TIP3   OH2  875   0.299   5.629   4.649 -0.0216  0.1216  0.6146
  304TIP3    H1  876   0.205   5.635   4.664 -0.1618  0.9078 -0.4052
  304TIP3    H2  877   0.335   5.706   4.694 -0.3224  1.8693 -1.8985
  305TIP3   OH2  878   4.280   3.976   4.645 -0.1150  0.1708 -0.3512
  305TIP3    H1  879   4.257   3.997   4.736 -0.3567 -0.4641 -0.2652
  305TIP3    H2  880   4.227   4.037   4.593 -0.3405  0.2102 -0.0800
  306TIP3   OH2  881   6.641   4.975   3.111  0.8156 -0.3085  0.2871
  306TIP3    H1  882   6.727   4.936   3.098  1.1657  0.3003  0.7146
  306TIP3    H2  883   6.624   4.966   3.204 -0.3337 -1.9118 -0.0292
  307TIP3   OH2  884   6.274   3.925   4.462 -0.9592 -0.1396  0.1185
  307TIP3    H1  885   6.300   3.845   4.508  1.0411  0.9242  0.9814
  307TIP3    H2  886   6.282   3.903   4.370 -0.5685 -0.9864  0.3392
  308TIP3   OH2  887   1.051   4.010   1.378 -0.5898  0.4867  0.0888
  308TIP3    H1  888   0.973   4.015   1.323 -1.8269 -0.6429  1.6573
  308TIP3    H2  889   1.041   4.081   1.441  0.3449  1.1814 -0.5215
  309TIP3   OH2  890   0.531   0.997   2.586  0.2849 -0.2491 -0.4119
  309TIP3    H1  891   0.459   0.952   2.630  0.1810 -0.6986 -1.0318
  309TIP3    H2  892   0.503   1.004   2.495  1.7561 -1.9954 -1.0515
  310TIP3   OH2  893   6.466   4.482   5.756 -0.3001  0.0787 -0.0279
  310TIP3    H1  894   6.556   4.477   5.723  0.1309  2.7851  0.4190
  310TIP3    H2  895   6.412   4.479   5.678  0.1859 -1.0592 -0.3437
  311TIP3   OH2  896   5.347   2.826   3.266  0.0617  0.2111  0.2149
  311TIP3    H1  897   5.372   2.754   3.323 -1.1883  0.1118  0.6670
  311TIP3    H2  898   5.376   2.905   3.312  0.2858  0.0605  0.3316
  312TIP3   OH2  899   6.190   1.829   4.740  0.0381 -0.2094  0.2118
  312TIP3    H1  900   6.216   1.742   4.772 -0.6759 -0.7414 -0.6392
  312TIP3    H2  901   6.271   1.866   4.706  0.0383 -1.2446 -0.9988
  313TIP3   OH2  902   4.299   4.128   5.585 -0.4458 -0.4047  0.0457
  313TIP3    H1  903   4.382   4.113   5.630  0.3906  2.0872 -0.5089
  313TIP3    H2  904   4.265   4.208   5.624 -1.6332 -0.3414 -1.0636
  314TIP3   OH2  905   5.744   6.033   5.542  0.6233 -0.0966  0.6782
  314TIP3    H1  906   5.650   6.017   5.553  1.1506 -3.3321  1.3740
  314TIP3    H2  907   5.786   5.961   5.589  3.4617  0.5184 -0.7314
  315TIP3   OH2  908   3.916   0.570   3.443  1.1563 -0.1005 -0.2588
  315TIP3    H1  909   3.976   0.644   3.433  0.7846  0.1436 -0.7043
  315TIP3    H2  910   3.972   0.492   3.439  1.4013  0.1112 -1.0636
  316TIP3   OH2  911   6.336   6.565   3.861 -0.5427  0.5398 -0.1049
  316TIP3    H1  912   6.291   6.496   3.910 -1.3362 -0.0989 -1.6539
  316TIP3    H2  913   6.297   6.562   3.773  1.7149  0.7295 -1.1962
  317TIP3   OH2  914   2.808   1.515   1.309 -0.2102 -0.0675  0.0913
  317TIP3    H1  915   2.750   1.567   1.252 -0.3657 -0.6622 -0.3023
  317TIP3    H2  916   2.748   1.465   1.364 -0.0998  2.0073  2.2438
  318TIP3   OH2  917   2.756   1.158   0.458  0.0873  0.3125  0.1302
  318TIP3    H1  918   2.719   1.181   0.543  0.8325  0.6583  0.3697
  318TIP3    H2  919   2.704   1.208   0.395 -0.5738 -0.0732  0.3632
  319TIP3   OH2  920   1.563   6.368   3.129 -0.2066 -0.6853  0.6544
  319TIP3    H1  921   1.485   6.420   3.112  0.8353  0.6938 -0.1415
  319TIP3    H2  922   1.539   6.312   3.203 -1.9270 -0.3066  0.4273
  320TIP3   OH2  923   3.826   0.908   3.713 -0.2278  0.1211 -0.2703
  320TIP3    H1  924   3.750   0.867   3.753 -0.3518 -0.1988 -0.8197
  320TIP3    H2  925   3.806   1.002   3.712 -0.8962 -0.0236 -0.9958
  321TIP3   OH2  926   0.447   5.816   3.463 -0.3568  0.6396 -0.4249
  321TIP3    H1  927   0.388   5.864   3.404  0.0956  0.2975 -1.1775
  321TIP3    H2  928   0.524   5.873   3.470  1.3428 -1.0235 -3.4543
  322TIP3   OH2  929   6.529   0.525   4.157  0.2657 -0.3791  0.7975
  322TIP3    H1  930   6.517   0.507   4.250  0.9317 -0.2058  0.9207
  322TIP3    H2  931   6.584   0.454   4.125 -0.3200 -0.6767  0.4353
  323TIP3   OH2  932   4.505   0.326   1.649 -0.1066 -0.1155 -0.2636
  323TIP3    H1  933   4.467   0.268   1.583  0.0328 -1.2205  0.6040
  323TIP3    H2  934   4.449   0.316   1.725  0.0300  0.7615 -0.0464
  324TIP3   OH2  935   0.665   5.389   1.853 -0.3570 -0.8640 -0.1457
  324TIP3    H1  936   0.582   5.377   1.900 -0.5904  0.0687 -0.3005
  324TIP3    H2  937   0.652   5.348   1.768 -0.6088 -0.8485 -0.1134
  325TIP3   OH2  938   2.893   4.941   0.159  0.5583 -0.4404  0.1348
  325TIP3    H1  939   2.797   4.948   0.167  0.7075  1.4673  0.7504
  325TIP3    H2  940   2.916   5.004   0.091  1.3803 -0.9913 -0.1100
  326TIP3   OH2  941   2.173   3.901   5.095  0.1189  0.1995  0.9462
  326TIP3    H1  942   2.093   3.851   5.110  0.0209 -0.2396 -0.7701
  326TIP3    H2  943   2.167   3.976   5.154 -1.3702 -0.0412  1.1287
  327TIP3   OH2  944   3.568   1.596   2.413  0.4983 -0.5190 -0.4486
  327TIP3    H1  945   3.647   1.589   2.359 -0.2974 -1.5464 -1.5418
  327TIP3    H2  946   3.590   1.549   2.494  0.9979 -0.8053 -0.7440
  328TIP3   OH2  947   0.100   1.188   2.897  0.1176 -0.0470  0.2043
  328TIP3    H1  948   0.112   1.118   2.961  1.0366  0.2431  0.3519
  328TIP3    H2  949   0.187   1.205   2.862  0.1829  2.0603  1.2371
  329TIP3   OH2  950   2.499   5.450   3.773 -0.0914  0.7406 -0.3019
  329TIP3    H1  951   2.476   5.412   3.688 -1.7997  0.0313  0.4329
  329TIP3    H2  952   2.508   5.544   3.756 -0.1907  0.5804 -1.2931
  330TIP3   OH2  953   5.722   6.716   2.663 -0.1873  0.2221  0.4161
  330TIP3    H1  954   5.732   6.773   2.586  0.9379 -0.4193  0.0646
  330TIP3    H2  955   5.631   6.729   2.690 -0.4738  0.8172 -0.7424
  331TIP3   OH2  956   3.687   1.278   2.852 -0.1856  0.2907 -0.5856
  331TIP3    H1  957   3.705   1.256   2.761  1.1132  0.9239 -0.4992
  331TIP3    H2  958   3.771   1.268   2.896 -0.5698  1.0087  0.3337
  332TIP3   OH2  959   6.478   0.376   1.227  0.7639 -0.8304 -0.1549
  332TIP3    H1  960   6.402   0.336   1.270 -1.1777  0.0092 -2.5525
  332TIP3    H2  961   6.500   0.451   1.283 -0.7622 -0.5629  0.1421
  333TIP3   OH2  962   6.317   5.032   1.633 -0.2519  0.4673 -0.4858
  333TIP3    H1  963   6.232   4.991   1.649  0.6600 -0.9380  1.0307
  333TIP3    H2  964   6.338   5.008   1.542 -1.4965  0.9067 -0.9061
  334TIP3   OH2  965   1.769   1.333   1.906  0.3003 -0.3117 -0.0554
  334TIP3    H1  966   1.834   1.391   1.945  1.8256 -1.8619 -0.1656
  334TIP3    H2  967   1.794   1.327   1.814  1.2608 -2.4085  0.2698
  335TIP3   OH2  968   3.914   4.184   3.043 -0.0148  0.6069 -0.4012
  335TIP3    H1  969   3.949   4.263   3.002  0.2472 -0.4571 -2.3847
  335TIP3    H2  970   3.873   4.136   2.971 -2.3998  0.0753  1.1948
  336TIP3   OH2  971   6.348   3.564   2.989 -0.0312 -0.2219  0.2703
  336TIP3    H1  972   6.304   3.541   2.907 -0.1557  2.6020 -0.5544
  336TIP3    H2  973   6.438   3.586   2.963  0.4495 -1.0181  1.1885
  337TIP3   OH2  974   0.357   0.363   5.561  0.5516 -0.1359 -0.1073
  337TIP3    H1  975   0.440   0.316   5.548  2.9166  3.0947  1.7505
  337TIP3    H2  976   0.329   0.336   5.648  0.4275 -0.1443 -0.1505
  338TIP3   OH2  977   6.324   0.966   0.231 -0.9052 -0.0613 -0.4647
  338TIP3    H1  978   6.302   1.059   0.233 -0.3688  0.1155  2.5444
  338TIP3    H2  979   6.379   0.953   0.309  0.6379 -2.5466 -1.8529
  339TIP3   OH2  980   6.050   0.965   5.291 -0.0182 -0.3310  0.1485
  339TIP3    H1  981   6.099   0.976   5.372 -1.7426 -1.7222  1.4677
  339TIP3    H2  982   5.960   0.991   5.314 -0.6035 -1.0244 -1.2295
  340TIP3   OH2  983   2.957   1.085   1.698 -0.0047  0.2428 -0.2177
  340TIP3    H1  984   3.042   1.114   1.664 -0.5623  0.8124 -1.1762
  340TIP3    H2  985   2.939   1.146   1.769  0.8705 -0.5465  0.7042
  341TIP3   OH2  986   4.971   5.968   4.150  0.2715  0.1862 -0.1317
  341TIP3    H1  987   4.960   6.030   4.221  1.2166  0.2853 -0.0664
  341TIP3    H2  988   5.021   6.016   4.084 -0.3792  0.0140 -0.7615
  342TIP3   OH2  989   2.879   5.362   4.833 -0.7332 -0.3239  0.6265
  342TIP3    H1  990   2.935   5.436   4.808 -0.6279 -0.5655  0.1411
  342TIP3    H2  991   2.915   5.332   4.916  0.6835 -1.3007 -0.3121
  343TIP3   OH2  992   5.562   2.551   2.646  0.0101  0.3890 -0.4205
  343TIP3    H1  993   5.538   2.638   2.614 -0.0380  0.9839  1.1374
  343TIP3    H2  994   5.531   2.491   2.579 -2.8286  1.3526 -0.1128
  344TIP3   OH2  995   3.425   1.325   5.325  0.2334 -0.2416 -0.2184
  344TIP3    H1  996   3.477   1.278   5.391  1.0036  0.2119 -0.4867
  344TIP3    H2  997   3.388   1.399   5.372  0.2101 -0.3081 -0.1316
  345TIP3   OH2  998   4.333   2.942   0.165  0.3381 -0.3212  1.0477
  345TIP3    H1  999   4.269   2.941   0.093  2.7201  1.5995 -1.3108
  345TIP3    H2 1000   4.289   2.988   0.236 -1.7709 -1.3636  0.4816
  346TIP3   OH2 1001   5.890   0.528   2.448 -0.2526 -0.1973 -0.0577
  346TIP3    H1 1002   5.958   0.596   2.455  0.1706 -0.5872 -0.3471
  346TIP3    H2 1003   5.841   0.552   2.370 -0.3242 -0.0302  0.0367
  347TIP3   OH2 1004   6.425   2.869   1.126  0.3528 -0.7313  0.3839
  347TIP3    H1 1005   6.387   2.941   1.076  2.1043 -1.2354 -1.8615
  347TIP3    H2 1006   6.381   2.791   1.092  1.0900 -1.0210  0.0696
  348TIP3   OH2 1007   3.741   1.406   4.502  0.5072  0.4212 -0.0265
  348TIP3    H1 1008   3.807   1.363   4.557  0.2065  0.6485  0.5203
  348TIP3    H2 1009   3.778   1.493   4.483  0.5264  0.4122 -0.0306
  349TIP3   OH2 1010   2.153   3.463   5.489  0.4409 -0.3846 -0.0611
  349TIP3    H1 1011   2.198   3.457   5.404 -1.2269 -1.8969 -0.9290
  349TIP3    H2 1012   2.182   3.546   5.526  0.0385  1.1089 -2.8343
  350TIP3   OH2 1013   4.429   4.427   1.153 -0.1319  0.1424  0.0585
  350TIP3    H1 1014   4.341   4.455   1.178 -0.6014 -0.2105 -1.1420
  350TIP3    H2 1015   4.447   4.352   1.209 -0.5539  0.2596  0.3606
  351TIP3   OH2 1016   7.021   0.485   3.372  0.4226  0.4242  0.2122
  351TIP3    H1 1017   6.993   0.571   3.402  0.7741 -0.1866  2.4941
  351TIP3    H2 1018   7.117   0.486   3.381  0.4982  0.0084 -0.3997
  352TIP3   OH2 1019   1.337   2.065   1.179 -0.1681 -0.0830 -0.4965
  352TIP3    H1 1020   1.355   2.030   1.266  0.8796 -0.0997 -0.7074
  352TIP3    H2 1021   1.290   2.147   1.195  0.8944  0.4260  0.1328
  353TIP3   OH2 1022   5.206   1.742   3.149 -0.0671  0.5782  0.6878
  353TIP3    H1 1023   5.138   1.705   3.206 -1.2034  1.2831 -0.1732
  353TIP3    H2 1024   5.166   1.820   3.112  1.5790  1.5486  0.9009
  354TIP3   OH2 1025   2.311   1.490   2.201  0.1409 -0.1229  0.6046
  354TIP3    H1 1026   2.299   1.562   2.263  0.2935  0.0020  0.4886
  354TIP3    H2 1027   2.285   1.412   2.250 -0.4431  0.0597  0.5939
  355TIP3   OH2 1028   3.454   5.298   0.123 -0.9391  0.5056  0.1048
  355TIP3    H1 1029   3.451   5.322   0.216 -0.8355 -0.0400  0.2517
  355TIP3    H2 1030   3.364   5.310   0.093 -0.8646  1.1859  0.1459
  356TIP3   OH2 1031   7.102   4.454   4.657  0.2369 -0.1693  0.1884
  356TIP3    H1 1032   7.184   4.459   4.608  0.6285 -1.1029  0.7219
  356TIP3    H2 1033   7.070   4.365   4.642 -0.6935  0.1913 -0.0309
  357TIP3   OH2 1034   5.565   3.432   3.544  0.0676  0.1742 -0.3380
  357TIP3    H1 1035   5.569   3.484   3.624  2.3549  1.8214 -1.3785
  357TIP3    H2 1036   5.547   3.343   3.573  1.4520  0.6056  2.0851
  358TIP3   OH2 1037   0.666   0.032   2.805  0.2081  0.0862  0.3492
  358TIP3    H1 1038   0.588  -0.003   2.848  1.0704 -0.8627  1.2220
  358TIP3    H2 1039   0.704   0.092   2.869  1.1305 -0.8173  0.6954
  359TIP3   OH2 1040   6.869   2.549   0.763  0.0402  0.6304  0.1610
  359TIP3    H1 1041   6.832   2.562   0.851  0.1852  2.3145  0.0126
  359TIP3    H2 1042   6.813   2.483   0.723  0.3500 -0.6619  1.7249
  360TIP3   OH2 1043   1.372   6.263   4.653 -0.2026  0.2667  0.2952
  360TIP3    H1 1044   1.453   6.299   4.619  0.4024 -0.3068  1.0765
  360TIP3    H2 1045   1.382   6.266   4.748 -1.7765  1.6921  0.4740
  361TIP3   OH2 1046   1.992   4.387   1.980 -0.5201 -0.1130 -0.5178
  361TIP3    H1 1047   2.068   4.442   1.957 -1.1952 -0.1392 -3.1222
  361TIP3    H2 1048   2.031   4.306   2.013  0.5202  0.9372  0.9588
  362TIP3   OH2 1049   0.751   6.447   2.772 -0.9874 -0.0782  0.5334
  362TIP3    H1 1050   0.753   6.390   2.849 -0.9109 -0.8943 -0.0556
  362TIP3    H2 1051   0.826   6.505   2.782 -0.6132 -0.6018  0.7676
  363TIP3   OH2 1052   4.625   0.269   4.003  0.5446  0.1755  0.0370
  363TIP3    H1 1053   4.667   0.320   3.934  0.5333  1.5606  1.0259
  363TIP3    H2 1054   4.691   0.264   4.073  0.3058 -0.6174  0.2135
  364TIP3   OH2 1055   5.800   4.272   3.815 -0.3323 -0.1427  0.0405
  364TIP3    H1 1056   5.854   4.197   3.789  0.5776  0.7742 -0.7907
  364TIP3    H2 1057   5.783   4.319   3.733 -1.1109  0.4195  0.5121
  365TIP3   OH2 1058   6.720   3.963   2.159  0.1864 -0.3375 -0.1488
  365TIP3    H1 1059   6.708   3.876   2.122  0.1624  0.3245 -1.7590
  365TIP3    H2 1060   6.770   4.011   2.093 -0.7974  1.2215  0.1708
  366TIP3   OH2 1061   1.007   1.970   0.360  0.0491 -0.4078  0.7545
  366TIP3    H1 1062   1.100   1.966   0.383 -0.4058  0.0766  2.8350
  366TIP3    H2 1063   0.961   1.950   0.441 -1.7023  2.5876  0.6661
  367TIP3   OH2 1064   6.984   5.785   2.821 -0.2616  0.1784  0.5301
  367TIP3    H1 1065   6.922   5.806   2.751  0.7755 -0.0207 -0.4875
  367TIP3    H2 1066   7.037   5.714   2.785 -0.0810 -0.3362  1.7644
  368TIP3   OH2 1067   6.300   2.756   3.003 -0.4240  0.3385 -0.5325
  368TIP3    H1 1068   6.388   2.735   2.971 -0.5941  0.4792 -1.1003
  368TIP3    H2 1069   6.283   2.690   3.070 -0.1797 -0.1596 -0.9499
  369TIP3   OH2 1070   5.997   0.164   0.765  0.5056 -0.2321  0.2585
  369TIP3    H1 1071   6.018   0.071   0.778 -0.5037 -0.4279  0.5721
  369TIP3    H2 1072   5.902   0.165   0.751  0.8396  0.4807 -2.5363
  370TIP3   OH2 1073   0.905   4.933   5.711  0.0607  0.2758  0.2227
  370TIP3    H1 1074   0.816   4.958   5.686  0.0008  0.2164  0.3713
  370TIP3    H2 1075   0.907   4.838   5.701  0.4458  0.3836 -0.8338
  371TIP3   OH2 1076   5.096   3.462   1.867 -0.4614  1.1191 -0.0385
  371TIP3    H1 1077   5.102   3.536   1.927  0.1571  0.2338  1.0490
  371TIP3    H2 1078   5.138   3.493   1.787  1.0075  1.5385  0.8435
  372TIP3   OH2 1079   2.762   5.136   5.246  0.1844 -0.0514  0.0784
  372TIP3    H1 1080   2.794   5.208   5.193 -0.2852  0.2071  0.1465
  372TIP3    H2 1081   2.790   5.158   5.335 -1.2927  0.8261  0.3445
  373TIP3   OH2 1082   2.717   2.265   0.593  0.3675  0.1610  0.3741
  373TIP3    H1 1083   2.738   2.357   0.606 -0.8527  0.2852  1.8339
  373TIP3    H2 1084   2.643   2.265   0.532  2.4930 -0.1146 -2.4154
  374TIP3   OH2 1085   4.041   4.352   2.866  0.9059 -0.8847 -0.1785
  374TIP3    H1 1086   4.035   4.447   2.855 -1.2787 -0.9315  0.1713
  374TIP3    H2 1087   4.014   4.316   2.782  0.5695 -1.1818  0.0531
  375TIP3   OH2 1088   1.155   5.882   1.529  0.6044 -0.1104  0.3161
  375TIP3    H1 1089   1.147   5.791   1.557  0.8347 -0.2915 -0.1977
  375TIP3    H2 1090   1.174   5.931   1.609  0.3622 -0.4997  0.6084
  376TIP3   OH2 1091   5.300   2.970   2.317  0.2565 -0.3744 -0.0046
  376TIP3    H1 1092   5.387   2.946   2.284  0.5204 -0.6605  0.8619
  376TIP3    H2 1093   5.305   3.064   2.331  0.7112 -0.5119  0.8201
  377TIP3   OH2 1094   0.922   2.985   1.524 -0.4221 -0.0016  0.1669
  377TIP3    H1 1095   1.008   2.947   1.507 -0.5011  0.1097 -0.5207
  377TIP3    H2 1096   0.940   3.071   1.560 -0.2328  0.2300 -0.4565
  378TIP3   OH2 1097   5.889   6.097   5.313  0.3733 -0.1218  0.4619
  378TIP3    H1 1098   5.930   6.179   5.342  1.0674 -1.1390  2.5523
  378TIP3    H2 1099   5.836   6.069   5.387 -0.2966 -1.3072 -0.4268
  379TIP3   OH2 1100   5.325   5.855   0.718 -0.5289 -0.3132 -0.0669
  379TIP3    H1 1101   5.287   5.938   0.689 -0.3293  0.6105  2.1387
  379TIP3    H2 1102   5.316   5.856   0.813  2.4066 -1.3383  0.3249
  380TIP3   OH2 1103   6.936   6.225   0.654  0.3102  0.1436  0.0867
  380TIP3    H1 1104   6.937   6.157   0.587 -0.4706  0.2609 -0.0602
  380TIP3    H2 1105   6.847   6.222   0.690 -0.1945  1.9951 -0.8748
  381TIP3   OH2 1106   6.654   4.865   3.366 -0.0673  0.4113 -0.0624
  381TIP3    H1 1107   6.749   4.876   3.377  0.3412  0.8566 -3.0145
  381TIP3    H2 1108   6.639   4.771   3.374  0.4462  0.4283  1.3184
  382TIP3   OH2 1109   2.975   6.349   4.353 -0.3555  0.2335  0.1697
  382TIP3    H1 1110   3.070   6.340   4.367 -0.6071 -1.6111  0.9598
  382TIP3    H2 1111   2.968   6.412   4.281  1.4708  0.5026  0.1733
  383TIP3   OH2 1112   4.221   4.499   3.676  0.3029  0.2427  0.2309
  383TIP3    H1 1113   4.254   4.421   3.630  0.7276 -0.0426  0.9901
  383TIP3    H2 1114   4.299   4.554   3.688  0.6129 -0.5631  2.2924
  384TIP3   OH2 1115   4.492   5.217   2.480 -0.2253 -0.0850  0.0137
  384TIP3    H1 1116   4.519   5.308   2.472  0.3324 -0.3151 -0.8360
  384TIP3    H2 1117   4.462   5.194   2.392  0.0111 -0.8353  0.1266
  385TIP3   OH2 1118   1.379   6.338   0.017 -0.4259  0.1823  0.2833
  385TIP3    H1 1119   1.347   6.250   0.037 -2.5544  0.8548  0.1594
  385TIP3    H2 1120   1.436   6.360   0.090 -1.3893 -0.6036  1.3128
  386TIP3   OH2 1121   5.478   2.664   4.191 -0.1267 -0.3655 -0.0313
  386TIP3    H1 1122   5.501   2.716   4.268 -1.1364 -0.6385  0.4761
  386TIP3    H2 1123   5.509   2.716   4.116  1.5558 -0.4548  0.5573
  387TIP3   OH2 1124   4.513   1.507   1.066 -0.0060  0.5861  0.1795
  387TIP3    H1 1125   4.491   1.583   1.013 -2.2507 -1.0712 -1.4567
  387TIP3    H2 1126   4.433   1.490   1.117 -0.3594 -1.8387 -1.0551
  388TIP3   OH2 1127   1.888   1.272   3.714 -0.2048 -0.1972 -0.9960
  388TIP3    H1 1128   1.966   1.278   3.658 -0.4102  1.2818 -1.1727
  388TIP3    H2 1129   1.886   1.355   3.761 -1.6117 -0.2597 -0.9064
  389TIP3   OH2 1130   5.814   2.212   1.666  0.1762 -0.3616 -0.2446
  389TIP3    H1 1131   5.766   2.135   1.696 -1.3968  0.4693 -0.5158
  389TIP3    H2 1132   5.747   2.281   1.659  0.8497  0.1302 -3.2999
  390TIP3   OH2 1133   1.546   0.141   0.933  0.2477  0.2831 -0.1273
  390TIP3    H1 1134   1.528   0.182   0.848 -2.6296 -1.1406 -0.3187
  390TIP3    H2 1135   1.586   0.057   0.912 -1.6985 -0.6658 -0.2127
  391TIP3   OH2 1136   1.443   4.642   2.225  0.3486 -0.1236  0.8085
  391TIP3    H1 1137   1.452   4.598   2.309 -0.1389  0.5726  1.2400
  391TIP3    H2 1138   1.486   4.727   2.239 -1.9614  1.0640  1.2094
  392TIP3   OH2 1139   3.418   3.481   4.093  0.5084 -0.1521 -0.0235
  392TIP3    H1 1140   3.383   3.422   4.026  0.6310 -2.2409  1.6262
  392TIP3    H2 1141   3.478   3.426   4.144  3.1488  2.2470 -0.2979
  393TIP3   OH2 1142   4.324   5.228   5.689 -0.9510 -0.3510  0.5509
  393TIP3    H1 1143   4.299   5.320   5.701  3.8605  1.2677  0.5536
  393TIP3    H2 1144   4.325   5.192   5.778 -0.5299  0.3842  0.8581
  394TIP3   OH2 1145   3.005   6.472   1.797 -0.4450  0.3507 -0.4011
  394TIP3    H1 1146   2.989   6.455   1.704 -3.1911  0.7328 -0.0904
  394TIP3    H2 1147   3.082   6.529   1.798 -0.4375  0.4502 -2.4565
  395TIP3   OH2 1148   7.105   2.911   3.435  0.5660  0.3870 -0.0627
  395TIP3    H1 1149   7.190   2.912   3.391  0.6202 -2.8440 -0.2627
  395TIP3    H2 1150   7.060   2.834   3.398 -2.2879  1.7186  0.3728
  396TIP3   OH2 1151   6.539   3.453   1.908  0.1104 -0.7567  0.4805
  396TIP3    H1 1152   6.511   3.541   1.883  0.8567 -1.1746 -2.1020
  396TIP3    H2 1153   6.465   3.397   1.886  1.4383 -1.3945 -3.0885
  397TIP3   OH2 1154   6.686   1.408   5.642  0.6698  0.2917 -0.3989
  397TIP3    H1 1155   6.769   1.417   5.595 -0.2942  2.2293 -1.8898
  397TIP3    H2 1156   6.648   1.327   5.610  1.6815 -0.2918 -0.1653
  398TIP3   OH2 1157   2.623   4.050   1.729 -0.7160  0.3728  0.2001
  398TIP3    H1 1158   2.551   4.112   1.719 -0.8344  0.1112 -0.6291
  398TIP3    H2 1159   2.584   3.973   1.770 -0.7758  0.4764  0.3363
  399TIP3   OH2 1160   1.265   0.447   2.926  0.0434 -0.0266  0.2793
  399TIP3    H1 1161   1.229   0.443   2.837  0.6837  0.4649 -0.0080
  399TIP3    H2 1162   1.189   0.441   2.983 -0.5201  1.2498 -0.3157
  400TIP3   OH2 1163   6.135   0.689   0.652 -0.3862 -0.5501 -0.0080
  400TIP3    H1 1164   6.074   0.695   0.726  0.6222 -1.4797  0.9427
  400TIP3    H2 1165   6.081   0.662   0.578 -1.5785  1.2606  0.1466
  401TIP3   OH2 1166   6.109   3.550   4.280  0.0702  0.0751  0.2412
  401TIP3    H1 1167   6.048   3.494   4.232  0.9282  1.3175 -2.4742
  401TIP3    H2 1168   6.059   3.630   4.296  1.0490  1.3730 -2.6121
  402TIP3   OH2 1169   6.771   1.241   3.999  0.0039 -0.3441  0.2221
  402TIP3    H1 1170   6.818   1.250   4.082 -1.2543 -2.9394  1.3426
  402TIP3    H2 1171   6.719   1.161   4.010 -1.2538 -0.0209 -2.5878
  403TIP3   OH2 1172   4.529   1.440   1.750  0.4190  0.0255  0.3143
  403TIP3    H1 1173   4.497   1.429   1.660  0.3685  0.6242  0.2551
  403TIP3    H2 1174   4.459   1.487   1.794  1.6546  2.3922 -0.1181
  404TIP3   OH2 1175   6.076   5.921   0.807  0.1823 -0.2829  0.5176
  404TIP3    H1 1176   6.087   5.830   0.832 -0.4720 -1.2755 -2.3669
  404TIP3    H2 1177   6.158   5.944   0.763  0.2077  0.3962  0.9166
  405TIP3   OH2 1178   1.328   5.701   2.892  0.6017 -0.3296  0.2304
  405TIP3    H1 1179   1.285   5.713   2.808  1.5698 -0.8326 -0.3597
  405TIP3    H2 1180   1.333   5.606   2.903 -1.3597 -0.3038  1.8496
  406TIP3   OH2 1181   3.947   0.499   4.232  0.4654 -0.4215  0.2481
  406TIP3    H1 1182   4.028   0.477   4.279 -0.4183  0.9898  2.6423
  406TIP3    H2 1183   3.958   0.591   4.208 -0.5788 -0.0778  1.0179
  407TIP3   OH2 1184   1.066   3.782   3.262  0.2190 -0.1506  0.3877
  407TIP3    H1 1185   1.064   3.825   3.347 -1.6512 -1.5701  1.1284
  407TIP3    H2 1186   0.974   3.777   3.235  0.6018 -1.4435 -0.7960
  408TIP3   OH2 1187   6.536   5.613   3.273 -0.0182 -0.0208 -0.5803
  408TIP3    H1 1188   6.591   5.686   3.244  1.0357  0.1726  1.6315
  408TIP3    H2 1189   6.456   5.654   3.305  1.3906  0.5443  2.6173
  409TIP3   OH2 1190   3.536   1.169   4.837 -0.1930  0.3479 -0.5292
  409TIP3    H1 1191   3.485   1.134   4.910 -0.8087 -1.1820 -1.6444
  409TIP3    H2 1192   3.625   1.136   4.851 -0.6299 -1.1951 -1.2195
  410TIP3   OH2 1193   7.103   4.250   0.579  0.0850  0.2862 -0.1073
  410TIP3    H1 1194   7.010   4.228   0.566 -0.3208  2.1310 -0.6711
  410TIP3    H2 1195   7.148   4.209   0.505 -0.2238 -0.7984  0.2832
  411TIP3   OH2 1196   3.886   4.992   1.923  0.5982 -0.2317 -0.2195
  411TIP3    H1 1197   3.950   4.936   1.967 -0.0385 -0.1177  0.8800
  411TIP3    H2 1198   3.938   5.061   1.884  1.2429 -0.7062 -0.2158
  412TIP3   OH2 1199   4.555   4.378   3.047 -0.2809 -0.1492 -0.1709
  412TIP3    H1 1200   4.574   4.390   3.140  0.1050 -0.5826 -0.1934
  412TIP3    H2 1201   4.607   4.445   3.003  0.1970 -0.4943 -0.1351
  413TIP3   OH2 1202   2.939   4.351   3.752 -0.2372  0.2644  0.1829
  413TIP3    H1 1203   2.992   4.271   3.755 -1.3193 -0.4905 -0.6278
  413TIP3    H2 1204   3.004   4.422   3.745  0.6780 -0.6401 -0.8280
  414TIP3   OH2 1205   0.036   2.197   2.156 -0.4500  0.0744 -0.0960
  414TIP3    H1 1206   0.083   2.190   2.073  0.7306 -0.1865  0.5661
  414TIP3    H2 1207   0.098   2.163   2.221 -1.2624  0.4904  0.9218
  415TIP3   OH2 1208   5.870   6.412   1.156  0.8138  0.4729  0.3235
  415TIP3    H1 1209   5.868   6.361   1.074 -0.8947  0.0621  0.5935
  415TIP3    H2 1210   5.880   6.502   1.127 -2.1682  0.6199 -0.5452
  416TIP3   OH2 1211   4.555   1.933   5.213  0.8452  0.9101  0.4117
  416TIP3    H1 1212   4.564   1.982   5.294 -0.0452  0.5657  0.7262
  416TIP3    H2 1213   4.578   1.996   5.144 -0.6980  1.9391  0.7749
  417TIP3   OH2 1214   0.389   3.581   0.038  0.6588  0.6213  0.1791
  417TIP3    H1 1215   0.353   3.666   0.013  0.5230  0.8248  1.0418
  417TIP3    H2 1216   0.450   3.559  -0.033 -2.1016 -0.3881 -2.0534
  418TIP3   OH2 1217   2.608   1.575   0.103  0.1543 -0.0034 -0.2829
  418TIP3    H1 1218   2.659   1.574   0.022  0.7764  4.0462 -0.1388
  418TIP3    H2 1219   2.519   1.553   0.076  0.3892  1.0544 -2.0782
  419TIP3   OH2 1220   4.133   5.821   2.984 -0.5122  0.0918 -0.0896
  419TIP3    H1 1221   4.058   5.795   3.037  0.5631 -2.5798  0.2817
  419TIP3    H2 1222   4.114   5.787   2.897  1.3433 -3.1340  0.6239
  420TIP3   OH2 1223   6.946   6.139   5.731  0.1785  0.2956  0.2837
  420TIP3    H1 1224   6.906   6.053   5.746  1.0193 -0.0872  0.3939
  420TIP3    H2 1225   6.934   6.155   5.638  0.6240 -0.2607  0.1277
  421TIP3   OH2 1226   5.373   4.210   1.605 -0.3078  0.1452  0.2147
  421TIP3    H1 1227   5.462   4.180   1.626 -0.8009 -1.5331  0.0530
  421TIP3    H2 1228   5.338   4.242   1.689  1.1089  2.8087 -0.0974
  422TIP3   OH2 1229   3.239   4.671   2.416  0.3546  0.6205  0.8993
  422TIP3    H1 1230   3.276   4.588   2.445 -1.0018 -0.2301  0.2719
  422TIP3    H2 1231   3.185   4.701   2.489  2.8974  2.3732  2.2340
  423TIP3   OH2 1232   3.454   0.883   2.221 -0.2176 -0.1799  0.2898
  423TIP3    H1 1233   3.438   0.869   2.127 -0.8317  0.7531  0.2535
  423TIP3    H2 1234   3.536   0.932   2.224  2.0018 -3.4989  0.4212
  424TIP3   OH2 1235   0.220   2.327   1.451 -0.3865 -0.3580 -0.2814
  424TIP3    H1 1236   0.250   2.255   1.507 -0.0926 -2.0480 -2.4404
  424TIP3    H2 1237   0.289   2.392   1.455  0.2826 -1.0844  0.2223
  425TIP3   OH2 1238   3.792   1.700   3.421 -0.0870 -0.3234  0.2465
  425TIP3    H1 1239   3.765   1.757   3.493  0.7934  0.3093  0.0929
  425TIP3    H2 1240   3.886   1.686   3.435 -0.6029 -3.5137  1.5220
  426TIP3   OH2 1241   3.337   1.384   0.342 -0.4031 -0.4833 -0.3116
  426TIP3    H1 1242   3.381   1.365   0.259  1.1874  1.1121  0.0961
  426TIP3    H2 1243   3.402   1.363   0.409 -0.5037  1.1759  0.3577
  427TIP3   OH2 1244   6.594   4.287   0.263 -0.2920  0.4320  0.5753
  427TIP3    H1 1245   6.588   4.301   0.358  0.5067 -1.0981  0.8974
  427TIP3    H2 1246   6.517   4.234   0.241  0.1130 -0.1802  0.5968
  428TIP3   OH2 1247   5.067   6.365   4.392 -0.0179  0.2062 -0.3933
  428TIP3    H1 1248   5.011   6.435   4.360  1.4514  1.8708  0.4684
  428TIP3    H2 1249   5.072   6.379   4.487 -0.2329 -1.5074 -0.0927
  429TIP3   OH2 1250   1.931   3.544   3.361  0.5543  0.3957  0.1126
  429TIP3    H1 1251   1.843   3.518   3.333  0.7194  1.0575 -1.0589
  429TIP3    H2 1252   1.931   3.529   3.455 -0.6639 -0.0495  0.0607
  430TIP3   OH2 1253   6.481   4.119   4.518 -0.3928  0.4786  0.3438
  430TIP3    H1 1254   6.411   4.183   4.530 -0.1819  0.8935 -0.5810
  430TIP3    H2 1255   6.435   4.035   4.513 -0.8366  0.7460 -0.2583
  431TIP3   OH2 1256   5.983   0.445   4.215 -0.3959 -0.1480 -0.1271
  431TIP3    H1 1257   6.046   0.401   4.272 -0.5008 -1.5341 -1.0337
  431TIP3    H2 1258   5.906   0.457   4.271 -0.3636 -1.1457  0.1566
  432TIP3   OH2 1259   6.918   4.327   2.837  0.3411 -0.4605 -0.1358
  432TIP3    H1 1260   6.897   4.282   2.918 -0.2224  0.5501  0.2943
  432TIP3    H2 1261   6.833   4.348   2.798  0.5814 -2.0361 -1.6448
  433TIP3   OH2 1262   7.011   2.915   0.388  0.3061  0.1803 -0.0805
  433TIP3    H1 1263   7.105   2.896   0.383  0.0451 -1.1034 -0.5976
  433TIP3    H2 1264   6.990   2.952   0.303  0.2644  0.1216 -0.0950
  434TIP3   OH2 1265   7.033   2.117   3.954  0.1655 -0.2931 -0.1741
  434TIP3    H1 1266   7.066   2.165   3.878 -0.6518 -0.9735 -0.9833
  434TIP3    H2 1267   7.111   2.105   4.010  0.6812  0.6089 -0.6776
  435TIP3   OH2 1268   5.602   5.465   0.795 -0.1391 -0.1341  0.6983
  435TIP3    H1 1269   5.567   5.429   0.877  2.4611  1.1951  2.5200
  435TIP3    H2 1270   5.635   5.388   0.748 -1.4015 -0.8864  0.9625
  436TIP3   OH2 1271   4.387   2.201   2.559 -0.2337  0.3586 -0.1224
  436TIP3    H1 1272   4.400   2.187   2.653 -0.1904 -2.0375 -0.4432
  436TIP3    H2 1273   4.397   2.296   2.548  2.6295  0.4043  1.8328
  437TIP3   OH2 1274   5.436   5.705   3.851  0.1868  0.3407  0.1392
  437TIP3    H1 1275   5.510   5.743   3.899  1.6013  0.1537 -1.7650
  437TIP3    H2 1276   5.395   5.780   3.808  0.0102  0.3027  0.2433
  438TIP3   OH2 1277   4.539   5.127   1.800 -0.3741 -0.2011 -0.5476
  438TIP3    H1 1278   4.599   5.190   1.839 -0.6525  1.3353 -2.4140
  438TIP3    H2 1279   4.540   5.052   1.859  0.2701  1.3897  1.5888
  439TIP3   OH2 1280   6.231   5.021   0.165 -0.1801 -0.1871  0.4027
  439TIP3    H1 1281   6.232   4.927   0.146 -2.6790 -0.0369 -0.9627
  439TIP3    H2 1282   6.269   5.061   0.086  1.8254 -0.0318  1.3931
  440TIP3   OH2 1283   2.047   0.512   5.104  0.4981 -0.2163  0.7475
  440TIP3    H1 1284   1.985   0.581   5.127 -0.4018 -0.5262 -0.6435
  440TIP3    H2 1285   2.020   0.437   5.158  0.8688  0.2036  1.5347
  441TIP3   OH2 1286   1.850   0.808   4.589 -0.5203  0.1312  0.1414
  441TIP3    H1 1287   1.885   0.826   4.676 -0.3984  1.2968 -0.1328
  441TIP3    H2 1288   1.927   0.807   4.532 -0.6113 -0.5239  0.0140
  442TIP3   OH2 1289   3.570   5.748   4.863 -0.2242  0.5714 -0.1209
  442TIP3    H1 1290   3.607   5.696   4.935 -1.5313 -0.7270 -0.3163
  442TIP3    H2 1291   3.643   5.799   4.829  0.7351  0.1316  1.2102
  443TIP3   OH2 1292   4.523   5.799   1.203 -0.7174 -0.1071 -0.1789
  443TIP3    H1 1293   4.527   5.746   1.123  0.8068 -1.1952  0.5757
  443TIP3    H2 1294   4.532   5.736   1.274  1.1830  1.1329  0.7536
  444TIP3   OH2 1295   1.725   0.558   1.572  0.1604 -0.5323  0.2742
  444TIP3    H1 1296   1.692   0.490   1.513  0.4213  0.5354 -1.1803
  444TIP3    H2 1297   1.819   0.542   1.577  1.0124  1.9289 -3.3816
  445TIP3   OH2 1298   3.780   0.653   0.508  0.0291  0.5326 -0.9166
  445TIP3    H1 1299   3.788   0.725   0.571 -1.1001  1.3540 -1.6701
  445TIP3    H2 1300   3.686   0.650   0.487  0.1860 -0.5978 -1.5624
  446TIP3   OH2 1301   0.993   0.153   0.687  0.3823  0.2238  0.8083
  446TIP3    H1 1302   1.036   0.129   0.769  1.7225 -2.3808 -0.5107
  446TIP3    H2 1303   1.065   0.176   0.629 -0.3975  0.3614 -0.1236
  447TIP3   OH2 1304   0.447   1.694   1.812  0.1168  0.0966 -0.7591
  447TIP3    H1 1305   0.366   1.732   1.777 -0.9777 -0.8769  0.6267
  447TIP3    H2 1306   0.437   1.600   1.799  0.1971 -0.1925  1.0502
  448TIP3   OH2 1307   3.192   0.259   1.950 -0.1385  0.1505  0.5531
  448TIP3    H1 1308   3.233   0.211   2.023  4.3063  0.8868 -1.1253
  448TIP3    H2 1309   3.157   0.191   1.893  0.5419 -0.7188  1.1409
  449TIP3   OH2 1310   6.984   2.290   5.191  0.3389 -0.7213  0.2792
  449TIP3    H1 1311   7.027   2.254   5.269  1.1704 -0.8945 -0.2420
  449TIP3    H2 1312   6.964   2.213   5.138 -0.9127 -0.6673  0.6456
  450TIP3   OH2 1313   4.823   5.937   0.203 -0.1808 -0.0644 -0.0899
  450TIP3    H1 1314   4.835   5.947   0.108 -0.3296  1.6994  0.0391
  450TIP3    H2 1315   4.909   5.957   0.240 -0.4773  0.6820  0.2105
  451TIP3   OH2 1316   1.840   0.566   1.863 -0.0158  0.9030 -0.2390
  451TIP3    H1 1317   1.850   0.513   1.784  3.1424  0.5728  0.2533
  451TIP3    H2 1318   1.871   0.653   1.838 -1.7547  1.5987 -0.0855
  452TIP3   OH2 1319   0.233   6.480   4.278 -0.2125  0.1914 -0.4443
  452TIP3    H1 1320   0.182   6.406   4.245  0.1431 -1.0903  1.7055
  452TIP3    H2 1321   0.169   6.547   4.297 -0.4850  0.7687 -3.0386
  453TIP3   OH2 1322   5.232   0.590   3.000 -0.4536 -0.1529 -0.0392
  453TIP3    H1 1323   5.277   0.609   3.082  1.0868 -0.5176 -0.7720
  453TIP3    H2 1324   5.291   0.622   2.932  0.4116 -3.6822 -1.1679
  454TIP3   OH2 1325   3.665   5.998   5.573 -0.6065  0.3106 -0.2731
  454TIP3    H1 1326   3.626   5.971   5.490  0.7263 -1.0739 -0.4956
  454TIP3    H2 1327   3.659   5.920   5.629  1.2941  0.1884 -0.1515
  455TIP3   OH2 1328   0.822   2.864   3.580 -0.3430 -0.2261 -0.5966
  455TIP3    H1 1329   0.847   2.923   3.651 -0.2407  0.3427 -1.0972
  455TIP3    H2 1330   0.903   2.852   3.530 -0.7698  0.6303 -1.5108
  456TIP3   OH2 1331   0.758   2.996   5.668  0.1910  0.4038  0.2092
  456TIP3    H1 1332   0.733   3.072   5.722  0.5222  0.1688  0.6997
  456TIP3    H2 1333   0.849   2.978   5.692  0.5248  0.6314 -0.8363
  457TIP3   OH2 1334   1.730   1.085   1.993  0.6117  0.3651  0.4157
  457TIP3    H1 1335   1.749   1.177   1.980  0.6294  0.3880  0.6022
  457TIP3    H2 1336   1.736   1.072   2.087 -0.8604  0.5100  0.5571
  458TIP3   OH2 1337   3.196   1.176   1.584 -0.9794  0.5776 -0.5062
  458TIP3    H1 1338   3.144   1.250   1.551  0.1678  1.0798 -1.2292
  458TIP3    H2 1339   3.257   1.156   1.514  0.8106  0.9612  0.8769
  459TIP3   OH2 1340   4.663   5.997   1.335 -0.4347  0.2202 -0.3555
  459TIP3    H1 1341   4.729   6.042   1.282 -0.9966  1.3843 -0.0937
  459TIP3    H2 1342   4.625   5.933   1.276  2.1949 -1.8505 -0.0081
  460TIP3   OH2 1343   4.997   3.762   0.502  0.1150  0.4111  0.4623
  460TIP3    H1 1344   5.041   3.847   0.507 -2.8051  2.0254  0.7783
  460TIP3    H2 1345   5.000   3.727   0.591  0.4993  0.6167  0.5302
  461TIP3   OH2 1346   3.861   1.678   5.132  0.0713  0.2868  0.0925
  461TIP3    H1 1347   3.800   1.619   5.175  0.3412  1.3540  2.0543
  461TIP3    H2 1348   3.837   1.675   5.040 -0.4782 -2.1724  0.2483
  462TIP3   OH2 1349   0.573   1.327   0.991  0.6504  0.7603  0.2916
  462TIP3    H1 1350   0.617   1.410   1.008 -0.6247  1.3071  1.0303
  462TIP3    H2 1351   0.640   1.261   1.011  1.8339  1.5823 -0.7748
  463TIP3   OH2 1352   5.078   6.429   3.142  0.2901 -0.1626  0.1096
  463TIP3    H1 1353   5.108   6.515   3.172 -0.7510  1.0490 -2.0762
  463TIP3    H2 1354   4.982   6.434   3.145  0.0972 -0.0658 -2.7776
  464TIP3   OH2 1355   6.109   5.699   5.600 -0.0125  0.4025  0.2958
  464TIP3    H1 1356   6.181   5.637   5.602  1.1205  1.5501 -1.8789
  464TIP3    H2 1357   6.134   5.767   5.662 -1.7523 -1.6117  3.5297
  465TIP3   OH2 1358   2.399   1.343   3.652 -0.6312 -0.3677 -0.1367
  465TIP3    H1 1359   2.413   1.383   3.566 -0.1952 -4.1885 -2.0182
  465TIP3    H2 1360   2.314   1.301   3.647 -1.3157  0.6082  1.9410
  466TIP3   OH2 1361   4.756   1.615   1.822  0.6231  0.0688 -0.5311
  466TIP3    H1 1362   4.692   1.546   1.802  0.6111 -0.2614  0.5636
  466TIP3    H2 1363   4.762   1.666   1.741 -1.2896  0.3322 -0.5507
  467TIP3   OH2 1364   1.818   4.196   4.551  0.2783  0.1201  0.4700
  467TIP3    H1 1365   1.893   4.223   4.498  0.1396 -1.3236 -0.5164
  467TIP3    H2 1366   1.845   4.113   4.590 -1.5642 -1.6877 -1.7845
  468TIP3   OH2 1367   2.834   6.122   3.235  0.2055 -0.5355 -0.4480
  468TIP3    H1 1368   2.846   6.113   3.140  1.0073 -0.8914 -0.3191
  468TIP3    H2 1369   2.917   6.093   3.272 -0.0955 -0.3644  0.3663
  469TIP3   OH2 1370   3.224   5.175   0.612 -0.0254  0.3059 -0.5834
  469TIP3    H1 1371   3.317   5.155   0.628  0.0703 -0.5731 -2.0773
  469TIP3    H2 1372   3.179   5.091   0.623 -0.5042  0.5280 -0.8151
  470TIP3   OH2 1373   4.046   0.070   3.357  0.2279  0.3023  0.0087
  470TIP3    H1 1374   4.006   0.062   3.271 -0.8080  1.1460  0.3786
  470TIP3    H2 1375   4.130   0.025   3.350 -0.3667 -0.6765 -1.0843
  471TIP3   OH2 1376   6.479   1.778   0.628 -0.2003 -0.0744  0.4999
  471TIP3    H1 1377   6.467   1.851   0.568  1.2586  0.7245  1.1134
  471TIP3    H2 1378   6.470   1.817   0.715 -1.7527 -1.1018  0.8348
  472TIP3   OH2 1379   6.144   1.095   4.156 -0.3807  0.2250  0.2494
  472TIP3    H1 1380   6.221   1.106   4.100  0.2180 -0.9443  0.8041
  472TIP3    H2 1381   6.070   1.107   4.097  0.2353 -0.0279 -0.6014
  473TIP3   OH2 1382   4.956   1.397   4.114 -0.4246 -0.8165  0.6898
  473TIP3    H1 1383   4.874   1.348   4.109  0.2436 -1.8285 -1.2939
  473TIP3    H2 1384   5.024   1.330   4.110  0.5115  0.1585 -0.3282
  474TIP3   OH2 1385   2.444   3.259   5.565 -0.1515  0.1124 -0.4924
  474TIP3    H1 1386   2.445   3.300   5.478  0.4881 -0.8273 -0.9416
  474TIP3    H2 1387   2.527   3.286   5.605 -0.1535  0.0205 -0.4260
  475TIP3   OH2 1388   0.428   0.320   2.559 -0.1260  0.3430  0.0990
  475TIP3    H1 1389   0.518   0.297   2.581 -0.5261 -0.9040  0.4840
  475TIP3    H2 1390   0.436   0.396   2.501  1.2608 -0.8748 -1.3713
  476TIP3   OH2 1391   5.128   4.747   0.092 -0.1329 -0.1264 -0.3087
  476TIP3    H1 1392   5.053   4.777   0.143  0.1852  0.2824 -0.0757
  476TIP3    H2 1393   5.154   4.665   0.134  0.5137  0.5180  0.6040
  477TIP3   OH2 1394   0.525   2.867   4.425 -0.0197 -0.5098  0.0348
  477TIP3    H1 1395   0.604   2.915   4.399 -1.4326  1.6638 -0.4969
  477TIP3    H2 1396   0.461   2.886   4.356 -0.7970 -2.9257 -0.0004
  478TIP3   OH2 1397   5.697   2.291   3.560  0.5725 -0.3283 -0.2090
  478TIP3    H1 1398   5.612   2.264   3.526 -0.2833  1.8311  0.0531
  478TIP3    H2 1399   5.721   2.367   3.507  1.7931 -0.1833  0.5080
  479TIP3   OH2 1400   1.263   5.609   2.616  0.0967 -0.1963 -0.0795
  479TIP3    H1 1401   1.217   5.624   2.534 -1.5195 -0.7880  0.6829
  479TIP3    H2 1402   1.289   5.516   2.613  0.7396 -0.0170 -0.2504
  480TIP3   OH2 1403   5.554   5.911   5.872  0.3197 -0.2284 -0.1439
  480TIP3    H1 1404   5.593   5.926   5.786  0.2405 -1.8910 -0.4910
  480TIP3    H2 1405   5.601   5.835   5.907 -0.3924 -0.2426  0.8203
  481TIP3   OH2 1406   0.720   5.345   1.229  0.2063  0.9741 -0.3400
  481TIP3    H1 1407   0.780   5.419   1.245  1.8934 -0.0768 -1.4515
  481TIP3    H2 1408   0.756   5.274   1.281  0.1616  0.2106 -1.3309
  482TIP3   OH2 1409   2.871   3.958   4.089  0.2173  0.0072  0.3384
  482TIP3    H1 1410   2.905   3.875   4.123  0.9416 -0.3302 -1.1084
  482TIP3    H2 1411   2.949   4.007   4.065 -0.1633  1.5254  1.9981
  483TIP3   OH2 1412   5.325   3.459   5.627  0.5035 -0.3854  0.6942
  483TIP3    H1 1413   5.362   3.546   5.606  0.8633 -0.3227  1.5475
  483TIP3    H2 1414   5.260   3.476   5.694  1.1747 -0.8687  1.4826
  484TIP3   OH2 1415   0.485   0.704   5.074  0.3229 -0.0791 -0.6226
  484TIP3    H1 1416   0.390   0.695   5.081  0.1834  1.2774 -0.4119
  484TIP3    H2 1417   0.497   0.792   5.039  1.5191  0.0677  0.1114
  485TIP3   OH2 1418   5.060   0.670   0.351 -0.3711  0.0118 -0.8532
  485TIP3    H1 1419   5.037   0.598   0.293  0.4773  0.0448 -1.2335
  485TIP3    H2 1420   5.130   0.717   0.306 -0.1541  0.4244 -0.1105
  486TIP3   OH2 1421   3.913   5.287   0.964  0.4573  0.0586  0.3319
  486TIP3    H1 1422   3.983   5.230   0.996  0.2086 -0.8944 -0.7629
  486TIP3    H2 1423   3.840   5.228   0.948 -0.5699  1.0228  1.2995
  487TIP3   OH2 1424   1.957   5.810   2.343  0.3382 -0.7366 -0.2389
  487TIP3    H1 1425   1.910   5.766   2.272 -1.6184 -0.1368  0.6058
  487TIP3    H2 1426   1.888   5.848   2.397  1.8310  2.7594 -0.5035
  488TIP3   OH2 1427   0.319   6.387   0.482 -0.2586  0.2780  0.3378
  488TIP3    H1 1428   0.257   6.370   0.553 -2.4489  1.0900 -1.3120
  488TIP3    H2 1429   0.295   6.326   0.413  1.6992 -0.3396  0.1200
  489TIP3   OH2 1430   5.857   6.723   5.535  1.2621 -0.6256 -0.3549
  489TIP3    H1 1431   5.769   6.735   5.499  0.0345 -1.7038  2.0301
  489TIP3    H2 1432   5.866   6.628   5.544  1.4540 -0.4493  2.0667
  490TIP3   OH2 1433   3.470   2.358   1.382 -0.7168 -0.0222 -0.4570
  490TIP3    H1 1434   3.439   2.296   1.316  0.2553 -0.0472 -0.9070
  490TIP3    H2 1435   3.454   2.444   1.343 -2.0805  0.0239  0.1743
  491TIP3   OH2 1436   1.383   6.299   4.962  0.0342  0.1481  0.0141
  491TIP3    H1 1437   1.331   6.319   5.039  0.6835 -0.2823  0.5747
  491TIP3    H2 1438   1.370   6.206   4.947  1.9025 -0.3633  1.1636
  492TIP3   OH2 1439   2.656   6.526   0.970 -0.6971  0.1258 -0.1335
  492TIP3    H1 1440   2.574   6.484   0.996 -0.4625  0.2059  0.7867
  492TIP3    H2 1441   2.690   6.471   0.899 -1.1863 -0.3197 -0.0253
  493TIP3   OH2 1442   0.832   3.128   5.426 -0.1520  0.2149  0.1131
  493TIP3    H1 1443   0.776   3.205   5.417 -0.7290 -0.1737  0.3595
  493TIP3    H2 1444   0.795   3.079   5.499 -0.4959 -0.8848 -0.7730
  494TIP3   OH2 1445   7.190   6.512   3.087  0.0318  0.2643  0.5755
  494TIP3    H1 1446   7.121   6.447   3.103  1.0802 -0.5598  2.0503
  494TIP3    H2 1447   7.150   6.596   3.110 -1.4582  0.2777 -1.6922
  495TIP3   OH2 1448   1.259   0.187   1.015 -0.5262 -0.0858 -0.5083
  495TIP3    H1 1449   1.347   0.159   0.991 -0.5132 -0.6282  0.1368
  495TIP3    H2 1450   1.228   0.237   0.940  0.5482  0.6085 -0.5081
  496TIP3   OH2 1451   0.305   6.326   1.806 -0.5721 -0.1152 -0.0888
  496TIP3    H1 1452   0.231   6.386   1.810 -0.5156 -0.0549  0.0619
  496TIP3    H2 1453   0.314   6.305   1.713 -2.2347 -1.9384  0.1010
  497TIP3   OH2 1454   2.382   4.168   1.578 -0.2088 -0.0565  0.3944
  497TIP3    H1 1455   2.322   4.168   1.503 -0.3621  2.1837  0.4525
  497TIP3    H2 1456   2.325   4.183   1.653  0.3171  1.5964  0.5037
  498TIP3   OH2 1457   2.465   6.586   0.420  0.3649  1.0425 -0.4283
  498TIP3    H1 1458   2.514   6.649   0.472 -0.9118  2.0567 -0.4212
  498TIP3    H2 1459   2.375   6.593   0.451  0.4093 -2.0212  0.7950
  499TIP3   OH2 1460   6.811   2.459   3.359 -0.2673  0.0665  0.1277
  499TIP3    H1 1461   6.812   2.388   3.424 -0.5458  0.9005  1.0674
  499TIP3    H2 1462   6.734   2.441   3.305 -0.4739 -0.2097  0.5098
  500TIP3   OH2 1463   0.638   0.604   3.269  0.0710 -0.0100 -0.1315
  500TIP3    H1 1464   0.694   0.639   3.200  0.3481  0.2803  0.2302
  500TIP3    H2 1465   0.692   0.539   3.314 -0.9295 -2.0405 -1.7185
  501TIP3   OH2 1466   6.536   0.998   4.447 -0.1969 -0.0934 -0.3951
  501TIP3    H1 1467   6.444   1.006   4.421 -0.1635 -0.0456 -0.4996
  501TIP3    H2 1468   6.558   0.906   4.430  0.1570  0.2056 -1.6479
  502TIP3   OH2 1469   1.837   0.173   0.438  0.4971 -0.7545  0.3304
  502TIP3    H1 1470   1.832   0.252   0.492 -0.6186  1.9583 -3.3464
  502TIP3    H2 1471   1.768   0.116   0.473 -0.9771  1.3683  1.0680
  503TIP3   OH2 1472   3.819   3.307   1.853  0.2643  0.6862  0.1466
  503TIP3    H1 1473   3.804   3.365   1.778 -0.8407 -0.1101 -0.2903
  503TIP3    H2 1474   3.735   3.304   1.899 -0.1774 -1.6041 -0.6407
  504TIP3   OH2 1475   5.760   0.472   3.363  0.1906  0.0989  0.0457
  504TIP3    H1 1476   5.777   0.498   3.454  0.5107  0.1994 -0.0400
  504TIP3    H2 1477   5.699   0.399   3.370  2.1418 -1.5956  0.4718
  505TIP3   OH2 1478   3.487   2.087   1.588  0.8962 -0.3973 -0.4613
  505TIP3    H1 1479   3.443   2.039   1.658 -2.7113  0.5821 -1.8702
  505TIP3    H2 1480   3.573   2.108   1.625 -0.6113 -0.2732  3.5059
  506TIP3   OH2 1481   3.813   1.442   1.411 -0.3964  0.2602 -0.0145
  506TIP3    H1 1482   3.858   1.369   1.368 -1.1688  0.2889 -0.8942
  506TIP3    H2 1483   3.777   1.404   1.491 -1.5532 -0.5737 -0.8899
  507TIP3   OH2 1484   6.061   2.256   5.670 -0.2747  0.2721 -0.4950
  507TIP3    H1 1485   5.981   2.208   5.653 -0.8879  1.3158 -0.6554
  507TIP3    H2 1486   6.110   2.251   5.588  0.4177 -1.4103 -0.0183
  508TIP3   OH2 1487   0.404   0.745   4.399 -0.2435  1.2328  0.4513
  508TIP3    H1 1488   0.492   0.706   4.393  0.0216  1.8760  0.0203
  508TIP3    H2 1489   0.373   0.721   4.486  0.4443  1.1549  0.6826
  509TIP3   OH2 1490   0.876   2.792   4.004  0.3891 -0.0512 -0.3329
  509TIP3    H1 1491   0.922   2.841   4.072 -1.6539  2.0880 -0.3535
  509TIP3    H2 1492   0.850   2.858   3.940 -1.1496 -1.3945 -1.1910
  510TIP3   OH2 1493   1.428   6.367   5.530  0.0884 -0.0641  0.0856
  510TIP3    H1 1494   1.490   6.359   5.603 -0.3588 -0.7024  0.4088
  510TIP3    H2 1495   1.358   6.423   5.565 -0.1148 -0.3519  0.1496
  511TIP3   OH2 1496   2.025   2.325   3.082 -0.6034  0.1627  0.3743
  511TIP3    H1 1497   2.011   2.263   3.010 -2.1313  1.2967 -0.3659
  511TIP3    H2 1498   2.094   2.285   3.135 -1.0338 -1.8091 -0.4593
  512TIP3   OH2 1499   2.991   2.819   5.736  0.0446 -0.1682 -0.1408
  512TIP3    H1 1500   2.965   2.873   5.810 -0.3911  0.5717 -0.8187
  512TIP3    H2 1501   3.060   2.869   5.693  0.0988 -0.4563 -0.3926
  513TIP3   OH2 1502   0.255   0.867   1.367  0.2589 -0.0724  0.1286
  513TIP3    H1 1503   0.290   0.779   1.355 -0.1270 -0.3301  0.8426
  513TIP3    H2 1504   0.196   0.879   1.293  1.5374  0.2254 -0.8792
  514TIP3   OH2 1505   6.617   2.559   0.611 -0.2084  0.2236 -0.3630
  514TIP3    H1 1506   6.529   2.547   0.575  0.4374 -0.2593 -1.8906
  514TIP3    H2 1507   6.664   2.479   0.585  0.8598  0.7843 -0.1947
  515TIP3   OH2 1508   5.874   1.569   5.805  0.1320  0.0451 -0.0396
  515TIP3    H1 1509   5.895   1.588   5.713  0.6700  0.4011  0.1541
  515TIP3    H2 1510   5.790   1.613   5.820  0.5407  0.8572 -0.0746
  516TIP3   OH2 1511   4.356   6.209   0.785 -0.7394 -0.1078  0.5206
  516TIP3    H1 1512   4.344   6.114   0.784  1.6851 -0.5024 -1.2990
  516TIP3    H2 1513   4.318   6.238   0.703 -0.0704  0.2272  0.3185
  517TIP3   OH2 1514   2.624   1.765   4.037  0.7346 -0.1128 -0.4533
  517TIP3    H1 1515   2.581   1.724   3.962  1.9612 -0.4385 -1.0072
  517TIP3    H2 1516   2.581   1.851   4.045 -0.4862 -0.6961 -0.5328
  518TIP3   OH2 1517   2.389   2.512   1.068  0.2015 -0.2936  0.4282
  518TIP3    H1 1518   2.445   2.441   1.100 -0.3424 -0.6780  0.5383
  518TIP3    H2 1519   2.384   2.499   0.973 -1.7846 -1.8304  0.6739
  519TIP3   OH2 1520   1.442   4.168   3.457  0.0953 -0.2201 -0.7039
  519TIP3    H1 1521   1.537   4.171   3.474 -0.0118  0.9179 -0.2219
  519TIP3    H2 1522   1.435   4.167   3.361  0.5979  0.8096 -0.7719
  520TIP3   OH2 1523   4.326   0.855   2.021 -0.6588  0.2881  1.1810
  520TIP3    H1 1524   4.280   0.771   2.030  0.8448 -0.6793  0.2088
  520TIP3    H2 1525   4.297   0.889   1.937  1.0035 -0.7716  0.1194
  521TIP3   OH2 1526   3.912   1.154   5.288 -0.0022 -0.0939 -0.1416
  521TIP3    H1 1527   3.903   1.225   5.224  0.0765  0.9845  1.0019
  521TIP3    H2 1528   3.971   1.092   5.246 -0.1270  0.4843 -1.2074
  522TIP3   OH2 1529   3.507   5.880   0.451  0.1990  0.5286  0.0053
  522TIP3    H1 1530   3.474   5.834   0.528 -1.1310 -0.7839 -1.2804
  522TIP3    H2 1531   3.578   5.824   0.419 -0.1329  0.3686 -0.4599
  523TIP3   OH2 1532   6.477   0.523   4.453  0.9072  0.0663 -0.4966
  523TIP3    H1 1533   6.538   0.595   4.437 -0.1227  0.8226 -1.1546
  523TIP3    H2 1534   6.394   0.567   4.471  0.8500 -0.8723  2.0312
  524TIP3   OH2 1535   0.743   0.933   1.760 -0.4798 -0.0572  0.6800
  524TIP3    H1 1536   0.836   0.912   1.766 -0.0946  0.7800 -1.5897
  524TIP3    H2 1537   0.736   1.018   1.803  0.0751  0.5180 -0.3362
  525TIP3   OH2 1538   1.481   4.724   1.182 -0.3146 -0.1173  0.0917
  525TIP3    H1 1539   1.531   4.681   1.113 -0.1973 -2.1298  1.3446
  525TIP3    H2 1540   1.510   4.681   1.263 -0.3440  2.2329  1.4566
  526TIP3   OH2 1541   1.907   4.664   4.770  0.4385 -0.1551 -0.0096
  526TIP3    H1 1542   1.882   4.674   4.862  0.2893  0.7350 -0.1317
  526TIP3    H2 1543   2.001   4.679   4.769  0.5119 -0.6025  0.0547
  527TIP3   OH2 1544   6.924   1.864   1.114 -0.4334  0.5711 -0.3926
  527TIP3    H1 1545   6.901   1.849   1.022  0.9914 -0.7704 -0.5928
  527TIP3    H2 1546   7.018   1.848   1.117 -0.3611  1.1509  1.2110
  528TIP3   OH2 1547   6.312   3.276   3.849  0.3349 -1.0408 -0.5293
  528TIP3    H1 1548   6.305   3.331   3.771  0.2265  0.8072  0.7140
  528TIP3    H2 1549   6.394   3.229   3.838 -0.3109 -1.8372 -2.3417
  529TIP3   OH2 1550   2.316   6.697   5.843 -1.1663 -0.2404 -0.2392
  529TIP3    H1 1551   2.286   6.606   5.845 -1.4978 -0.1378 -0.4551
  529TIP3    H2 1552   2.387   6.697   5.780 -0.1643 -0.6409  0.8463
  530TIP3   OH2 1553   6.940   0.579   2.894 -0.4237 -0.4551  0.1037
  530TIP3    H1 1554   6.908   0.511   2.836  0.0442 -1.4821  1.0233
  530TIP3    H2 1555   6.925   0.661   2.846 -1.6927 -1.1323 -0.6920
  531TIP3   OH2 1556   0.076   5.817   4.145  0.1224  0.3781  0.0356
  531TIP3    H1 1557   0.104   5.726   4.155  0.5851  0.6992  1.9601
  531TIP3    H2 1558   0.151   5.869   4.174 -0.2138  1.3992 -0.8384
  532TIP3   OH2 1559   0.472   2.963   4.721 -0.1399 -0.5862  0.1656
  532TIP3    H1 1560   0.499   2.896   4.658  0.9540  0.1823 -0.2118
  532TIP3    H2 1561   0.380   2.979   4.702  0.2759 -0.0532 -1.5566
  533TIP3   OH2 1562   1.549   4.096   5.029 -0.1561  0.1265  0.1717
  533TIP3    H1 1563   1.565   4.007   5.061 -0.4795 -0.1972 -0.5545
  533TIP3    H2 1564   1.624   4.146   5.060 -0.9496  0.0738  2.3440
  534TIP3   OH2 1565   5.284   6.288   4.614  0.1659 -0.4720 -0.7091
  534TIP3    H1 1566   5.196   6.317   4.636  0.2727 -1.0829  0.6456
  534TIP3    H2 1567   5.276   6.194   4.603  0.3424 -0.3198 -2.3010
  535TIP3   OH2 1568   3.592   0.581   1.934  0.4903 -0.2536 -0.4767
  535TIP3    H1 1569   3.514   0.579   1.990 -0.4012  1.5310 -1.5672
  535TIP3    H2 1570   3.576   0.516   1.867 -0.4881  0.6767 -1.1773
  536TIP3   OH2 1571   0.079   2.808   3.014  0.4406 -0.6149 -0.3206
  536TIP3    H1 1572  -0.016   2.819   3.015  0.5412  0.3383  0.4987
  536TIP3    H2 1573   0.102   2.804   2.921 -0.2778  0.4517 -0.5629
  537TIP3   OH2 1574   0.625   6.184   2.214 -0.3255 -0.1592  0.3804
  537TIP3    H1 1575   0.605   6.104   2.263  0.2275 -0.4264  0.1831
  537TIP3    H2 1576   0.608   6.161   2.123 -0.8735  0.1812  0.3933
  538TIP3   OH2 1577   0.700   0.878   3.702  0.1986 -0.0240  0.3423
  538TIP3    H1 1578   0.743   0.845   3.623  0.2615  2.0242 -0.5577
  538TIP3    H2 1579   0.607   0.866   3.687  0.1525  1.2541 -0.5200
  539TIP3   OH2 1580   3.355   0.801   0.810 -0.5160 -0.2656  0.0511
  539TIP3    H1 1581   3.281   0.740   0.809 -0.3434 -0.5508  1.7636
  539TIP3    H2 1582   3.402   0.783   0.729 -2.1435 -0.2857 -0.9294
  540TIP3   OH2 1583   5.809   4.484   5.686 -0.3628 -0.4159 -0.0303
  540TIP3    H1 1584   5.788   4.391   5.674  3.1468 -1.2380 -0.7411
  540TIP3    H2 1585   5.864   4.486   5.764 -0.4185  1.1065 -0.0056
  541TIP3   OH2 1586   1.923   2.877   3.486 -0.1457  0.1856 -0.1460
  541TIP3    H1 1587   1.840   2.880   3.438  0.1057 -0.1534 -0.6148
  541TIP3    H2 1588   1.988   2.910   3.423  0.0602  0.5523  0.2525
  542TIP3   OH2 1589   1.345   2.066   1.646 -0.3230 -0.2869 -0.1031
  542TIP3    H1 1590   1.392   2.104   1.720  0.3835  0.2284 -0.7900
  542TIP3    H2 1591   1.300   2.141   1.606 -1.0619 -0.6376  0.0551
  543TIP3   OH2 1592   4.225   4.784   1.805 -0.7021  0.5467 -0.0506
  543TIP3    H1 1593   4.179   4.703   1.825  0.2818  0.1826  0.8154
  543TIP3    H2 1594   4.168   4.829   1.743 -1.4560 -0.6093 -0.2256
  544TIP3   OH2 1595   3.343   6.419   5.560 -0.1371  0.2331  0.0011
  544TIP3    H1 1596   3.429   6.380   5.573 -0.4266 -0.8848 -1.1926
  544TIP3    H2 1597   3.299   6.411   5.645  0.4612 -0.4144  0.2533
  545TIP3   OH2 1598   3.651   4.364   5.494 -0.0861 -0.1005 -0.1353
  545TIP3    H1 1599   3.624   4.351   5.585 -0.9827 -0.4091 -0.4352
  545TIP3    H2 1600   3.729   4.309   5.484 -1.0601 -1.5380 -0.0588
  546TIP3   OH2 1601   4.651   1.622   3.428 -0.1617 -0.6649  0.0719
  546TIP3    H1 1602   4.580   1.564   3.457  0.3895 -1.9972 -1.1618
  546TIP3    H2 1603   4.620   1.658   3.345 -0.5145  0.9020  0.8326
  547TIP3   OH2 1604   1.327   4.989   0.683  0.2885  0.0973  0.7743
  547TIP3    H1 1605   1.249   4.985   0.738  0.4912  1.0640  1.1673
  547TIP3    H2 1606   1.306   4.935   0.607 -1.1466  1.1022  0.4092
  548TIP3   OH2 1607   3.905   5.347   5.009 -0.0635  0.2417  0.2352
  548TIP3    H1 1608   3.893   5.259   4.972  0.0500  0.0781  0.5805
  548TIP3    H2 1609   3.900   5.333   5.104 -1.3442  0.7927  0.2673
  549TIP3   OH2 1610   4.734   2.738   4.607 -0.0469 -0.8175  0.4251
  549TIP3    H1 1611   4.805   2.802   4.613 -0.1632 -0.6905  0.4796
  549TIP3    H2 1612   4.769   2.667   4.554 -0.1870 -0.3226 -0.3490
  550TIP3   OH2 1613   3.739   6.715   5.187 -0.2598  0.0610  0.3084
  550TIP3    H1 1614   3.663   6.720   5.245 -0.8572 -2.0204 -0.2159
  550TIP3    H2 1615   3.714   6.652   5.120  0.4063  2.3394 -2.2800
  551TIP3   OH2 1616   1.671   2.354   4.023  0.1051 -0.1426  0.7514
  551TIP3    H1 1617   1.746   2.295   4.014  2.3079  2.7606 -2.1406
  551TIP3    H2 1618   1.604   2.316   3.966  1.8422  0.4820 -1.8878
  552TIP3   OH2 1619   1.020   5.997   3.515  0.1926  0.3962  0.1782
  552TIP3    H1 1620   1.106   6.034   3.535 -0.0212  1.1451 -0.2436
  552TIP3    H2 1621   0.989   6.047   3.439 -0.3873 -0.2216 -0.0022
  553TIP3   OH2 1622   1.886   2.605   3.457 -0.0602  0.1849  0.0582
  553TIP3    H1 1623   1.805   2.622   3.409 -2.4076  1.1195  3.9642
  553TIP3    H2 1624   1.928   2.691   3.464  2.6667 -0.5792 -3.7851
  554TIP3   OH2 1625   0.545   3.782   3.037 -0.4130  0.4410 -0.8758
  554TIP3    H1 1626   0.497   3.702   3.015 -2.2744  1.5690 -1.1077
  554TIP3    H2 1627   0.564   3.822   2.952 -1.1087  1.1429 -0.7056
  555TIP3   OH2 1628   5.093   4.287   2.454  0.1231 -0.0332  0.3311
  555TIP3    H1 1629   5.049   4.372   2.452  1.1456  0.5037 -0.2301
  555TIP3    H2 1630   5.045   4.236   2.520 -2.2058  0.0286 -1.1835
  556TIP3   OH2 1631   4.137   3.167   2.236  0.5150  0.2787 -0.7810
  556TIP3    H1 1632   4.225   3.149   2.201  0.6511 -1.0003  0.1615
  556TIP3    H2 1633   4.110   3.085   2.276  0.3590  1.6162  2.1078
  557TIP3   OH2 1634   3.860   3.815   4.906  0.1227  0.0166 -0.1269
  557TIP3    H1 1635   3.917   3.785   4.976 -0.0554 -1.6929 -0.6779
  557TIP3    H2 1636   3.773   3.823   4.946  0.1818 -0.1644  0.0348
  558TIP3   OH2 1637   4.842   3.561   1.759  0.3140 -0.9070 -0.6268
  558TIP3    H1 1638   4.912   3.523   1.813 -0.6814 -1.6144  0.2024
  558TIP3    H2 1639   4.828   3.648   1.796 -0.3370 -1.3755  0.2707
  559TIP3   OH2 1640   6.355   5.360   3.931  0.2695 -0.1533  0.4705
  559TIP3    H1 1641   6.290   5.322   3.989  0.1572  0.3324  0.6724
  559TIP3    H2 1642   6.417   5.405   3.990  1.1309 -1.1167  0.3228
  560TIP3   OH2 1643   2.180   6.095   2.031 -0.6478  0.6583 -0.3481
  560TIP3    H1 1644   2.192   6.024   2.093 -3.6478  1.0873  0.9038
  560TIP3    H2 1645   2.235   6.167   2.064 -0.5086  0.1574  0.5196
  561TIP3   OH2 1646   4.295   1.842   1.055  0.9209  0.4999 -0.3781
  561TIP3    H1 1647   4.282   1.850   0.960 -0.4786 -0.1641 -0.2712
  561TIP3    H2 1648   4.347   1.918   1.078  1.2530  0.6950 -1.6805
  562TIP3   OH2 1649   5.058   1.730   0.678 -0.2112  0.1674 -0.3754
  562TIP3    H1 1650   5.080   1.755   0.588  2.0901 -0.1572  0.0301
  562TIP3    H2 1651   5.040   1.636   0.673  3.4460 -0.7103 -0.0828
  563TIP3   OH2 1652   6.272   0.157   4.138 -0.0275 -0.4967 -0.0609
  563TIP3    H1 1653   6.274   0.067   4.105  1.0078 -0.9953  1.2533
  563TIP3    H2 1654   6.261   0.211   4.060 -0.9104 -1.7608 -0.8555
  564TIP3   OH2 1655   1.993   3.888   0.887  0.5090 -0.1330 -0.6893
  564TIP3    H1 1656   1.956   3.973   0.910  2.0068  0.5596 -0.7345
  564TIP3    H2 1657   2.034   3.857   0.967  1.3465 -0.0696 -1.0889
  565TIP3   OH2 1658   3.737   6.456   5.443 -0.3478  0.5058 -0.1175
  565TIP3    H1 1659   3.674   6.474   5.513 -1.1488  1.9207 -1.1611
  565TIP3    H2 1660   3.686   6.408   5.378 -0.8334  2.8588 -1.6030
  566TIP3   OH2 1661   3.102   6.264   0.054 -0.1948  0.3696  0.2682
  566TIP3    H1 1662   3.189   6.257   0.094 -0.1062  1.1312  0.2231
  566TIP3    H2 1663   3.112   6.220  -0.031  0.3598  1.1083 -0.0603
  567TIP3   OH2 1664   4.297   5.005   3.783  0.2519 -0.0373  0.0596
  567TIP3    H1 1665   4.245   5.036   3.709  1.1739 -0.3466 -0.7329
  567TIP3    H2 1666   4.266   5.057   3.858  0.8588  1.9068 -0.9716
  568TIP3   OH2 1667   3.480   1.074   0.230 -0.4215 -0.3683  0.1078
  568TIP3    H1 1668   3.497   1.020   0.153 -0.8945  0.2628 -0.4464
  568TIP3    H2 1669   3.564   1.114   0.250 -0.9731  2.1864 -2.1915
  569TIP3   OH2 1670   0.823   0.341   3.668 -0.1422 -0.2787 -0.3180
  569TIP3    H1 1671   0.890   0.273   3.668  0.1433 -0.0428 -1.9596
  569TIP3    H2 1672   0.741   0.295   3.684  0.1403 -0.9173 -0.6777
  570TIP3   OH2 1673   5.853   0.180   5.101  0.7716 -0.3285 -0.1672
  570TIP3    H1 1674   5.891   0.112   5.158 -1.5132 -1.6730 -0.1033
  570TIP3    H2 1675   5.887   0.160   5.014 -0.5228 -2.1831 -0.3064
  571TIP3   OH2 1676   5.611   0.427   0.786 -0.6074 -0.6247 -0.2474
  571TIP3    H1 1677   5.603   0.485   0.863 -1.1213 -1.3141  0.2275
  571TIP3    H2 1678   5.526   0.382   0.781 -0.6603 -0.4312 -1.3582
  572TIP3   OH2 1679   1.490   1.307   5.152  0.6461 -0.1420  0.2749
  572TIP3    H1 1680   1.448   1.303   5.238 -0.7333 -0.0742 -0.3590
  572TIP3    H2 1681   1.583   1.312   5.170  0.3852 -0.3234  1.7611
  573TIP3   OH2 1682   3.443   0.123   3.216 -0.6463  0.1631 -0.2449
  573TIP3    H1 1683   3.365   0.100   3.267 -1.1790 -0.9065 -1.4908
  573TIP3    H2 1684   3.411   0.184   3.150  0.1113  1.8235  0.8434
  574TIP3   OH2 1685   3.884   3.023   2.721 -0.0050  0.2057  0.2723
  574TIP3    H1 1686   3.863   3.115   2.737 -1.0746 -0.0091  0.1554
  574TIP3    H2 1687   3.913   2.990   2.806  3.2691  1.3458 -0.2608
  575TIP3   OH2 1688   5.312   1.725   2.457  0.3900 -0.3335  0.4586
  575TIP3    H1 1689   5.259   1.651   2.486  1.2556 -1.0521  0.2430
  575TIP3    H2 1690   5.393   1.718   2.507  0.0897  1.0703  1.1951
  576TIP3   OH2 1691   4.075   2.823   1.262  0.4582 -0.4697 -0.3787
  576TIP3    H1 1692   4.114   2.838   1.176 -0.0068  0.2435 -0.4667
  576TIP3    H2 1693   3.983   2.845   1.252  0.0166 -2.0426 -0.1423
  577TIP3   OH2 1694   1.582   4.781   3.370 -0.4215  0.8275 -0.6146
  577TIP3    H1 1695   1.517   4.711   3.378  3.5147 -3.1901  0.4656
  577TIP3    H2 1696   1.590   4.815   3.459 -1.1967  1.5594 -0.8136
  578TIP3   OH2 1697   0.426   4.108   1.349  0.7060 -0.4459 -0.3661
  578TIP3    H1 1698   0.330   4.111   1.349  0.6295 -0.6118 -2.9312
  578TIP3    H2 1699   0.453   4.199   1.351  0.5025 -0.3970  0.3129
  579TIP3   OH2 1700   0.355   1.801   5.573 -0.5918 -0.2172  0.8211
  579TIP3    H1 1701   0.362   1.879   5.628 -0.9240  0.1973  0.2858
  579TIP3    H2 1702   0.424   1.811   5.508  0.0799 -0.9149  1.4015
  580TIP3   OH2 1703   6.478   6.009   0.661 -0.0858  0.4034  0.1828
  580TIP3    H1 1704   6.500   5.933   0.606  0.1388  0.9159 -0.4430
  580TIP3    H2 1705   6.550   6.070   0.648 -0.8625  1.2494 -0.2942
  581TIP3   OH2 1706   3.099   3.118   1.894 -0.0858 -0.1732  0.4821
  581TIP3    H1 1707   3.109   3.140   1.801 -0.9836 -0.4911  0.3035
  581TIP3    H2 1708   3.062   3.030   1.894  0.9948 -0.6484  1.1675
  582TIP3   OH2 1709   1.601   6.509   1.448 -0.3092 -0.2339  0.2916
  582TIP3    H1 1710   1.653   6.429   1.461  0.7218  0.4487  0.5072
  582TIP3    H2 1711   1.521   6.479   1.406  0.3794 -1.2941 -0.3065
  583TIP3   OH2 1712   6.979   2.785   0.851 -0.2665  0.5212  0.3731
  583TIP3    H1 1713   7.034   2.713   0.884 -1.3856 -0.9157 -0.7646
  583TIP3    H2 1714   6.906   2.741   0.807 -0.6901  2.3707 -0.8691
  584TIP3   OH2 1715   0.272   4.586   4.226  0.1728 -0.3516 -0.0965
  584TIP3    H1 1716   0.288   4.508   4.279  2.1707  0.0727 -0.0037
  584TIP3    H2 1717   0.282   4.659   4.287  2.0746  0.1228 -0.9122
  585TIP3   OH2 1718   5.503   3.975   3.871 -0.3170  0.7824 -0.0417
  585TIP3    H1 1719   5.497   4.011   3.783  0.9288  3.9964  1.0362
  585TIP3    H2 1720   5.438   4.024   3.921 -0.1752 -0.1370  1.0963
  586TIP3   OH2 1721   2.233   0.341   1.410 -0.1652  0.2652 -0.5536
  586TIP3    H1 1722   2.327   0.345   1.392 -0.2638 -1.4510 -1.8006
  586TIP3    H2 1723   2.227   0.335   1.505  1.0559 -0.4629 -0.4932
  587TIP3   OH2 1724   3.254   6.184   3.091  0.3007  0.6466  0.3986
  587TIP3    H1 1725   3.254   6.264   3.144  0.4865  1.5955 -0.9779
  587TIP3    H2 1726   3.175   6.137   3.119  0.2968  1.1985  1.3743
  588TIP3   OH2 1727   2.740   5.822   0.510  0.3805 -0.4557  0.4156
  588TIP3    H1 1728   2.675   5.803   0.577 -1.0401 -0.1043 -0.8306
  588TIP3    H2 1729   2.758   5.738   0.468 -0.4529 -0.2991 -0.2709
  589TIP3   OH2 1730   4.265   3.032   2.956  0.4126  0.0098  0.0217
  589TIP3    H1 1731   4.342   3.068   3.000  0.4319  1.0684 -0.8170
  589TIP3    H2 1732   4.207   3.107   2.944 -0.1615 -0.5101 -0.5549
  590TIP3   OH2 1733   2.446   6.475   4.116 -0.4631  0.1456  0.1027
  590TIP3    H1 1734   2.468   6.422   4.194 -0.0517  0.3520  0.1299
  590TIP3    H2 1735   2.362   6.516   4.138 -3.0657 -3.7109 -1.5029
  591TIP3   OH2 1736   6.987   5.032   1.397  0.3199  0.0306  0.1649
  591TIP3    H1 1737   7.025   5.031   1.485 -1.4708  1.4739  1.0553
  591TIP3    H2 1738   6.898   4.998   1.409 -0.2184  0.9646 -0.9077
  592TIP3   OH2 1739   0.864   1.007   1.460 -0.9663 -0.2794 -0.0320
  592TIP3    H1 1740   0.849   0.922   1.418 -0.1715 -1.1083  1.2745
  592TIP3    H2 1741   0.831   0.995   1.549  1.1115  0.0495  0.8255
  593TIP3   OH2 1742   4.878   1.509   3.525  0.5814  0.4387  1.0537
  593TIP3    H1 1743   4.811   1.561   3.481  2.1030  1.8040  0.2889
  593TIP3    H2 1744   4.857   1.418   3.502 -1.5986  0.7248  1.7064
  594TIP3   OH2 1745   2.583   1.089   4.352 -0.1651 -0.2180  0.1469
  594TIP3    H1 1746   2.623   1.003   4.346 -0.1366 -0.1246 -1.7775
  594TIP3    H2 1747   2.651   1.149   4.322 -1.1990  0.0843 -1.7656
  595TIP3   OH2 1748   0.324   5.780   2.646  0.2281  0.5390 -0.4154
  595TIP3    H1 1749   0.245   5.820   2.680  0.8923  0.8198  0.8530
  595TIP3    H2 1750   0.319   5.794   2.551 -1.4156  0.1851 -0.4091
  596TIP3   OH2 1751   1.366   2.428   0.777  0.3484 -0.0946  0.0813
  596TIP3    H1 1752   1.430   2.361   0.803 -0.7716 -0.4626  2.1859
  596TIP3    H2 1753   1.305   2.431   0.851 -2.6654 -0.5034 -2.2219
  597TIP3   OH2 1754   1.066   4.347   1.361  0.1558  0.9953 -0.0267
  597TIP3    H1 1755   1.075   4.285   1.434 -0.9321  0.0465 -0.6669
  597TIP3    H2 1756   1.151   4.345   1.317  0.4767  0.7787  0.5898
  598TIP3   OH2 1757   5.806   5.637   1.144 -0.2079  0.2874 -0.0710
  598TIP3    H1 1758   5.767   5.657   1.229 -2.0712  0.3635 -0.8958
  598TIP3    H2 1759   5.796   5.718   1.093  1.0591  0.3046 -0.3259
  599TIP3   OH2 1760   5.762   0.988   1.454  0.7052  0.6732 -0.0105
  599TIP3    H1 1761   5.763   0.939   1.536  0.4917  0.8343  0.0928
  599TIP3    H2 1762   5.680   0.962   1.412  0.9244  0.4153 -0.2839
  600TIP3   OH2 1763   3.189   3.636   1.897  0.1713 -0.8392 -0.5321
  600TIP3    H1 1764   3.183   3.592   1.813 -0.5102 -0.6644 -0.5807
  600TIP3    H2 1765   3.117   3.699   1.897 -0.0778 -1.0992  0.3343
  601TIP3   OH2 1766   2.085   4.622   5.210 -0.9293  0.6613 -0.1056
  601TIP3    H1 1767   2.139   4.694   5.242 -0.9192  0.6637 -0.1277
  601TIP3    H2 1768   2.147   4.551   5.194 -0.7073  1.1504 -1.6011
  602TIP3   OH2 1769   4.476   3.194   4.584 -0.2275  0.3132  0.2474
  602TIP3    H1 1770   4.412   3.235   4.526 -0.6256  0.1380  0.5543
  602TIP3    H2 1771   4.545   3.163   4.526  0.4666  2.0705  0.0738
  603TIP3   OH2 1772   6.980   3.698   4.423 -0.4626  0.2002 -0.0945
  603TIP3    H1 1773   7.072   3.710   4.398 -0.6242  1.4709 -0.1216
  603TIP3    H2 1774   6.970   3.603   4.429  0.9159  0.0380  0.1352
  604TIP3   OH2 1775   4.774   4.362   5.441 -0.4322 -0.1021 -0.5441
  604TIP3    H1 1776   4.701   4.391   5.497  1.5140  1.8194  1.1863
  604TIP3    H2 1777   4.741   4.283   5.398 -3.3593  0.4152  0.4964
  605TIP3   OH2 1778   3.587   5.805   2.134  0.5431 -0.4176 -0.2329
  605TIP3    H1 1779   3.668   5.839   2.173 -0.5482  0.8991  1.0395
  605TIP3    H2 1780   3.538   5.771   2.209 -0.1067 -1.1621 -0.9825
  606TIP3   OH2 1781   1.934   0.348   5.872 -0.2446 -0.2913  0.0924
  606TIP3    H1 1782   1.945   0.437   5.838 -0.7375 -0.2647  0.0081
  606TIP3    H2 1783   2.024   0.315   5.879 -0.1523 -0.4936 -1.7154
  607TIP3   OH2 1784   6.639   3.805   0.863 -0.5682  0.2970 -0.1002
  607TIP3    H1 1785   6.612   3.819   0.954  2.4037 -1.2134  1.1638
  607TIP3    H2 1786   6.613   3.715   0.844  1.9367 -0.6768  0.6449
  608TIP3   OH2 1787   0.337   3.946   3.210  0.0666  0.0238  0.1786
  608TIP3    H1 1788   0.270   3.935   3.278 -0.6651  1.0006 -0.3518
  608TIP3    H2 1789   0.287   3.966   3.131  1.0233  2.2627  0.0687
  609TIP3   OH2 1790   4.630   1.592   4.080  0.3353  0.2255  0.2107
  609TIP3    H1 1791   4.665   1.504   4.093  0.2163  0.4614  2.4823
  609TIP3    H2 1792   4.616   1.626   4.168 -1.1189  1.9441 -0.6087
  610TIP3   OH2 1793   5.428   1.455   2.066  0.3903 -0.5714 -0.1861
  610TIP3    H1 1794   5.400   1.502   1.987 -0.9803 -1.4245 -0.2361
  610TIP3    H2 1795   5.386   1.503   2.138 -0.0409 -1.0074 -0.1449
  611TIP3   OH2 1796   3.507   4.559   2.116  0.4544 -0.5735  0.4714
  611TIP3    H1 1797   3.542   4.647   2.129 -0.7880  0.2343 -1.3280
  611TIP3    H2 1798   3.413   4.571   2.112  0.3553 -1.6937 -1.7106
  612TIP3   OH2 1799   3.450   1.060   4.486 -0.3289 -0.3023 -0.1177
  612TIP3    H1 1800   3.505   1.096   4.555  1.0905  0.9168 -1.8057
  612TIP3    H2 1801   3.477   0.968   4.479  1.5183  0.2524 -0.8614
  613TIP3   OH2 1802   1.239   0.472   4.834  0.5058  0.2344 -0.9452
  613TIP3    H1 1803   1.334   0.478   4.827  0.6567 -0.7009  0.0234
  613TIP3    H2 1804   1.216   0.392   4.786  0.7201 -1.9209  2.2843
  614TIP3   OH2 1805   2.754   2.601   3.591 -0.8107  0.2139 -0.2348
  614TIP3    H1 1806   2.823   2.545   3.628  0.8229  1.5196 -1.1690
  614TIP3    H2 1807   2.681   2.593   3.652  0.2741 -0.9768  0.9703
  615TIP3   OH2 1808   4.885   6.262   1.969 -0.3314 -0.1543  0.0726
  615TIP3    H1 1809   4.877   6.351   2.003 -1.1371 -0.3762  0.4993
  615TIP3    H2 1810   4.974   6.257   1.935 -0.4611  1.0075 -0.5014
  616TIP3   OH2 1811   0.490   2.095   3.284 -0.6076 -0.3106  0.2826
  616TIP3    H1 1812   0.433   2.145   3.342 -0.2256  0.0431  0.3509
  616TIP3    H2 1813   0.550   2.049   3.342  0.0981  0.4317  0.1595
  617TIP3   OH2 1814   2.810   3.523   3.991 -0.0265 -0.3988  0.6816
  617TIP3    H1 1815   2.720   3.491   3.983 -1.1064  2.5088 -0.0520
  617TIP3    H2 1816   2.862   3.460   3.942 -1.9558 -1.0728 -0.6250
  618TIP3   OH2 1817   7.159   2.380   3.215 -0.4600 -0.0059  0.1758
  618TIP3    H1 1818   7.099   2.308   3.197 -0.9735  0.6608 -0.8792
  618TIP3    H2 1819   7.238   2.338   3.248 -0.6228 -1.0780 -0.7467
  619TIP3   OH2 1820   6.317   6.425   1.098  0.2836 -0.2693 -0.4031
  619TIP3    H1 1821   6.390   6.390   1.150 -0.4162 -0.7210  0.3117
  619TIP3    H2 1822   6.239   6.391   1.142 -0.3357 -1.4867 -2.3176
  620TIP3   OH2 1823   5.207   6.372   2.898 -0.2405  0.0468  0.0277
  620TIP3    H1 1824   5.188   6.366   2.991 -0.9463 -0.0916 -0.1198
  620TIP3    H2 1825   5.206   6.466   2.879 -0.6324  0.0506  0.0562
  621TIP3   OH2 1826   5.310   0.337   3.117 -0.1422  0.2661 -0.3092
  621TIP3    H1 1827   5.272   0.424   3.130 -0.2802  0.1569  0.0554
  621TIP3    H2 1828   5.261   0.299   3.044 -0.2479  0.4060 -0.3114
  622TIP3   OH2 1829   2.472   2.686   3.368 -0.1752  0.6201  0.1216
  622TIP3    H1 1830   2.384   2.722   3.357 -1.2313 -1.3040  1.6605
  622TIP3    H2 1831   2.470   2.600   3.327  0.7167  0.2017  0.8850
  623TIP3   OH2 1832   2.535   3.112   3.441 -0.1450  0.5358  0.3217
  623TIP3    H1 1833   2.504   3.197   3.410 -0.2425 -0.1350 -1.5240
  623TIP3    H2 1834   2.555   3.063   3.362 -0.8111 -1.4535  1.3048
  624TIP3   OH2 1835   2.799   2.374   0.100  0.4595 -0.0822 -0.0185
  624TIP3    H1 1836   2.865   2.312   0.070 -0.1323 -0.5795 -0.3027
  624TIP3    H2 1837   2.841   2.460   0.092  1.1702 -0.4157  0.0792
  625TIP3   OH2 1838   1.308   5.567   4.782 -0.4765  0.2373  0.1927
  625TIP3    H1 1839   1.252   5.526   4.848 -0.2949  1.0676  0.8803
  625TIP3    H2 1840   1.247   5.615   4.725 -0.6453 -0.5882 -0.3374
  626TIP3   OH2 1841   1.259   3.670   1.494 -0.7626  0.6607  0.3473
  626TIP3    H1 1842   1.314   3.688   1.418 -2.5549  0.9843 -0.9426
  626TIP3    H2 1843   1.252   3.754   1.539 -0.6787  0.7606  0.1752
  627TIP3   OH2 1844   4.335   0.474   4.146 -0.7852  0.1073  0.9538
  627TIP3    H1 1845   4.309   0.465   4.237 -0.1648  0.7983  1.2006
  627TIP3    H2 1846   4.272   0.536   4.109 -2.1323 -1.4817  0.4415
  628TIP3   OH2 1847   1.855   4.126   1.696 -0.9594 -0.3213 -0.0087
  628TIP3    H1 1848   1.845   4.126   1.601 -1.1032 -0.7413  0.0067
  628TIP3    H2 1849   1.810   4.206   1.724  1.8329  1.6030 -0.5602
  629TIP3   OH2 1850   3.103   5.595   0.296 -0.0210  0.0300  0.0456
  629TIP3    H1 1851   3.144   5.590   0.210 -0.3131  2.8562 -0.3852
  629TIP3    H2 1852   3.158   5.543   0.354  2.2062  0.8943 -1.1969
  630TIP3   OH2 1853   1.489   0.339   5.776 -0.1567 -0.0609 -0.1177
  630TIP3    H1 1854   1.447   0.268   5.727  1.7150  0.5845 -2.9014
  630TIP3    H2 1855   1.491   0.412   5.713  1.4166  1.2054  1.3361
  631TIP3   OH2 1856   3.264   0.078   2.647  0.6935  0.0635 -0.3223
  631TIP3    H1 1857   3.202   0.040   2.584  2.2772 -0.0694 -1.8727
  631TIP3    H2 1858   3.219   0.156   2.681 -0.2621  0.0525 -1.5100
  632TIP3   OH2 1859   1.897   0.687   2.828 -0.1235  0.6077 -0.1822
  632TIP3    H1 1860   1.968   0.688   2.764  0.2799 -0.8641  0.1984
  632TIP3    H2 1861   1.916   0.610   2.883 -1.6403  0.5782  0.3387
  633TIP3   OH2 1862   5.265   2.146   3.219 -0.0137  0.3813  0.0981
  633TIP3    H1 1863   5.303   2.059   3.230  1.9030  0.8167 -2.2646
  633TIP3    H2 1864   5.227   2.145   3.131  0.7886  2.1631 -0.3189
  634TIP3   OH2 1865   2.889   2.131   3.566 -0.0949 -0.3387  0.0015
  634TIP3    H1 1866   2.936   2.122   3.649 -1.7164 -0.2052  0.9670
  634TIP3    H2 1867   2.869   2.042   3.539  2.4774 -0.5502 -1.5298
  635TIP3   OH2 1868   2.182   3.492   1.073 -0.1442  0.6353 -0.5158
  635TIP3    H1 1869   2.277   3.489   1.083 -0.0195  0.1978 -1.7538
  635TIP3    H2 1870   2.151   3.413   1.119  0.3010 -0.5145 -2.1074
  636TIP3   OH2 1871   4.071   3.370   4.796 -0.3151  1.0685 -0.4283
  636TIP3    H1 1872   4.075   3.298   4.734  0.0570  0.4599  0.2804
  636TIP3    H2 1873   4.134   3.434   4.764 -0.8835  1.2353 -1.2421
  637TIP3   OH2 1874   1.661   0.289   4.636  0.1487 -0.8908  0.3370
  637TIP3    H1 1875   1.749   0.252   4.634 -0.5944 -2.7218 -1.4871
  637TIP3    H2 1876   1.646   0.321   4.547 -0.1102  1.8830  1.2554
  638TIP3   OH2 1877   3.906   5.151   2.619 -0.2871  0.1795 -0.0770
  638TIP3    H1 1878   3.893   5.193   2.704 -0.2819 -2.3830  1.2830
  638TIP3    H2 1879   3.877   5.216   2.555 -1.3423  1.7676  1.9239
  639TIP3   OH2 1880   5.677   4.939   2.449  0.2829 -0.5767 -0.2911
  639TIP3    H1 1881   5.615   4.867   2.454 -0.3588  0.0296  0.8279
  639TIP3    H2 1882   5.760   4.902   2.481 -0.2025 -0.6660  0.9124
  640TIP3   OH2 1883   4.366   3.043   0.834  0.2973  0.1802 -0.5859
  640TIP3    H1 1884   4.286   3.095   0.825  1.0399  1.4536 -0.0972
  640TIP3    H2 1885   4.437   3.105   0.817  1.2467 -0.4909  0.7191
  641TIP3   OH2 1886   6.265   2.876   3.768  0.4103 -0.4880 -0.6384
  641TIP3    H1 1887   6.283   2.813   3.699 -0.1448 -0.8807 -0.4304
  641TIP3    H2 1888   6.236   2.823   3.842 -0.3983  0.0280 -0.5707
  642TIP3   OH2 1889   0.367   2.180   3.896 -0.1829 -0.1541 -0.9903
  642TIP3    H1 1890   0.288   2.129   3.875 -0.4382 -0.0193 -0.3625
  642TIP3    H2 1891   0.410   2.131   3.966 -0.8907  0.9320  0.2433
  643TIP3   OH2 1892   4.740   4.570   3.032 -0.0669 -0.3504  0.8673
  643TIP3    H1 1893   4.794   4.621   3.092  0.6833 -1.3770  1.0924
  643TIP3    H2 1894   4.801   4.541   2.964 -0.9810  1.1704 -0.6909
  644TIP3   OH2 1895   0.455   6.797   0.723  0.1208  0.5495  0.4685
  644TIP3    H1 1896   0.478   6.724   0.666  0.0886  1.0840 -0.2313
  644TIP3    H2 1897   0.366   6.778   0.751  0.2039  0.1905  0.4980
  645TIP3   OH2 1898   0.344   3.080   1.891 -0.0879 -0.0765  0.1721
  645TIP3    H1 1899   0.255   3.059   1.920 -0.7273  1.2982 -0.7009
  645TIP3    H2 1900   0.347   3.052   1.799  0.1795  0.4368  0.0224
  646TIP3   OH2 1901   1.610   4.754   3.630 -0.0429  0.8502 -0.2381
  646TIP3    H1 1902   1.629   4.660   3.622  0.7104  0.9422  0.3035
  646TIP3    H2 1903   1.622   4.773   3.723 -2.0167  1.1194 -0.0030
  647TIP3   OH2 1904   0.620   6.729   4.340 -0.0789 -0.1929 -0.2704
  647TIP3    H1 1905   0.672   6.775   4.406 -0.5648  0.1099 -0.0950
  647TIP3    H2 1906   0.561   6.673   4.391 -0.1899 -0.2480 -0.4587
  648TIP3   OH2 1907   2.994   1.636   3.855 -0.8084  0.1440 -0.0563
  648TIP3    H1 1908   2.931   1.708   3.850 -1.7225 -0.6845 -1.0132
  648TIP3    H2 1909   2.995   1.611   3.947 -0.1642  1.6335  0.3710
  649TIP3   OH2 1910   1.606   0.894   0.627 -1.0033  0.2571 -0.8119
  649TIP3    H1 1911   1.515   0.923   0.624 -0.4918  2.1718  0.2832
  649TIP3    H2 1912   1.603   0.812   0.676 -1.9299  1.5802  1.5196
  650TIP3   OH2 1913   6.042   2.214   2.732  0.2473 -0.3663  0.3542
  650TIP3    H1 1914   6.086   2.270   2.795 -0.6432  0.4198  0.3158
  650TIP3    H2 1915   6.080   2.239   2.647  2.0022 -1.9705  0.6105
  651TIP3   OH2 1916   1.640   1.057   2.945 -0.8780 -0.3839 -0.2554
  651TIP3    H1 1917   1.625   1.082   2.854 -1.3823  1.9272  0.3803
  651TIP3    H2 1918   1.569   0.996   2.966 -1.6903  0.2948 -0.9750
  652TIP3   OH2 1919   0.084   1.858   4.103 -0.5689  0.3120 -0.3062
  652TIP3    H1 1920   0.102   1.872   4.196 -1.2558  1.0853 -0.2758
  652TIP3    H2 1921   0.136   1.781   4.080  0.4316  0.7249  0.4658
  653TIP3   OH2 1922   6.774   2.653   0.996  0.8274  0.6019  0.3845
  653TIP3    H1 1923   6.704   2.698   0.950 -0.0878  0.2006  1.3490
  653TIP3    H2 1924   6.825   2.724   1.037 -0.1942  0.8382  1.3156
  654TIP3   OH2 1925   5.463   0.844   2.847  0.7570 -0.1552 -0.0596
  654TIP3    H1 1926   5.438   0.937   2.848  1.3898  0.0135  0.3881
  654TIP3    H2 1927   5.515   0.832   2.927 -0.5504 -1.2449  0.6763
  655TIP3   OH2 1928   3.597   3.813   5.425 -0.5903  0.2070 -0.0189
  655TIP3    H1 1929   3.652   3.848   5.494 -0.2015  1.1003 -0.7541
  655TIP3    H2 1930   3.654   3.754   5.375  0.0987  2.0192 -1.4824
  656TIP3   OH2 1931   3.012   5.572   3.330 -0.0401  0.3872 -0.7661
  656TIP3    H1 1932   2.917   5.566   3.321  0.0954 -1.7291 -1.3154
  656TIP3    H2 1933   3.034   5.504   3.394  1.3184 -0.8483 -2.4677
  657TIP3   OH2 1934   6.352   0.100   0.889 -0.0500  0.1382  0.3875
  657TIP3    H1 1935   6.392   0.169   0.837 -0.1463  0.4812  0.7636
  657TIP3    H2 1936   6.421   0.073   0.950 -0.5249  1.0466  1.3424
  658TIP3   OH2 1937   2.262   5.229   5.515 -0.4027 -0.5973 -0.1221
  658TIP3    H1 1938   2.322   5.233   5.589 -0.5420  0.0205 -0.0338
  658TIP3    H2 1939   2.179   5.262   5.550 -0.5083 -0.4458 -0.5148
  659TIP3   OH2 1940   5.603   4.588   3.473  0.0198  0.4391 -0.1471
  659TIP3    H1 1941   5.517   4.619   3.503  0.2996 -0.9209  2.3951
  659TIP3    H2 1942   5.661   4.662   3.490 -0.0926  0.1929  1.5126
  660TIP3   OH2 1943   1.131   4.712   4.023 -0.0925 -0.0444 -0.5560
  660TIP3    H1 1944   1.153   4.718   3.930  0.9041  0.2009 -0.3145
  660TIP3    H2 1945   1.039   4.739   4.028  0.1294  0.9141 -1.3457
  661TIP3   OH2 1946   1.730   1.383   4.830  0.4314  0.4406 -0.0970
  661TIP3    H1 1947   1.759   1.362   4.742  2.5793 -0.3847  0.7366
  661TIP3    H2 1948   1.662   1.318   4.849  0.8445 -0.1907 -0.7165
  662TIP3   OH2 1949   1.150   1.137   5.373 -0.0295 -0.2605  0.2605
  662TIP3    H1 1950   1.111   1.072   5.433 -0.0794 -1.4264 -0.9854
  662TIP3    H2 1951   1.089   1.210   5.375  0.2875  0.0129  2.0971
  663TIP3   OH2 1952   7.130   5.636   5.354  0.4687 -0.2534 -0.2122
  663TIP3    H1 1953   7.085   5.558   5.321 -2.1849  1.1967 -0.3558
  663TIP3    H2 1954   7.192   5.659   5.285  1.4637 -2.3236 -0.0585
  664TIP3   OH2 1955   6.355   0.214   5.472 -0.0147 -0.3549 -0.2070
  664TIP3    H1 1956   6.274   0.170   5.499  0.7118 -0.5307  1.8057
  664TIP3    H2 1957   6.403   0.147   5.422  0.1324 -1.1875  1.0174
  665TIP3   OH2 1958   6.200   4.745   0.043  0.0066 -0.3299  0.3807
  665TIP3    H1 1959   6.295   4.754   0.052  0.3020 -2.2425 -0.4333
  665TIP3    H2 1960   6.180   4.789  -0.040  0.2940 -0.5834  0.1753
  666TIP3   OH2 1961   2.047   3.397   2.717 -0.3037 -0.1358  0.3581
  666TIP3    H1 1962   2.038   3.317   2.665 -1.4254 -0.9643  1.7649
  666TIP3    H2 1963   2.098   3.456   2.661  0.3802 -1.7435 -0.7964
  667TIP3   OH2 1964   6.219   1.484   3.383  0.0509  0.0016 -0.1916
  667TIP3    H1 1965   6.295   1.463   3.439  0.1528  1.4517  0.2452
  667TIP3    H2 1966   6.232   1.430   3.305  1.5682  0.2442 -0.1491
  668TIP3   OH2 1967   0.440   6.555   4.442  0.1267  0.4833  0.0279
  668TIP3    H1 1968   0.367   6.538   4.381 -0.2846  1.7960  0.1294
  668TIP3    H2 1969   0.401   6.545   4.529 -0.0357  1.5370  0.0852
  669TIP3   OH2 1970   4.348   5.220   3.548  0.3190 -0.8976  0.0817
  669TIP3    H1 1971   4.264   5.178   3.567 -0.1438  0.3301  0.8949
  669TIP3    H2 1972   4.399   5.152   3.505 -0.8251 -1.9045  0.2393
  670TIP3   OH2 1973   4.253   2.544   4.215  0.5968 -0.0858 -0.0849
  670TIP3    H1 1974   4.187   2.554   4.146 -0.3347 -0.5923  0.6960
  670TIP3    H2 1975   4.238   2.619   4.273  0.2991 -0.5220  0.4120
  671TIP3   OH2 1976   4.617   2.221   0.777  0.0757 -0.4117  0.0439
  671TIP3    H1 1977   4.545   2.230   0.840  0.6589 -1.8843  0.9841
  671TIP3    H2 1978   4.662   2.141   0.804  1.7020  0.1364 -0.9156
  672TIP3   OH2 1979   4.599   3.603   0.735 -0.2802  0.2899  0.2638
  672TIP3    H1 1980   4.686   3.586   0.772 -0.4454 -0.6533  0.2279
  672TIP3    H2 1981   4.617   3.649   0.653  0.1279  1.3149  0.8987
  673TIP3   OH2 1982   2.577   1.186   5.361 -0.3682  0.1776 -0.1409
  673TIP3    H1 1983   2.514   1.254   5.385  1.4675  2.1336 -0.6133
  673TIP3    H2 1984   2.616   1.159   5.444 -0.3685  0.4584 -0.0493
  674TIP3   OH2 1985   5.907   4.542   4.131  0.2255 -0.3458 -0.2135
  674TIP3    H1 1986   5.832   4.506   4.083  1.7262  1.4161 -4.3126
  674TIP3    H2 1987   5.969   4.469   4.136 -0.0874 -0.6456 -0.6259
  675TIP3   OH2 1988   6.671   3.192   0.155  0.1739 -0.2538 -0.6522
  675TIP3    H1 1989   6.610   3.123   0.182  0.3758 -0.0963  0.2297
  675TIP3    H2 1990   6.635   3.272   0.194  0.0185  0.1230 -1.5498
  676TIP3   OH2 1991   2.978   1.741   0.374 -0.1624  0.0316 -0.1237
  676TIP3    H1 1992   3.045   1.715   0.438 -0.5713 -0.5272  0.0845
  676TIP3    H2 1993   2.966   1.835   0.390  1.0000  0.2764 -0.5772
  677TIP3   OH2 1994   6.246   6.481   3.235 -0.6361  0.0940 -0.3660
  677TIP3    H1 1995   6.190   6.554   3.260 -0.6599 -0.0286 -0.0617
  677TIP3    H2 1996   6.322   6.523   3.194 -0.8957  0.2632 -0.6791
  678TIP3   OH2 1997   5.636   3.801   1.789  0.3446 -0.1019 -0.8631
  678TIP3    H1 1998   5.595   3.887   1.791 -0.6692 -0.5454 -1.6863
  678TIP3    H2 1999   5.727   3.818   1.813 -0.1953  0.9604  0.5805
  679TIP3   OH2 2000   3.491   1.344   0.096  0.1294 -0.3516  0.5351
  679TIP3    H1 2001   3.511   1.428   0.055 -1.1130 -0.1441  0.3033
  679TIP3    H2 2002   3.547   1.281   0.052 -0.8962 -0.0746 -1.2411
  680TIP3   OH2 2003   4.313   6.774   2.797  0.1045 -0.1361 -0.5363
  680TIP3    H1 2004   4.389   6.770   2.856  0.2428  3.1311 -0.2661
  680TIP3    H2 2005   4.343   6.733   2.716  1.6385 -0.2842  0.0722
  681TIP3   OH2 2006   4.331   5.483   0.187 -0.7343 -0.6049 -0.6731
  681TIP3    H1 2007   4.390   5.412   0.215  0.1990  0.1280 -0.7268
  681TIP3    H2 2008   4.390   5.554   0.162 -1.6640  0.2170 -0.5727
  682TIP3   OH2 2009   6.135   5.232   3.120  0.1268  0.1822  0.6499
  682TIP3    H1 2010   6.181   5.298   3.068 -1.0346  1.1789  0.8339
  682TIP3    H2 2011   6.184   5.229   3.203  0.7885  0.0529  0.2628
  683TIP3   OH2 2012   1.398   4.658   4.626 -0.1809  0.1049  1.0127
  683TIP3    H1 2013   1.390   4.627   4.716  1.1117 -2.0213  0.4687
  683TIP3    H2 2014   1.489   4.641   4.602 -0.2133  1.5807 -0.3909
  684TIP3   OH2 2015   6.640   0.248   2.446  0.2597  1.0297  0.2130
  684TIP3    H1 2016   6.698   0.172   2.442 -2.8819 -1.5599 -0.5536
  684TIP3    H2 2017   6.574   0.225   2.511 -1.7416  2.3396 -1.2335
  685TIP3   OH2 2018   3.082   5.184   2.632  0.3567 -0.5627  0.1895
  685TIP3    H1 2019   3.023   5.121   2.592  0.5400 -0.9588  0.5332
  685TIP3    H2 2020   3.062   5.180   2.726  0.1919  0.0759  0.1891
  686TIP3   OH2 2021   3.589   4.588   0.248  0.0455  0.6109  0.2732
  686TIP3    H1 2022   3.666   4.622   0.203 -0.6852  1.4188 -0.3989
  686TIP3    H2 2023   3.539   4.666   0.273 -1.1420  0.0853 -0.3604
  687TIP3   OH2 2024   6.448   5.164   3.096  0.1475  0.5822  0.0032
  687TIP3    H1 2025   6.500   5.229   3.141  0.6136  0.1588  0.0803
  687TIP3    H2 2026   6.511   5.099   3.065 -0.3975 -0.3319  0.7589
  688TIP3   OH2 2027   3.466   6.571   2.712  0.7857  0.3362  0.0054
  688TIP3    H1 2028   3.440   6.486   2.746  2.3082 -0.6840 -1.2764
  688TIP3    H2 2029   3.454   6.631   2.786  0.2872 -1.0898  1.1135
  689TIP3   OH2 2030   2.006   4.663   1.332 -0.5148 -0.4551  0.3397
  689TIP3    H1 2031   2.023   4.659   1.426  0.9350 -0.8165  0.0853
  689TIP3    H2 2032   1.977   4.753   1.317  0.3878 -0.0417  0.9690
  690TIP3   OH2 2033   0.945   3.742   4.110  0.2534 -0.0719  0.2719
  690TIP3    H1 2034   0.980   3.767   4.195 -0.5956  2.6682 -0.0968
  690TIP3    H2 2035   0.885   3.669   4.129  0.0526  0.5047  2.0107
  691TIP3   OH2 2036   2.225   0.158   4.993  0.8473  0.3307 -0.5620
  691TIP3    H1 2037   2.187   0.175   5.079 -2.6061 -0.7323 -1.7331
  691TIP3    H2 2038   2.235   0.063   4.989  1.9559  0.4465 -0.9963
  692TIP3   OH2 2039   4.789   3.319   2.755 -0.6175  0.0113 -0.6034
  692TIP3    H1 2040   4.722   3.302   2.821 -0.8523  1.2169 -0.5057
  692TIP3    H2 2041   4.745   3.373   2.689 -0.1594 -0.4870 -1.3331
  693TIP3   OH2 2042   0.892   0.785   3.486 -0.0624  0.3428 -0.5149
  693TIP3    H1 2043   0.862   0.698   3.463  0.8191 -0.0156 -0.3626
  693TIP3    H2 2044   0.852   0.843   3.421 -0.5536 -0.1843 -0.6851
  694TIP3   OH2 2045   5.579   3.867   1.473  0.1631 -0.3619  0.2159
  694TIP3    H1 2046   5.487   3.862   1.497 -0.1027  0.6402 -0.5356
  694TIP3    H2 2047   5.582   3.835   1.383 -0.0852  2.9999 -1.1413
  695TIP3   OH2 2048   6.584   1.193   5.448  0.5286 -0.6717 -0.3789
  695TIP3    H1 2049   6.603   1.207   5.355  0.1601 -1.1389 -0.5288
  695TIP3    H2 2050   6.489   1.202   5.454  0.3510 -2.2723 -0.3475
  696TIP3   OH2 2051   2.344   0.953   4.488  0.3159  0.6104 -0.3774
  696TIP3    H1 2052   2.347   0.928   4.580 -1.4296  0.5339 -0.3202
  696TIP3    H2 2053   2.385   1.039   4.485 -0.3235  0.9625  0.6020
  697TIP3   OH2 2054   0.280   5.947   4.303  0.0978 -0.6483 -0.3410
  697TIP3    H1 2055   0.324   5.963   4.386 -1.0937  0.8386  0.0519
  697TIP3    H2 2056   0.351   5.936   4.240  1.0190 -0.4363  0.6395
  698TIP3   OH2 2057   4.542   1.274   5.310 -0.4829  0.3260  0.1330
  698TIP3    H1 2058   4.586   1.230   5.237  0.5185  2.5680 -0.6940
  698TIP3    H2 2059   4.480   1.333   5.269  0.0408  1.5710  1.0727
  699TIP3   OH2 2060   2.347   1.483   0.975 -0.3577 -0.3416 -0.3120
  699TIP3    H1 2061   2.362   1.391   0.953  0.4698 -0.1142 -0.7692
  699TIP3    H2 2062   2.313   1.522   0.894  1.8976  0.3175 -1.0342
  700TIP3   OH2 2063   5.154   1.660   5.573 -0.1358 -0.0370  0.3044
  700TIP3    H1 2064   5.180   1.752   5.585 -0.5040  0.2239 -0.7436
  700TIP3    H2 2065   5.059   1.661   5.585 -0.1499 -0.2712  0.2134
  701TIP3   OH2 2066   7.164   0.556   4.985 -0.1475 -0.0219  0.4883
  701TIP3    H1 2067   7.070   0.551   4.969 -0.1497  1.3378 -0.0861
  701TIP3    H2 2068   7.199   0.477   4.945 -0.7869  0.7111 -1.6775
  702TIP3   OH2 2069   0.714   2.819   5.034 -0.1983 -0.3291  0.5221
  702TIP3    H1 2070   0.692   2.911   5.023 -0.0076 -0.3207  0.2042
  702TIP3    H2 2071   0.787   2.818   5.096  1.7255 -0.0387 -1.5897
  703TIP3   OH2 2072   5.137   1.844   0.945 -0.0150 -0.8326 -0.1865
  703TIP3    H1 2073   5.185   1.916   0.905 -1.9804  1.1196  0.7851
  703TIP3    H2 2074   5.081   1.811   0.875 -1.7711  1.0606  0.2518
  704TIP3   OH2 2075   5.614   0.570   1.826  0.5435  0.5116  0.0381
  704TIP3    H1 2076   5.684   0.568   1.761 -0.1330 -1.0267 -0.7100
  704TIP3    H2 2077   5.646   0.515   1.897 -0.0658 -0.6485 -0.5434
  705TIP3   OH2 2078   1.935   5.468   2.038  0.2667  0.2622  0.2874
  705TIP3    H1 2079   2.020   5.511   2.033 -0.3102  1.3049 -2.6832
  705TIP3    H2 2080   1.879   5.529   2.086  0.0449  1.9061 -1.9226
  706TIP3   OH2 2081   5.575   0.726   5.135  0.1106  0.4039  0.2942
  706TIP3    H1 2082   5.648   0.755   5.080  0.1596  0.3541  0.3322
  706TIP3    H2 2083   5.601   0.639   5.165 -1.1854 -0.8927 -1.9901
  707TIP3   OH2 2084   4.317   1.657   3.806  0.7659  0.0830  0.1442
  707TIP3    H1 2085   4.294   1.718   3.876  1.6033  0.1688  0.3448
  707TIP3    H2 2086   4.259   1.681   3.734  1.4167  1.4335  0.0504
  708TIP3   OH2 2087   4.532   3.780   5.739  0.1292  0.5229  0.2601
  708TIP3    H1 2088   4.448   3.773   5.784  0.7445  0.3192  1.4017
  708TIP3    H2 2089   4.597   3.751   5.803  0.7774 -3.0648 -1.7442
  709TIP3   OH2 2090   1.251   4.938   5.106 -0.1815 -0.1011  0.4605
  709TIP3    H1 2091   1.309   4.863   5.120 -1.1761 -1.1061 -0.5894
  709TIP3    H2 2092   1.292   4.987   5.035 -0.5639 -0.7762 -0.2405
  710TIP3   OH2 2093   6.429   1.253   2.707  0.0294 -0.0177 -0.0021
  710TIP3    H1 2094   6.348   1.302   2.694 -0.3109 -0.1270  1.5395
  710TIP3    H2 2095   6.424   1.181   2.643 -0.5310  0.6381 -0.7171
  711TIP3   OH2 2096   3.034   5.802   1.067  0.6937  0.0265  0.3555
  711TIP3    H1 2097   3.018   5.888   1.027  0.5532 -1.5962 -3.6112
  711TIP3    H2 2098   3.118   5.773   1.031  0.6766 -1.5610  1.4681
  712TIP3   OH2 2099   1.743   3.885   1.403  0.3902  0.5894 -0.2908
  712TIP3    H1 2100   1.652   3.884   1.372 -0.4179  2.3560  1.7271
  712TIP3    H2 2101   1.756   3.975   1.434  2.3197 -0.0451  0.9053
  713TIP3   OH2 2102   0.771   5.625   1.748 -0.0792 -0.1702  0.3352
  713TIP3    H1 2103   0.732   5.697   1.798  0.0225  0.6576 -0.7437
  713TIP3    H2 2104   0.715   5.549   1.769 -1.1893  0.5884  0.2226
  714TIP3   OH2 2105   6.993   5.948   3.087 -0.0542  0.8002 -0.0620
  714TIP3    H1 2106   6.983   5.902   3.004  0.2243 -0.5893  0.6257
  714TIP3    H2 2107   7.053   6.020   3.068 -0.9382  1.2249 -1.3060
  715TIP3   OH2 2108   6.567   3.765   3.979  0.1793 -0.3639 -0.5422
  715TIP3    H1 2109   6.480   3.729   3.998 -0.3120  1.8830  2.2338
  715TIP3    H2 2110   6.551   3.840   3.922  0.9007 -2.4794 -3.8083
  716TIP3   OH2 2111   1.129   2.274   4.210 -0.2007  0.4988 -0.0997
  716TIP3    H1 2112   1.067   2.343   4.233  0.1436  0.3632  1.2990
  716TIP3    H2 2113   1.177   2.309   4.135 -0.9300  1.2214 -0.2426
  717TIP3   OH2 2114   5.309   0.128   0.188 -0.3914  0.2299  0.3236
  717TIP3    H1 2115   5.243   0.111   0.255  2.3725 -0.2076  3.2037
  717TIP3    H2 2116   5.367   0.193   0.227  0.2939  1.4933 -2.5443
  718TIP3   OH2 2117   1.607   5.636   1.727 -1.0364  0.2926 -0.3561
  718TIP3    H1 2118   1.519   5.600   1.715 -0.8441  0.2177 -1.7900
  718TIP3    H2 2119   1.599   5.694   1.803 -1.7057 -1.5914  1.0950
  719TIP3   OH2 2120   5.111   4.703   4.480 -0.3476  0.3342 -0.4720
  719TIP3    H1 2121   5.104   4.779   4.538 -1.8545 -0.4391  0.4326
  719TIP3    H2 2122   5.104   4.628   4.539 -1.2033 -0.4819 -1.5727
  720TIP3   OH2 2123   4.315   5.004   1.286  0.2471 -0.0539 -0.6671
  720TIP3    H1 2124   4.222   5.006   1.306  0.3362 -2.4764  0.4050
  720TIP3    H2 2125   4.357   5.047   1.361  0.1053 -1.4983  0.2735
  721TIP3   OH2 2126   5.281   1.920   4.765 -0.3336 -0.4099 -0.0969
  721TIP3    H1 2127   5.374   1.942   4.757  0.1934 -1.5984  1.8636
  721TIP3    H2 2128   5.249   1.915   4.675  2.1267 -2.3807 -0.9844
  722TIP3   OH2 2129   6.738   0.466   1.383  0.4875 -0.4625 -0.1701
  722TIP3    H1 2130   6.831   0.445   1.387  0.7774 -0.0370 -2.6414
  722TIP3    H2 2131   6.722   0.484   1.290 -1.1618  3.5160  0.6709
  723TIP3   OH2 2132   4.642   6.639   2.345 -0.2307  0.2040 -0.2485
  723TIP3    H1 2133   4.724   6.641   2.394  0.7062  0.2560 -1.7370
  723TIP3    H2 2134   4.645   6.716   2.288 -0.3414 -0.8613 -1.7762
  724TIP3   OH2 2135   4.992   0.279   2.299  0.6551  0.0597 -0.2169
  724TIP3    H1 2136   4.974   0.365   2.336  2.9472  1.3357 -1.8269
  724TIP3    H2 2137   4.964   0.286   2.207 -0.3371 -1.3632 -0.0456
  725TIP3   OH2 2138   1.289   6.248   4.098  0.6098  0.0135 -0.3025
  725TIP3    H1 2139   1.287   6.168   4.045  1.1337  0.2324 -0.6556
  725TIP3    H2 2140   1.319   6.316   4.038  2.0613  0.0992  0.4741
  726TIP3   OH2 2141   2.151   1.564   3.759 -0.3341 -0.4130  0.4185
  726TIP3    H1 2142   2.107   1.628   3.814  1.1725  0.2774  0.8980
  726TIP3    H2 2143   2.179   1.495   3.820 -1.1941 -1.1162  0.0390
  727TIP3   OH2 2144   2.043   4.308   3.023 -0.5265  0.1961 -0.2928
  727TIP3    H1 2145   2.017   4.216   3.032 -0.9248  0.3547  0.2061
  727TIP3    H2 2146   2.134   4.304   2.995 -0.8166 -0.3587 -1.1873
  728TIP3   OH2 2147   5.416   0.741   0.723  0.0414 -0.0444  0.2024
  728TIP3    H1 2148   5.391   0.830   0.749  1.7554  0.2001  1.1955
  728TIP3    H2 2149   5.512   0.745   0.715  0.1575 -1.8337  0.4113
  729TIP3   OH2 2150   5.679   5.526   4.750 -0.0352  0.1803  0.4262
  729TIP3    H1 2151   5.738   5.567   4.813  0.7045  0.9260 -0.7205
  729TIP3    H2 2152   5.633   5.599   4.707  0.9969 -0.1490 -1.3448
  730TIP3   OH2 2153   3.288   3.189   2.060  0.2717 -0.2679  0.0770
  730TIP3    H1 2154   3.251   3.224   2.141 -1.9233  0.0972 -1.0089
  730TIP3    H2 2155   3.212   3.174   2.003  1.6303 -1.7268 -1.4590
  731TIP3   OH2 2156   0.824   5.773   5.397 -0.0329 -0.4297  0.0169
  731TIP3    H1 2157   0.912   5.775   5.359  0.7714 -0.0713  1.8230
  731TIP3    H2 2158   0.837   5.795   5.489 -2.1566  0.7281  0.0900
  732TIP3   OH2 2159   3.338   6.185   3.433 -0.4379  0.1927 -0.0525
  732TIP3    H1 2160   3.342   6.267   3.384 -0.0205  0.5789  0.6156
  732TIP3    H2 2161   3.430   6.159   3.443 -0.5790 -0.4725 -0.4567
  733TIP3   OH2 2162   6.698   5.412   4.413 -0.3150 -0.1874 -0.0355
  733TIP3    H1 2163   6.735   5.470   4.479 -0.3818 -0.9902  0.7323
  733TIP3    H2 2164   6.649   5.469   4.354 -1.8990  0.3491  1.7168
  734TIP3   OH2 2165   3.379   0.870   0.372  0.2575  0.0697  0.2628
  734TIP3    H1 2166   3.411   0.951   0.331  2.0270 -1.3760 -1.4472
  734TIP3    H2 2167   3.336   0.899   0.452 -0.5414  2.8169 -1.0267
  735TIP3   OH2 2168   2.523   1.287   0.026 -0.3285  0.5209 -0.0402
  735TIP3    H1 2169   2.504   1.245  -0.058  0.2913  0.8868 -0.3701
  735TIP3    H2 2170   2.437   1.300   0.066 -0.6088  0.0691 -0.4836
  736TIP3   OH2 2171   7.003   5.532   0.205  0.1097  0.2212 -0.1021
  736TIP3    H1 2172   7.078   5.474   0.188  0.9833  1.9244 -2.6993
  736TIP3    H2 2173   6.973   5.558   0.118 -1.4530  2.1821  0.9448
  737TIP3   OH2 2174   4.439   2.165   2.821  0.0401 -0.2611 -0.3140
  737TIP3    H1 2175   4.405   2.165   2.911  0.2340  1.6887 -0.1911
  737TIP3    H2 2176   4.534   2.173   2.832  0.0270  0.4207 -0.6910
  738TIP3   OH2 2177   6.514   1.079   1.588  0.3976 -0.2980 -0.1550
  738TIP3    H1 2178   6.555   1.146   1.641 -0.6709  0.2644 -0.0114
  738TIP3    H2 2179   6.585   1.018   1.566  1.8128  1.8498 -1.8947
  739TIP3   OH2 2180   0.163   3.540   4.622  0.4138 -0.2993 -0.1867
  739TIP3    H1 2181   0.224   3.466   4.624 -0.0880 -0.7030  0.2233
  739TIP3    H2 2182   0.087   3.510   4.672 -0.4635 -0.0993 -1.3556
  740TIP3   OH2 2183   3.272   3.715   4.165  0.4900  0.1587 -0.3059
  740TIP3    H1 2184   3.251   3.687   4.255 -1.2860 -0.8266 -0.9645
  740TIP3    H2 2185   3.301   3.635   4.122 -2.1407 -0.2644 -1.5187
  741TIP3   OH2 2186   0.406   2.197   2.973 -0.8258  0.0075  0.6309
  741TIP3    H1 2187   0.402   2.267   2.908  0.7590  0.7432  1.2757
  741TIP3    H2 2188   0.362   2.233   3.050  1.0769  0.8349  1.3878
  742TIP3   OH2 2189   0.652   3.840   4.546 -0.3407 -0.2514 -0.2714
  742TIP3    H1 2190   0.606   3.760   4.572 -0.2599 -0.0077  0.6446
  742TIP3    H2 2191   0.642   3.842   4.451  1.8776 -2.7086 -0.6807
  743TIP3   OH2 2192   5.517   6.104   1.399 -0.4717 -0.3517 -0.2183
  743TIP3    H1 2193   5.526   6.097   1.494 -2.1920  0.9401  0.0905
  743TIP3    H2 2194   5.499   6.014   1.370 -4.2112 -0.2977  1.2967
  744TIP3   OH2 2195   4.611   2.957   3.734 -0.1081  0.3333  0.1997
  744TIP3    H1 2196   4.525   2.960   3.692 -0.0999  2.4016  0.2362
  744TIP3    H2 2197   4.644   2.869   3.715 -2.5608 -0.8455  0.9204
  745TIP3   OH2 2198   3.101   3.954   0.491 -0.5186  0.8361  0.1896
  745TIP3    H1 2199   3.053   4.010   0.430  0.3423  1.1642 -0.2066
  745TIP3    H2 2200   3.168   4.012   0.528 -0.5914  0.4611  0.9360
  746TIP3   OH2 2201   6.942   0.768   1.464 -0.1875 -0.2575  0.0315
  746TIP3    H1 2202   6.895   0.758   1.382  1.2017 -1.3841 -0.6713
  746TIP3    H2 2203   7.005   0.838   1.448  1.0844 -1.4504 -0.3971
  747TIP3   OH2 2204   6.490   0.133   2.808  0.3310 -0.3616 -0.1524
  747TIP3    H1 2205   6.423   0.076   2.846 -0.0040 -0.2066 -0.5011
  747TIP3    H2 2206   6.567   0.077   2.799  0.4616 -0.3637  0.8727
  748TIP3   OH2 2207   5.368   1.110   2.826  0.1208 -0.3569 -0.8268
  748TIP3    H1 2208   5.432   1.181   2.828 -1.1870  0.9249 -2.0616
  748TIP3    H2 2209   5.318   1.121   2.907  1.4030 -1.3958  0.1695
  749TIP3   OH2 2210   0.136   3.854   5.312 -0.0136  0.2395 -0.2052
  749TIP3    H1 2211   0.065   3.819   5.365 -0.1252  0.3932 -0.2506
  749TIP3    H2 2212   0.095   3.878   5.229  0.1346  0.1231 -0.3122
  750TIP3   OH2 2213   3.605   4.157   0.877  0.0686  0.1423 -0.2795
  750TIP3    H1 2214   3.614   4.062   0.877 -0.0025  0.1274  0.8283
  750TIP3    H2 2215   3.653   4.186   0.954 -1.0074  0.9005  0.1252
  751TIP3   OH2 2216   6.427   6.751   4.115  0.1872  0.6589  0.3687
  751TIP3    H1 2217   6.366   6.729   4.044  0.7622 -0.0623  0.0934
  751TIP3    H2 2218   6.408   6.843   4.135 -1.0061  0.4432  0.3067
  752TIP3   OH2 2219   4.101   1.611   0.827  0.1551  0.3317 -0.3898
  752TIP3    H1 2220   4.179   1.657   0.796  0.5570 -0.3188 -0.3667
  752TIP3    H2 2221   4.069   1.665   0.900  1.1770  0.0736  0.2689
  753TIP3   OH2 2222   3.728   0.923   2.525  0.1867 -0.0570 -0.3342
  753TIP3    H1 2223   3.735   0.949   2.433  0.4830 -1.5974 -0.7616
  753TIP3    H2 2224   3.646   0.873   2.530 -0.0957  0.4537  0.3617
  754TIP3   OH2 2225   4.718   3.471   1.522 -0.5428 -0.4178 -0.5512
  754TIP3    H1 2226   4.760   3.506   1.601 -0.6607 -1.0558 -0.2034
  754TIP3    H2 2227   4.626   3.461   1.546 -0.7066 -0.0014 -0.9819
  755TIP3   OH2 2228   3.591   2.424   5.681  0.2905 -0.0099 -0.4868
  755TIP3    H1 2229   3.680   2.458   5.679  1.0710 -1.9454 -0.8079
  755TIP3    H2 2230   3.570   2.407   5.589 -0.2532  0.0569 -0.3772
  756TIP3   OH2 2231   5.312   2.299   5.270 -0.5258 -0.1515  0.0946
  756TIP3    H1 2232   5.333   2.209   5.246  0.0326 -0.3237  1.1870
  756TIP3    H2 2233   5.348   2.310   5.358  0.1209  1.3860 -0.3267
  757TIP3   OH2 2234   6.790   3.398   2.030 -0.1597 -0.4563  0.4217
  757TIP3    H1 2235   6.697   3.397   2.007  0.1434 -0.8624 -0.8560
  757TIP3    H2 2236   6.834   3.362   1.953  0.9584 -1.3885  1.4632
  758TIP3   OH2 2237   5.897   6.675   5.088 -0.4099  0.0644 -0.2481
  758TIP3    H1 2238   5.829   6.711   5.145 -1.1766 -1.3067 -0.2600
  758TIP3    H2 2239   5.860   6.680   5.000 -0.0562  0.3011 -0.3852
  759TIP3   OH2 2240   4.240   5.309   2.610 -0.3811 -0.0885 -0.2621
  759TIP3    H1 2241   4.227   5.215   2.612 -0.8017 -0.0825 -1.7057
  759TIP3    H2 2242   4.219   5.335   2.520 -0.5367  1.4181  0.1693
  760TIP3   OH2 2243   1.980   5.285   0.475 -0.3761  0.1751  0.1371
  760TIP3    H1 2244   1.891   5.249   0.469 -0.1075 -0.3168 -1.3014
  760TIP3    H2 2245   1.997   5.292   0.569 -2.1219  0.7727  0.4397
  761TIP3   OH2 2246   3.002   0.801   1.298  0.4388 -0.3421 -0.6191
  761TIP3    H1 2247   2.971   0.712   1.315  1.6382 -0.7209 -0.3482
  761TIP3    H2 2248   2.980   0.850   1.377  0.8609 -0.6972 -0.2813
  762TIP3   OH2 2249   1.945   2.796   4.104  0.0446 -0.2767  0.1833
  762TIP3    H1 2250   2.001   2.797   4.182  1.6425 -0.1744 -0.9389
  762TIP3    H2 2251   1.900   2.711   4.109  1.6139 -1.1527  0.2228
  763TIP3   OH2 2252   0.060   3.976   5.628 -0.7505  0.4409 -0.0500
  763TIP3    H1 2253   0.000   3.990   5.702 -1.2869  0.3480 -0.4587
  763TIP3    H2 2254   0.043   3.886   5.600 -0.6161  0.5064 -0.3439
  764TIP3   OH2 2255   2.524   2.317   4.750 -0.0500 -0.1882  0.5848
  764TIP3    H1 2256   2.601   2.312   4.693 -0.8823 -1.7519 -0.4622
  764TIP3    H2 2257   2.478   2.396   4.720 -0.7718 -1.2904 -1.3569
  765TIP3   OH2 2258   0.413   0.137   0.322  0.0926  0.4337 -0.5843
  765TIP3    H1 2259   0.366   0.059   0.294  3.2788 -2.0519  0.4401
  765TIP3    H2 2260   0.451   0.173   0.242  0.8269 -0.7031 -0.7651
  766TIP3   OH2 2261   3.962   0.195   5.456  0.2326  0.3806 -0.3873
  766TIP3    H1 2262   3.933   0.123   5.513  0.0658  0.5327 -0.2762
  766TIP3    H2 2263   3.936   0.274   5.504  0.2462  0.5105 -0.5960
  767TIP3   OH2 2264   4.261   4.059   0.082 -0.3960 -0.0712 -0.1198
  767TIP3    H1 2265   4.189   4.098   0.032  0.8509 -0.0374 -1.9718
  767TIP3    H2 2266   4.217   4.001   0.144 -2.0073 -0.7794 -1.8245
  768TIP3   OH2 2267   6.712   5.153   2.618  0.0677 -0.4816  0.0852
  768TIP3    H1 2268   6.638   5.210   2.600 -0.6494 -1.8406 -1.4410
  768TIP3    H2 2269   6.729   5.107   2.536  1.8336 -1.0951  0.7298
  769TIP3   OH2 2270   3.702   6.254   1.322  0.1873 -0.0279  0.4005
  769TIP3    H1 2271   3.670   6.297   1.242 -0.5466 -1.1198  0.0897
  769TIP3    H2 2272   3.740   6.172   1.291  0.2056 -0.3063  1.1448
  770TIP3   OH2 2273   2.502   3.841   5.873  0.1312  0.1863  0.5401
  770TIP3    H1 2274   2.484   3.757   5.831 -0.3194 -0.2689  1.6042
  770TIP3    H2 2275   2.577   3.824   5.930  0.6093  0.7427  0.0933
  771TIP3   OH2 2276   2.387   3.794   2.932 -0.3679  0.3499  0.1408
  771TIP3    H1 2277   2.311   3.851   2.933  0.0177  0.8722  0.9916
  771TIP3    H2 2278   2.461   3.853   2.919 -0.1813 -0.3000 -2.2824
  772TIP3   OH2 2279   0.689   0.050   2.411 -0.2865  0.4725 -0.1604
  772TIP3    H1 2280   0.644  -0.009   2.350  0.3722  0.4052 -0.5919
  772TIP3    H2 2281   0.666   0.138   2.382  1.4812  0.4994 -1.6937
  773TIP3   OH2 2282   5.925   3.139   1.484  0.2392  0.4083  0.1240
  773TIP3    H1 2283   5.850   3.081   1.496  0.4207  0.4663  1.7371
  773TIP3    H2 2284   5.993   3.102   1.540  1.7868 -0.1869 -2.0029
  774TIP3   OH2 2285   5.147   0.715   5.804  0.2476 -0.0914 -0.1696
  774TIP3    H1 2286   5.118   0.625   5.790 -0.8911  0.4765 -1.6172
  774TIP3    H2 2287   5.213   0.730   5.736 -0.3138  0.4708 -0.6112
  775TIP3   OH2 2288   1.102   4.188   2.860 -0.2134  0.3215 -0.1445
  775TIP3    H1 2289   1.108   4.181   2.764 -0.6079 -0.5201 -0.1149
  775TIP3    H2 2290   1.014   4.156   2.881  0.0499  0.0254  0.5397
  776TIP3   OH2 2291   0.631   4.879   5.728 -0.5156  0.3203  0.1289
  776TIP3    H1 2292   0.557   4.818   5.728  1.3858 -2.1817 -0.0500
  776TIP3    H2 2293   0.630   4.917   5.816 -0.2524 -2.1036  1.2827
  777TIP3   OH2 2294   2.827   3.687   1.367  0.1706 -0.5673  0.2642
  777TIP3    H1 2295   2.855   3.747   1.437  1.1458 -0.1434 -0.4707
  777TIP3    H2 2296   2.744   3.725   1.335  0.9349  0.6019 -0.4123
  778TIP3   OH2 2297   2.334   1.267   4.236  0.0167 -0.2888 -0.0004
  778TIP3    H1 2298   2.342   1.230   4.148 -0.7597 -1.0306  0.2265
  778TIP3    H2 2299   2.413   1.240   4.282  0.5058  0.2440 -0.5093
  779TIP3   OH2 2300   2.453   4.924   4.734  0.3412 -0.2615  0.1932
  779TIP3    H1 2301   2.420   4.913   4.823  1.9010  2.4255  1.2440
  779TIP3    H2 2302   2.548   4.932   4.744  0.4670  1.1357 -1.5242
  780TIP3   OH2 2303   5.619   0.044   3.763 -0.3231  0.2424  0.1071
  780TIP3    H1 2304   5.648   0.127   3.801 -1.1595  0.4300  0.3713
  780TIP3    H2 2305   5.688  -0.018   3.787  0.1887  0.8037  0.1265
  781TIP3   OH2 2306   0.495   6.607   0.526 -0.1146 -0.2855 -0.4921
  781TIP3    H1 2307   0.537   6.618   0.441  0.4393 -0.7315 -0.2799
  781TIP3    H2 2308   0.441   6.529   0.516  0.6933 -0.9011 -0.1537
  782TIP3   OH2 2309   3.008   5.070   4.270  0.2241  0.0953 -0.4697
  782TIP3    H1 2310   3.066   5.140   4.239  0.2104  0.2669 -0.1103
  782TIP3    H2 2311   2.940   5.115   4.319 -0.6674 -0.0323 -1.5410
  783TIP3   OH2 2312   0.493   2.971   5.595  0.2648  0.1828 -0.6176
  783TIP3    H1 2313   0.464   2.948   5.684 -0.6423 -1.4996 -1.3018
  783TIP3    H2 2314   0.589   2.975   5.602  0.4646 -2.9592 -0.1372
  784TIP3   OH2 2315   5.381   3.524   2.988  0.0737  0.1004  0.3262
  784TIP3    H1 2316   5.464   3.539   3.033  0.0772 -1.3332  0.8253
  784TIP3    H2 2317   5.370   3.429   2.988  0.0339  0.0010 -2.6157
  785TIP3   OH2 2318   7.018   3.058   0.848 -0.1404  0.1574  0.1292
  785TIP3    H1 2319   6.989   2.967   0.860 -1.2532  0.3586 -0.8777
  785TIP3    H2 2320   6.966   3.090   0.774  1.4305  1.1001 -0.6192
  786TIP3   OH2 2321   0.893   3.630   1.769  0.6248  0.2616 -0.0749
  786TIP3    H1 2322   0.968   3.571   1.776 -0.3494 -0.8904  1.3691
  786TIP3    H2 2323   0.930   3.714   1.744  2.1307 -0.8087 -1.7206
  787TIP3   OH2 2324   4.677   5.821   0.760 -0.5810  0.0706 -0.1735
  787TIP3    H1 2325   4.745   5.885   0.779 -0.5744  0.3478 -1.0772
  787TIP3    H2 2326   4.621   5.864   0.696 -0.4864 -0.8856 -0.9215
  788TIP3   OH2 2327   3.462   3.592   2.510 -0.1260 -0.0898  0.1264
  788TIP3    H1 2328   3.558   3.596   2.505 -0.1450  0.8279  0.3625
  788TIP3    H2 2329   3.445   3.534   2.584  0.2140 -1.9143 -1.1338
  789TIP3   OH2 2330   3.455   4.544   4.622  0.0004 -0.5764  0.2773
  789TIP3    H1 2331   3.480   4.476   4.560 -0.7391 -0.4293 -0.1869
  789TIP3    H2 2332   3.444   4.498   4.705  1.0278 -0.7676  0.3298
  790TIP3   OH2 2333   5.915   1.496   1.259  0.6435  0.2913  0.1230
  790TIP3    H1 2334   5.942   1.571   1.313  0.7922 -0.3984  1.0193
  790TIP3    H2 2335   5.956   1.420   1.300 -1.5235 -0.6290  0.7683
  791TIP3   OH2 2336   4.283   4.201   4.992  0.5642 -0.5198 -0.1165
  791TIP3    H1 2337   4.189   4.214   4.980  0.7061  0.6169 -0.1022
  791TIP3    H2 2338   4.299   4.112   4.962 -0.4865 -0.6643 -0.2872
  792TIP3   OH2 2339   6.361   0.181   1.999 -0.0628 -0.2710  0.0899
  792TIP3    H1 2340   6.431   0.117   1.985 -0.0803  0.0462 -1.6541
  792TIP3    H2 2341   6.292   0.155   1.939  1.0443  2.9210 -2.9210
  793TIP3   OH2 2342   4.138   5.636   1.070  0.2736  0.2958  0.0003
  793TIP3    H1 2343   4.185   5.610   0.990 -0.5904 -0.5184 -0.2571
  793TIP3    H2 2344   4.045   5.630   1.047  0.0106  1.3547  0.6694
  794TIP3   OH2 2345   5.991   6.565   3.955  0.4157  0.3283 -0.5807
  794TIP3    H1 2346   5.994   6.590   4.048 -0.0476  0.0524 -0.4884
  794TIP3    H2 2347   5.930   6.628   3.916 -0.6299 -0.5344 -0.3789
  795TIP3   OH2 2348   0.014   4.458   2.507 -0.3502 -0.1321  0.1795
  795TIP3    H1 2349   0.054   4.536   2.470 -0.0284  0.0922  0.9805
  795TIP3    H2 2350   0.076   4.428   2.574 -0.1816 -1.4200 -0.5165
  796TIP3   OH2 2351   2.220   3.987   2.881  0.3561 -0.5783  0.1632
  796TIP3    H1 2352   2.183   3.927   2.817  0.5569 -0.2395 -0.2737
  796TIP3    H2 2353   2.149   4.002   2.944 -0.2307 -0.0131 -0.6093
  797TIP3   OH2 2354   5.647   6.781   3.687 -0.2926  0.7134  0.5130
  797TIP3    H1 2355   5.701   6.780   3.767 -0.3492 -0.8746  0.5550
  797TIP3    H2 2356   5.619   6.690   3.676 -1.5553  1.1969 -0.4760
  798TIP3   OH2 2357   0.274  -0.027   5.063  0.2863 -0.1554  0.3713
  798TIP3    H1 2358   0.335   0.046   5.058  0.2672 -0.2399 -1.6899
  798TIP3    H2 2359   0.198   0.001   5.012 -0.5235 -0.9018  1.1160
  799TIP3   OH2 2360   1.608   6.535   2.297 -0.1046  0.1095  0.0674
  799TIP3    H1 2361   1.598   6.474   2.370 -1.0148 -0.8347 -0.8118
  799TIP3    H2 2362   1.631   6.479   2.222 -0.5458  0.8991 -0.6694
  800TIP3   OH2 2363   3.619   5.376   5.286 -0.1251 -0.2917  0.6469
  800TIP3    H1 2364   3.588   5.444   5.346  0.4254  1.7635 -1.2479
  800TIP3    H2 2365   3.539   5.344   5.243 -0.1365  2.9214 -2.1162
  801TIP3   OH2 2366   4.266   6.461   0.231  0.4523 -0.3508  0.3664
  801TIP3    H1 2367   4.231   6.482   0.318 -1.0097  0.6936 -0.4239
  801TIP3    H2 2368   4.336   6.525   0.217 -1.4199  1.6453 -0.4542
  802TIP3   OH2 2369   6.419   1.877   1.275 -0.4427 -0.2837  0.3498
  802TIP3    H1 2370   6.439   1.819   1.348 -0.7382 -1.7631 -0.7215
  802TIP3    H2 2371   6.336   1.846   1.241 -0.2261  0.2862 -0.7397
  803TIP3   OH2 2372   2.693   5.306   3.585  0.3176  0.1454  0.0997
  803TIP3    H1 2373   2.700   5.213   3.607  0.8296  0.2148  0.2351
  803TIP3    H2 2374   2.621   5.310   3.523  0.1269 -0.3113  0.2831
  804TIP3   OH2 2375   3.755   4.452   2.677  0.1000  0.2833  0.2587
  804TIP3    H1 2376   3.715   4.426   2.760 -1.2683  1.1310 -0.1018
  804TIP3    H2 2377   3.738   4.379   2.617 -1.6239  0.9161 -0.0917
  805TIP3   OH2 2378   4.033   0.339   1.665  0.0479  0.4241 -0.2727
  805TIP3    H1 2379   4.091   0.371   1.735 -0.7389  0.1428  0.5258
  805TIP3    H2 2380   4.063   0.250   1.647 -0.2400  0.2179  0.2583
  806TIP3   OH2 2381   1.163   1.005   3.831  0.5070  0.1779 -0.9332
  806TIP3    H1 2382   1.114   1.010   3.749 -2.1352 -1.2806  0.4202
  806TIP3    H2 2383   1.171   1.096   3.860 -0.6875  0.5284 -1.6282
  807TIP3   OH2 2384   1.105   4.777   0.229  0.5275  0.1581  0.5824
  807TIP3    H1 2385   1.092   4.682   0.225 -0.6038  0.2915  0.5813
  807TIP3    H2 2386   1.038   4.812   0.169  2.3099  0.8771 -1.1015
  808TIP3   OH2 2387   5.811   0.605   5.224  0.2595 -0.4884  0.5302
  808TIP3    H1 2388   5.895   0.648   5.239  1.1395 -2.3257  1.0832
  808TIP3    H2 2389   5.781   0.581   5.312 -0.2885 -0.8573  0.2480
  809TIP3   OH2 2390   2.947   0.844   1.556 -0.5166 -0.6894  0.1811
  809TIP3    H1 2391   2.870   0.790   1.571  0.6445 -2.3370  0.4377
  809TIP3    H2 2392   2.931   0.923   1.608 -2.5901 -0.3846 -0.8110
  810TIP3   OH2 2393   2.648   5.953   1.214 -0.0773 -0.2675  0.8107
  810TIP3    H1 2394   2.689   6.039   1.217 -0.9053  0.2976 -1.8595
  810TIP3    H2 2395   2.713   5.894   1.254  1.8929  1.1069 -0.2376
  811TIP3   OH2 2396   3.812   0.998   1.210  0.5410 -0.1402  0.1862
  811TIP3    H1 2397   3.792   0.925   1.152 -0.0601 -0.3584  0.6502
  811TIP3    H2 2398   3.763   1.072   1.174 -0.7220 -0.5389  1.0045
  812TIP3   OH2 2399   2.974   2.838   0.599  0.1582 -0.1302  0.4569
  812TIP3    H1 2400   2.913   2.835   0.525 -0.1329 -0.2544  0.7011
  812TIP3    H2 2401   3.053   2.795   0.567 -0.0995 -0.5223  0.3394
  813TIP3   OH2 2402   3.793   4.185   2.580 -0.5018 -0.7586  0.0619
  813TIP3    H1 2403   3.787   4.098   2.620  0.7089 -1.1136 -0.4952
  813TIP3    H2 2404   3.872   4.182   2.526 -1.2484  0.2139 -1.1452
  814TIP3   OH2 2405   2.575   4.455   3.239  0.3066  0.3266  0.5526
  814TIP3    H1 2406   2.491   4.481   3.201  0.2429  0.6819  0.9192
  814TIP3    H2 2407   2.641   4.497   3.184  0.2144  0.8796  0.8570
  815TIP3   OH2 2408   0.802   2.810   0.545 -0.3740 -0.3337  0.3049
  815TIP3    H1 2409   0.736   2.822   0.614 -0.6859 -1.9710  0.3203
  815TIP3    H2 2410   0.872   2.760   0.587  1.2022  1.8195  0.4442
  816TIP3   OH2 2411   3.349   1.710   5.270 -0.3956  0.0855  0.2531
  816TIP3    H1 2412   3.310   1.624   5.288 -1.0244  0.1663 -0.6523
  816TIP3    H2 2413   3.325   1.763   5.346 -0.2438 -0.4512  0.6865
  817TIP3   OH2 2414   5.351   6.339   1.074  0.4428  0.2099  0.2701
  817TIP3    H1 2415   5.331   6.280   1.146  1.7176 -0.0110  0.4642
  817TIP3    H2 2416   5.278   6.401   1.073 -0.9795 -1.3909  0.0008
  818TIP3   OH2 2417   1.768   4.980   1.983 -0.2930  0.4246 -0.5648
  818TIP3    H1 2418   1.800   4.979   2.073 -0.5685 -1.3642 -0.4352
  818TIP3    H2 2419   1.802   5.061   1.945  2.9223 -0.4848  0.0794
  819TIP3   OH2 2420   5.302   4.377   0.477  0.3378 -0.1639  0.6863
  819TIP3    H1 2421   5.210   4.351   0.483  0.8624 -2.2901  0.0130
  819TIP3    H2 2422   5.311   4.445   0.544 -1.7977  0.3860  0.4975
  820TIP3   OH2 2423   0.193   0.572   1.081 -0.7858 -0.3674  0.0462
  820TIP3    H1 2424   0.140   0.522   1.019  0.4337 -1.4795 -0.1640
  820TIP3    H2 2425   0.281   0.570   1.043 -0.2999  0.1657  1.1119
  821TIP3   OH2 2426   2.718   6.180   3.699 -0.1562 -0.1629 -0.6393
  821TIP3    H1 2427   2.708   6.274   3.710 -0.6605 -0.0513 -1.8404
  821TIP3    H2 2428   2.683   6.142   3.779 -0.9221  0.6442 -0.5761
  822TIP3   OH2 2429   2.280   0.759   0.756 -0.3341 -0.0342 -0.7558
  822TIP3    H1 2430   2.199   0.722   0.789 -0.1678  1.3453  1.3501
  822TIP3    H2 2431   2.349   0.711   0.802 -0.1058  2.0784  1.2580
  823TIP3   OH2 2432   2.071   1.537   0.194  0.4644  0.1623  0.4100
  823TIP3    H1 2433   1.988   1.508   0.233  1.6035 -1.1085  2.0228
  823TIP3    H2 2434   2.066   1.632   0.197  0.1567  0.1364  3.0717
  824TIP3   OH2 2435   1.842   3.098   1.334 -0.3353  0.2484 -0.9284
  824TIP3    H1 2436   1.896   3.020   1.320  0.9080  1.1900 -1.5747
  824TIP3    H2 2437   1.820   3.127   1.245 -0.9737  0.5102 -0.6861
  825TIP3   OH2 2438   1.890   0.579   2.124  0.2066  0.1245  0.1854
  825TIP3    H1 2439   1.875   0.486   2.140 -2.7068  0.6586  1.1549
  825TIP3    H2 2440   1.880   0.589   2.029  0.6957 -0.5636  0.0598
  826TIP3   OH2 2441   4.400   4.705   5.203  0.1252 -0.3735 -0.0459
  826TIP3    H1 2442   4.376   4.700   5.296 -0.7418 -2.9922 -0.3341
  826TIP3    H2 2443   4.470   4.640   5.193  1.9476  1.5756 -0.8287
  827TIP3   OH2 2444   1.290   4.657   5.636 -0.1034 -0.7239 -0.7719
  827TIP3    H1 2445   1.291   4.633   5.544  0.4187 -0.9384 -0.7086
  827TIP3    H2 2446   1.218   4.606   5.674 -0.0825 -0.9056 -0.9805
  828TIP3   OH2 2447   0.042   5.015   0.140 -0.0959 -0.0808 -0.2891
  828TIP3    H1 2448   0.065   4.931   0.099 -0.7894 -0.5206  0.2143
  828TIP3    H2 2449   0.126   5.060   0.150  0.1882 -0.3268 -1.3841
  829TIP3   OH2 2450   1.772   3.054   0.785  0.3575 -0.0944 -0.4369
  829TIP3    H1 2451   1.774   3.149   0.797  1.7079 -0.0375 -0.9000
  829TIP3    H2 2452   1.679   3.032   0.780 -0.0560  0.9613  1.4019
  830TIP3   OH2 2453   7.034   3.324   0.241  0.0948  0.2777  0.1096
  830TIP3    H1 2454   6.945   3.337   0.209  0.0463 -2.4053 -1.1309
  830TIP3    H2 2455   7.089   3.325   0.162  1.0412  0.8761  0.7527
  831TIP3   OH2 2456   2.201   2.204   3.590  0.5565  0.2487  0.0496
  831TIP3    H1 2457   2.269   2.141   3.613  0.6787 -0.4302 -1.9463
  831TIP3    H2 2458   2.249   2.286   3.577  0.6045  0.4142  1.2180
  832TIP3   OH2 2459   0.676   0.042   0.105  0.3203 -0.1349 -0.0570
  832TIP3    H1 2460   0.666  -0.053   0.113  0.5803 -0.4820 -2.8236
  832TIP3    H2 2461   0.588   0.074   0.088  0.0436  0.3163  2.0554
  833TIP3   OH2 2462   2.375   4.391   0.033  0.3210 -0.1256  0.3773
  833TIP3    H1 2463   2.367   4.439  -0.049 -0.6895 -0.5014  0.2378
  833TIP3    H2 2464   2.292   4.407   0.078  0.6215 -0.4263  1.0454
  834TIP3   OH2 2465   6.182   3.381   2.101  0.9787  0.2560 -0.1846
  834TIP3    H1 2466   6.185   3.385   2.005  2.3072 -1.5689 -0.2697
  834TIP3    H2 2467   6.103   3.330   2.121  2.2512 -1.9830 -0.5013
  835TIP3   OH2 2468   1.108   3.172   2.884  0.1876 -0.0060 -0.4354
  835TIP3    H1 2469   1.094   3.081   2.856 -0.9584  0.0885 -0.2219
  835TIP3    H2 2470   1.114   3.220   2.802 -1.4755  0.0243 -0.5829
  836TIP3   OH2 2471   2.522   2.189   3.054  0.4213 -0.0223  0.1831
  836TIP3    H1 2472   2.587   2.256   3.078  1.3247 -0.8051 -0.0121
  836TIP3    H2 2473   2.545   2.113   3.108  1.3599 -1.2108 -1.7881
  837TIP3   OH2 2474   1.311   5.927   1.111 -0.1686 -0.1661  0.2784
  837TIP3    H1 2475   1.275   5.976   1.036 -0.6147  0.2662  0.7638
  837TIP3    H2 2476   1.406   5.930   1.098 -0.2259  0.1821 -0.0952
  838TIP3   OH2 2477   2.808   1.693   0.948 -0.2240 -0.5403  0.0063
  838TIP3    H1 2478   2.800   1.733   1.034  0.4516 -0.5970  0.0990
  838TIP3    H2 2479   2.718   1.689   0.915 -0.5793 -1.1453  0.9905
  839TIP3   OH2 2480   6.317   0.033   3.279 -0.0622 -0.0525 -0.3967
  839TIP3    H1 2481   6.298   0.048   3.186 -0.6924  0.3387 -0.2086
  839TIP3    H2 2482   6.304  -0.061   3.291 -0.9055  0.0411 -0.5013
  840TIP3   OH2 2483   4.146   1.376   3.960  0.2480  0.0053  0.2298
  840TIP3    H1 2484   4.141   1.447   3.896  0.9812 -0.7672 -0.7119
  840TIP3    H2 2485   4.231   1.387   4.002  1.4638 -1.6762 -1.6179
  841TIP3   OH2 2486   4.513   6.325   2.019 -0.8779 -0.0940  0.1315
  841TIP3    H1 2487   4.461   6.358   2.093 -1.5370  0.9813 -0.7729
  841TIP3    H2 2488   4.585   6.388   2.012 -0.9264 -0.0825 -0.2496
  842TIP3   OH2 2489   2.375   6.516   5.415  0.2752  0.5516 -0.5181
  842TIP3    H1 2490   2.305   6.581   5.417  1.2419  1.6171  0.2644
  842TIP3    H2 2491   2.450   6.562   5.377  1.0527 -0.0174  0.2776
  843TIP3   OH2 2492   0.671   5.607   3.265 -0.1465  0.6057 -0.2481
  843TIP3    H1 2493   0.661   5.578   3.355  0.8069 -1.6301 -0.7768
  843TIP3    H2 2494   0.749   5.662   3.266 -1.1048  1.9856  0.5449
  844TIP3   OH2 2495   3.765   4.080   0.433  0.4305 -0.5125 -0.3416
  844TIP3    H1 2496   3.742   4.166   0.399  0.6649 -0.5490 -0.6029
  844TIP3    H2 2497   3.682   4.041   0.460  0.2648 -0.4066 -0.6983
  845TIP3   OH2 2498   6.561   1.614   5.053 -0.0828  0.2297  0.1648
  845TIP3    H1 2499   6.655   1.602   5.042 -0.3826 -1.6899 -0.8312
  845TIP3    H2 2500   6.552   1.652   5.140  1.6902  2.5155 -0.5583
  846TIP3   OH2 2501   5.666   3.972   5.328  0.3780  0.3343 -0.1239
  846TIP3    H1 2502   5.665   3.885   5.288 -0.9299  0.0884  0.3959
  846TIP3    H2 2503   5.748   3.974   5.379  1.0151 -0.1252 -1.0963
  847TIP3   OH2 2504   3.695   4.891   2.642 -0.3234 -0.1595  0.2193
  847TIP3    H1 2505   3.784   4.882   2.677 -0.8349 -2.6214  1.0059
  847TIP3    H2 2506   3.708   4.906   2.548  0.9240 -0.6522  0.2980
  848TIP3   OH2 2507   6.838   3.233   2.806 -0.3150  0.2270 -0.4054
  848TIP3    H1 2508   6.859   3.255   2.716 -0.0879  1.5895 -0.0371
  848TIP3    H2 2509   6.922   3.234   2.852 -0.5604  0.6962  0.0483
  849TIP3   OH2 2510   5.156   2.505   0.272 -0.4477  0.0733 -0.0309
  849TIP3    H1 2511   5.164   2.579   0.211 -0.6830  0.3385  0.2614
  849TIP3    H2 2512   5.066   2.475   0.262 -0.4578  0.0556  0.1184
  850TIP3   OH2 2513   1.160   2.876   1.745  0.4452  0.1499  0.0953
  850TIP3    H1 2514   1.157   2.832   1.660  1.1367 -0.5389  0.4210
  850TIP3    H2 2515   1.069   2.903   1.761  0.1574 -0.4555 -0.4764
  851TIP3   OH2 2516   1.853   6.732   5.211 -0.8586 -0.0725  0.2372
  851TIP3    H1 2517   1.769   6.773   5.189 -0.2666  0.5962 -0.9050
  851TIP3    H2 2518   1.830   6.641   5.232 -1.6849 -0.4768 -2.0686
  852TIP3   OH2 2519   0.273   2.778   1.361  0.8601  0.4956 -0.2616
  852TIP3    H1 2520   0.248   2.769   1.269 -1.7237 -2.0667  0.5286
  852TIP3    H2 2521   0.354   2.727   1.368  0.9806  0.5527 -1.0780
  853TIP3   OH2 2522   4.633   0.343   4.720  0.2032  0.2301 -0.5975
  853TIP3    H1 2523   4.720   0.319   4.752  0.1602 -1.5277 -1.7130
  853TIP3    H2 2524   4.580   0.264   4.732 -1.4958  1.4884  0.7686
  854TIP3   OH2 2525   5.789   4.074   1.521 -0.4355  0.2094  0.5331
  854TIP3    H1 2526   5.787   4.147   1.458 -1.7544  1.1438  1.5964
  854TIP3    H2 2527   5.715   4.019   1.496  0.6294 -0.8679 -0.3389
  855TIP3   OH2 2528   2.808   3.720   0.919 -0.6205 -0.0702  0.4556
  855TIP3    H1 2529   2.799   3.789   0.853 -0.3258 -0.2148  0.2631
  855TIP3    H2 2530   2.718   3.693   0.938 -0.6587 -0.6991 -0.5862
  856TIP3   OH2 2531   0.832   5.280   5.347  0.2559 -0.0399  0.1658
  856TIP3    H1 2532   0.779   5.219   5.398 -0.7398  0.7632  0.1361
  856TIP3    H2 2533   0.779   5.296   5.268  0.7206  0.4883 -0.0404
  857TIP3   OH2 2534   5.998   0.316   0.215  0.4731 -0.3498 -0.2491
  857TIP3    H1 2535   6.053   0.251   0.170  0.0222  0.0935 -1.4858
  857TIP3    H2 2536   5.944   0.353   0.146  0.6025  1.2306  0.4555
  858TIP3   OH2 2537   4.426   2.361   3.567 -0.5730  0.4618 -0.0032
  858TIP3    H1 2538   4.433   2.284   3.624  2.2223  0.9226  0.4001
  858TIP3    H2 2539   4.435   2.436   3.626 -0.2153  1.0068 -0.7274
  859TIP3   OH2 2540   4.036   6.472   0.087  0.5091  1.0363 -0.0842
  859TIP3    H1 2541   4.068   6.562   0.077 -0.6890  1.5271  0.3171
  859TIP3    H2 2542   4.099   6.432   0.148 -0.4447  2.4560  1.9615
  860TIP3   OH2 2543   5.032   6.202   1.482  0.0628 -0.0158  0.4932
  860TIP3    H1 2544   4.956   6.192   1.424 -0.2728 -0.8103  1.0495
  860TIP3    H2 2545   5.088   6.265   1.437 -0.5484 -0.0287 -0.3191
  861TIP3   OH2 2546   5.807   3.513   0.367  0.6625  0.0942  0.3453
  861TIP3    H1 2547   5.787   3.490   0.276 -0.5302 -1.6614  0.9972
  861TIP3    H2 2548   5.846   3.433   0.404 -1.3108 -0.1933  2.0425
  862TIP3   OH2 2549   5.293   3.792   1.547  0.0563  0.4457 -0.4587
  862TIP3    H1 2550   5.231   3.858   1.516  0.3341  1.3596  0.8574
  862TIP3    H2 2551   5.334   3.832   1.623  1.9686 -0.2989 -1.0397
  863TIP3   OH2 2552   6.880   4.799   1.687  0.1244 -0.0282 -0.0593
  863TIP3    H1 2553   6.834   4.853   1.623  0.6446 -1.8461 -2.1213
  863TIP3    H2 2554   6.839   4.820   1.771 -2.7798  0.2503 -1.4067
  864TIP3   OH2 2555   2.482   1.175   4.609  0.2655  0.0466 -0.2133
  864TIP3    H1 2556   2.496   1.136   4.695 -0.5014  0.6415  0.1865
  864TIP3    H2 2557   2.570   1.177   4.569  0.3322 -2.1762 -0.3113
  865TIP3   OH2 2558   4.703   3.901   3.918 -0.1375 -0.3908  0.3796
  865TIP3    H1 2559   4.684   3.808   3.932  0.8237 -0.4233  1.6256
  865TIP3    H2 2560   4.798   3.905   3.907 -0.3938  0.1659 -2.3370
  866TIP3   OH2 2561   1.416   5.527   4.490 -0.0704 -0.1833 -0.2805
  866TIP3    H1 2562   1.448   5.512   4.579 -0.2555 -1.3674 -0.4032
  866TIP3    H2 2563   1.331   5.571   4.503 -2.7877 -4.9440  0.4416
  867TIP3   OH2 2564   5.847   0.880   4.936 -0.2628  0.1448  0.0305
  867TIP3    H1 2565   5.921   0.837   4.980 -0.3368  1.3430  1.4096
  867TIP3    H2 2566   5.834   0.961   4.985 -2.9691 -0.3581  0.3052
  868TIP3   OH2 2567   3.905   0.167   0.068  0.2641  0.1531 -0.2733
  868TIP3    H1 2568   3.913   0.220  -0.011 -0.2454  1.9400  0.8112
  868TIP3    H2 2569   3.814   0.180   0.096  0.7464  0.4913  1.2141
  869TIP3   OH2 2570   2.181   5.650   1.952 -0.1667 -0.3531 -0.2176
  869TIP3    H1 2571   2.088   5.658   1.934  0.1395  2.2064 -0.9902
  869TIP3    H2 2572   2.221   5.634   1.866  0.2137 -0.4351 -0.0304
  870TIP3   OH2 2573   5.918   5.879   0.121 -0.0919 -0.0314  0.2419
  870TIP3    H1 2574   5.917   5.952   0.059  2.5362  0.7644  0.9999
  870TIP3    H2 2575   5.905   5.920   0.206 -0.6967 -0.7471  0.5043
  871TIP3   OH2 2576   4.114   3.789   2.383  0.0318  0.3569 -0.2878
  871TIP3    H1 2577   4.027   3.778   2.343 -0.0661 -0.6480  0.1596
  871TIP3    H2 2578   4.175   3.752   2.319  0.0095 -0.0182 -0.0933
  872TIP3   OH2 2579   6.589   5.835   1.580  0.0735 -0.2972  0.0314
  872TIP3    H1 2580   6.640   5.902   1.627 -1.0914  0.5957  0.0588
  872TIP3    H2 2581   6.645   5.812   1.505  0.9259 -0.0190  0.5677
  873TIP3   OH2 2582   2.319   3.135   5.193  0.0740 -0.2194 -0.2603
  873TIP3    H1 2583   2.295   3.081   5.117  0.1561 -0.4870 -0.0963
  873TIP3    H2 2584   2.240   3.183   5.214 -0.4503 -1.3688  0.5044
  874TIP3   OH2 2585   5.564   6.322   2.644  0.5411 -0.1234 -0.0396
  874TIP3    H1 2586   5.518   6.321   2.728  1.5180 -0.2315  0.5056
  874TIP3    H2 2587   5.537   6.405   2.604  0.8226  0.3911  0.8127
  875TIP3   OH2 2588   4.110   0.393   0.990  0.4612  0.8430 -0.2796
  875TIP3    H1 2589   4.097   0.313   1.040  1.2482  1.6463  1.2635
  875TIP3    H2 2590   4.024   0.436   0.990  0.2922  0.5049 -0.2178
  876TIP3   OH2 2591   4.839   1.190   4.397 -0.0922 -0.5402  0.8365
  876TIP3    H1 2592   4.753   1.153   4.417 -0.2387 -0.8213 -0.2790
  876TIP3    H2 2593   4.844   1.190   4.302 -0.2727  2.7857  0.7286
  877TIP3   OH2 2594   4.161   0.200   4.941  0.0311 -0.1526 -0.3666
  877TIP3    H1 2595   4.163   0.236   4.852 -0.4370 -0.6670 -0.5906
  877TIP3    H2 2596   4.080   0.235   4.979  0.5722  0.6261  0.1060
  878TIP3   OH2 2597   4.943   2.900   4.562  0.4545  0.2398 -0.3056
  878TIP3    H1 2598   4.939   2.938   4.650 -1.5320 -3.3808  1.4560
  878TIP3    H2 2599   5.032   2.867   4.554  0.3802 -0.3371  0.9163
  879TIP3   OH2 2600   5.957   5.387   4.056  0.0766  0.0861  0.2378
  879TIP3    H1 2601   5.985   5.296   4.071  1.1096  0.4976  0.9133
  879TIP3    H2 2602   6.022   5.440   4.102 -0.5895  1.1729 -0.0367
  880TIP3   OH2 2603   6.123   0.827   4.355 -0.2589  0.3373  0.0456
  880TIP3    H1 2604   6.069   0.905   4.338 -2.0013 -0.9779 -0.8799
  880TIP3    H2 2605   6.118   0.778   4.273 -0.1883 -1.3070  1.0022
  881TIP3   OH2 2606   5.254   1.356   2.287  0.3287  0.1340  0.6866
  881TIP3    H1 2607   5.200   1.412   2.231  2.9691  2.7450  0.5029
  881TIP3    H2 2608   5.200   1.342   2.365 -1.1331  1.5092  0.0081
  882TIP3   OH2 2609   1.305   0.729   3.623  0.1971  0.2454 -0.2959
  882TIP3    H1 2610   1.335   0.762   3.539 -0.3126  1.0289 -0.1880
  882TIP3    H2 2611   1.339   0.793   3.687 -0.3495  0.2690 -0.0235
  883TIP3   OH2 2612   1.225   4.398   4.356  0.7522 -0.7216  0.1266
  883TIP3    H1 2613   1.318   4.390   4.333  1.3304 -0.6946  2.2135
  883TIP3    H2 2614   1.225   4.404   4.451 -1.3832 -0.2635  0.1432
  884TIP3   OH2 2615   3.027   5.911   2.512 -0.3017  0.2937  0.3537
  884TIP3    H1 2616   3.038   6.002   2.542  1.1996  0.1149  0.4315
  884TIP3    H2 2617   3.079   5.860   2.574  0.7454 -0.3643 -1.0198
  885TIP3   OH2 2618   6.149   0.671   4.790 -0.0678  0.3690  0.5849
  885TIP3    H1 2619   6.171   0.758   4.756 -2.1706  0.1970 -1.4353
  885TIP3    H2 2620   6.144   0.684   4.885 -1.5757  2.8204  0.2691
  886TIP3   OH2 2621   1.634   2.109   0.453  0.1771  0.0344 -0.2731
  886TIP3    H1 2622   1.587   2.027   0.467  1.2067 -0.4644  0.4148
  886TIP3    H2 2623   1.624   2.128   0.360  1.9551 -2.1687 -0.9879
  887TIP3   OH2 2624   3.313   3.900   0.755 -0.1309 -0.8487  0.3069
  887TIP3    H1 2625   3.296   3.842   0.681 -1.8822 -0.3332  0.2532
  887TIP3    H2 2626   3.378   3.963   0.723 -1.0924 -0.4492 -0.9106
  888TIP3   OH2 2627   5.372   3.236   2.349  0.1636 -0.2515 -0.1962
  888TIP3    H1 2628   5.395   3.257   2.259  1.5517 -0.2296  0.1375
  888TIP3    H2 2629   5.424   3.297   2.402 -1.1824  0.2421  0.6136
  889TIP3   OH2 2630   2.706   6.440   3.781  0.5372 -0.3689  0.0580
  889TIP3    H1 2631   2.726   6.501   3.851  0.2920 -1.0853  0.7671
  889TIP3    H2 2632   2.616   6.413   3.797  0.0187  0.4733 -1.3183
  890TIP3   OH2 2633   5.412   4.162   3.070  0.0560 -0.0135  0.2354
  890TIP3    H1 2634   5.374   4.250   3.064  0.5548  0.2091  0.2570
  890TIP3    H2 2635   5.503   4.174   3.041  0.3874 -0.3511  1.1191
  891TIP3   OH2 2636   1.520   3.208   5.033 -0.1128  0.0198 -0.5561
  891TIP3    H1 2637   1.599   3.179   4.989  0.5786 -0.6910  1.0866
  891TIP3    H2 2638   1.522   3.304   5.026  0.4906 -0.0354 -1.1913
  892TIP3   OH2 2639   6.097   3.942   0.443  0.3556  0.2393 -0.1114
  892TIP3    H1 2640   6.190   3.955   0.462  1.0469 -2.4146 -1.2047
  892TIP3    H2 2641   6.088   3.847   0.431 -2.9161  0.1419  1.9151
  893TIP3   OH2 2642   5.680   0.360   2.027  0.6579  0.3025 -0.7993
  893TIP3    H1 2643   5.749   0.301   1.997  0.1534  0.0856 -1.5676
  893TIP3    H2 2644   5.604   0.304   2.041  0.2964  0.6966 -1.1234
  894TIP3   OH2 2645   5.785   5.071   4.025 -0.1190  0.5988  0.3140
  894TIP3    H1 2646   5.783   4.981   3.996 -0.7280  0.5358  0.5278
  894TIP3    H2 2647   5.731   5.118   3.962 -2.8293  0.1809  2.1704
  895TIP3   OH2 2648   3.955   3.448   5.631  0.1049 -0.2084  0.2408
  895TIP3    H1 2649   4.019   3.493   5.687  0.2556 -0.4602  0.2693
  895TIP3    H2 2650   3.945   3.361   5.671 -1.1919  0.2406  0.9886
  896TIP3   OH2 2651   2.475   1.191   1.973 -0.5914  0.0408  0.3371
  896TIP3    H1 2652   2.441   1.122   1.917  0.5814 -0.2448 -0.0659
  896TIP3    H2 2653   2.463   1.272   1.923  0.0911 -0.1645 -0.1739
  897TIP3   OH2 2654   1.612   4.142   0.477 -0.2232  0.2410 -0.2818
  897TIP3    H1 2655   1.692   4.097   0.505 -0.6581 -0.3330  0.0430
  897TIP3    H2 2656   1.609   4.221   0.531 -1.1560 -0.9434  1.4588
  898TIP3   OH2 2657   7.160   4.402   5.172  0.3336 -0.5930  0.2814
  898TIP3    H1 2658   7.106   4.396   5.251  0.2324  0.5511  0.3128
  898TIP3    H2 2659   7.110   4.354   5.106  0.2828 -1.3142  0.8241
  899TIP3   OH2 2660   1.467   4.960   1.042  0.0616 -0.4414  0.3261
  899TIP3    H1 2661   1.480   4.895   1.111  1.0879 -0.1066  0.4680
  899TIP3    H2 2662   1.431   4.911   0.968  0.5481 -1.1166  0.5301
  900TIP3   OH2 2663   1.495   5.586   2.053  0.2420 -0.3679  0.2108
  900TIP3    H1 2664   1.549   5.656   2.016 -1.1464  0.3914 -0.4705
  900TIP3    H2 2665   1.533   5.506   2.017  1.8111  0.0082  0.9365
  901TIP3   OH2 2666   4.125   6.216   4.427  0.3522 -0.3726  0.5220
  901TIP3    H1 2667   4.094   6.284   4.486 -1.7254  0.2399 -1.1391
  901TIP3    H2 2668   4.212   6.246   4.401 -0.1618  1.2352  0.5074
  902TIP3   OH2 2669   0.890   3.934   5.240 -0.0322  0.2627  0.0499
  902TIP3    H1 2670   0.919   3.961   5.153  0.3317 -2.1398 -0.6517
  902TIP3    H2 2671   0.842   3.853   5.225 -0.8163  0.3028  2.0070
  903TIP3   OH2 2672   6.849   1.534   1.531  0.0132 -0.1958  0.4025
  903TIP3    H1 2673   6.944   1.527   1.528  0.1235 -0.3202  2.9008
  903TIP3    H2 2674   6.830   1.587   1.608 -1.9589  0.1228 -0.2290
  904TIP3   OH2 2675   3.545   4.225   5.241  0.0503 -0.2197 -0.0802
  904TIP3    H1 2676   3.571   4.245   5.330 -1.1779 -0.6483  0.3922
  904TIP3    H2 2677   3.628   4.212   5.194  0.7098  0.3881  0.8937
  905TIP3   OH2 2678   4.393   2.158   5.371 -0.4007  0.3341  0.1750
  905TIP3    H1 2679   4.478   2.128   5.404 -0.5009 -0.8619 -0.6307
  905TIP3    H2 2680   4.344   2.182   5.450  0.8955  1.6710  0.6215
  906TIP3   OH2 2681   0.038   4.557   3.570 -0.1285 -0.2336 -0.2549
  906TIP3    H1 2682  -0.039   4.506   3.547 -1.4338  0.4345  2.3021
  906TIP3    H2 2683   0.032   4.569   3.665  2.8567  0.3009 -0.0320
  907TIP3   OH2 2684   5.777   0.943   3.344  0.0822 -0.1170  0.4911
  907TIP3    H1 2685   5.787   0.973   3.254  0.9761 -1.7237  0.0132
  907TIP3    H2 2686   5.748   0.852   3.336  0.2797 -0.3205  1.8220
  908TIP3   OH2 2687   5.276   3.618   0.558  0.2923  0.0363 -0.2699
  908TIP3    H1 2688   5.210   3.570   0.508 -0.5802  1.2233 -0.3102
  908TIP3    H2 2689   5.356   3.611   0.506 -0.7200  1.7119 -2.1836
  909TIP3   OH2 2690   5.020   0.744   4.107 -0.0427  0.2908 -1.0404
  909TIP3    H1 2691   5.037   0.785   4.022  0.3046  0.8066 -0.7275
  909TIP3    H2 2692   4.975   0.663   4.085  0.1651  0.3501 -1.7269
  910TIP3   OH2 2693   6.686   4.785   5.044 -0.1770  0.3154 -0.4230
  910TIP3    H1 2694   6.666   4.757   5.134  1.9250  0.9539  0.3056
  910TIP3    H2 2695   6.754   4.725   5.015  0.7133  1.4285 -0.7393
  911TIP3   OH2 2696   3.398   5.908   0.175 -0.4764  0.1515  0.0373
  911TIP3    H1 2697   3.421   5.871   0.260 -3.1083 -0.4489  0.5768
  911TIP3    H2 2698   3.419   5.840   0.111  2.8111  1.1052 -0.0725
  912TIP3   OH2 2699   0.216   0.254   2.073 -0.0487  0.2400 -0.0195
  912TIP3    H1 2700   0.258   0.249   1.987  0.3342  0.1129  0.1698
  912TIP3    H2 2701   0.133   0.298   2.057  1.4245  3.2797  0.0519
  913TIP3   OH2 2702   5.689   4.281   0.503 -0.1892 -0.2671 -0.2529
  913TIP3    H1 2703   5.753   4.348   0.524 -0.1216 -0.3530 -0.1857
  913TIP3    H2 2704   5.683   4.227   0.582 -1.1279  0.3677  0.1248
  914TIP3   OH2 2705   3.978   4.220   2.370 -0.3456  0.3830 -0.1832
  914TIP3    H1 2706   3.908   4.160   2.346 -0.0500 -0.3064  0.6071
  914TIP3    H2 2707   4.051   4.195   2.312  0.6457 -1.8413  1.8080
  915TIP3   OH2 2708   3.294   5.799   4.419 -0.2788  0.3419 -0.3053
  915TIP3    H1 2709   3.287   5.846   4.502  0.5265  2.3139 -1.2816
  915TIP3    H2 2710   3.343   5.720   4.440 -1.9201 -0.2951  1.4603
  916TIP3   OH2 2711   2.877   2.977   1.169 -0.1922  0.2782  0.6930
  916TIP3    H1 2712   2.819   2.917   1.122  0.3949  0.5218 -0.3586
  916TIP3    H2 2713   2.850   3.064   1.138  1.1384  0.3638 -0.2983
  917TIP3   OH2 2714   6.742   2.535   2.749  0.2134  0.3196  0.0707
  917TIP3    H1 2715   6.780   2.468   2.692 -2.8269 -1.1774 -0.3829
  917TIP3    H2 2716   6.753   2.500   2.837  1.8697  1.0180  0.1723
  918TIP3   OH2 2717   5.967   3.721   4.638  0.3340 -0.6190 -0.2889
  918TIP3    H1 2718   5.911   3.760   4.571 -0.4826 -0.5397  0.4286
  918TIP3    H2 2719   5.983   3.791   4.701  1.6472 -0.5032 -0.7217
  919TIP3   OH2 2720   0.194   4.426   3.043 -0.3284  0.4122  0.2867
  919TIP3    H1 2721   0.206   4.520   3.058 -4.3258  1.1847 -0.0980
  919TIP3    H2 2722   0.255   4.384   3.103  2.2664  3.1663 -0.1664
  920TIP3   OH2 2723   6.912   6.180   2.239 -0.1081  0.1090 -0.3164
  920TIP3    H1 2724   6.953   6.120   2.301 -0.9142 -0.5167 -0.3738
  920TIP3    H2 2725   6.935   6.267   2.271 -0.7196 -0.1973  1.0224
  921TIP3   OH2 2726   6.935   0.716   5.814 -0.5375  0.2204  0.0199
  921TIP3    H1 2727   6.898   0.657   5.880 -1.7203  1.5351  0.5661
  921TIP3    H2 2728   6.870   0.718   5.744 -0.9803  1.5878  0.4339
  922TIP3   OH2 2729   1.492   0.836   2.925 -0.0913 -0.0155 -0.0222
  922TIP3    H1 2730   1.397   0.847   2.925 -0.0932 -0.0386 -0.6982
  922TIP3    H2 2731   1.507   0.750   2.885  0.1938 -0.2201  0.5117
  923TIP3   OH2 2732   3.252   0.614   1.184  0.0464  0.3103 -0.2607
  923TIP3    H1 2733   3.234   0.542   1.124  2.3463 -0.6128  0.0583
  923TIP3    H2 2734   3.218   0.584   1.268 -1.4381  0.7909 -0.6595
  924TIP3   OH2 2735   1.518   3.824   2.996 -0.2344 -0.0965  0.3907
  924TIP3    H1 2736   1.427   3.837   3.022  0.1140  1.3652  0.9431
  924TIP3    H2 2737   1.514   3.818   2.900 -0.8685  0.2819  0.3883
  925TIP3   OH2 2738   3.874   4.033   2.813 -0.1595 -0.6402  0.2804
  925TIP3    H1 2739   3.941   4.006   2.750 -0.3157 -0.9391  0.2387
  925TIP3    H2 2740   3.833   3.951   2.841 -1.3235 -0.3846 -0.6092
  926TIP3   OH2 2741   2.881   0.410   5.138  0.8975 -0.0246 -0.6561
  926TIP3    H1 2742   2.904   0.345   5.072 -0.1783 -0.1987 -0.8703
  926TIP3    H2 2743   2.936   0.486   5.117  2.7519 -1.0880  0.0693
  927TIP3   OH2 2744   1.136   1.679   1.468 -0.2569 -0.4019 -0.0819
  927TIP3    H1 2745   1.231   1.693   1.463 -0.4360  1.0005  0.0287
  927TIP3    H2 2746   1.121   1.643   1.555 -0.0463  1.7805  0.9367
  928TIP3   OH2 2747   0.716   4.578   3.057 -0.5457  0.5443 -0.0834
  928TIP3    H1 2748   0.711   4.488   3.024 -0.0930  0.5735 -0.2314
  928TIP3    H2 2749   0.804   4.586   3.092  1.0977  2.2829 -4.0534
  929TIP3   OH2 2750   1.767   4.025   2.485  0.2913 -0.2207 -0.3600
  929TIP3    H1 2751   1.831   4.093   2.464  1.2477 -1.0498 -0.1974
  929TIP3    H2 2752   1.713   4.063   2.554  0.7069  0.4215 -0.3808
  930TIP3   OH2 2753   4.466   5.784   5.717 -0.4661  0.7167  0.0528
  930TIP3    H1 2754   4.404   5.713   5.699  1.1882 -0.2834 -2.1791
  930TIP3    H2 2755   4.423   5.862   5.684 -1.0749  0.2679 -0.2334
  931TIP3   OH2 2756   4.455   5.443   2.713 -0.2727 -0.0403  1.1596
  931TIP3    H1 2757   4.534   5.393   2.733  0.9455  1.6750  0.9061
  931TIP3    H2 2758   4.399   5.382   2.665  1.3366 -1.0323  0.4539
  932TIP3   OH2 2759   0.936   4.241   4.825 -0.6771  0.4785 -0.0071
  932TIP3    H1 2760   0.951   4.211   4.736 -1.1737 -2.3438  0.7574
  932TIP3    H2 2761   1.022   4.236   4.867 -0.7841 -0.0011  0.1561
  933TIP3   OH2 2762   0.039   2.588   4.234 -0.2549 -0.2792 -0.1317
  933TIP3    H1 2763   0.098   2.590   4.309 -0.1237 -1.6373 -0.1795
  933TIP3    H2 2764   0.092   2.553   4.162 -1.1664 -1.8754 -0.0839
  934TIP3   OH2 2765   6.088   0.998   0.944  0.0158  0.1079  0.9238
  934TIP3    H1 2766   6.063   1.061   0.876  0.7622 -1.8093 -1.2676
  934TIP3    H2 2767   6.005   0.960   0.973 -0.2667  0.3686  0.4755
  935TIP3   OH2 2768   2.581   6.723   3.650 -0.3169  0.0619  0.2537
  935TIP3    H1 2769   2.612   6.636   3.624 -2.8937 -1.0070  0.3700
  935TIP3    H2 2770   2.632   6.784   3.597 -2.4290 -1.7911 -4.5155
  936TIP3   OH2 2771   7.179   2.650   3.535  0.3910  0.1634 -0.5188
  936TIP3    H1 2772   7.095   2.620   3.569  1.6271 -1.7347  1.0792
  936TIP3    H2 2773   7.173   2.635   3.441 -1.5497  1.4447 -0.6481
  937TIP3   OH2 2774   3.250   3.365   5.738  0.2275  0.3093 -0.0067
  937TIP3    H1 2775   3.283   3.289   5.691  0.4547 -0.1562  0.8985
  937TIP3    H2 2776   3.242   3.337   5.829  0.0154  1.2694  0.2913
  938TIP3   OH2 2777   0.291   4.472   3.436  0.9013  0.1364 -0.4829
  938TIP3    H1 2778   0.230   4.509   3.500 -0.9034  0.3124 -2.2334
  938TIP3    H2 2779   0.255   4.386   3.415  0.3584  0.8337 -2.6316
  939TIP3   OH2 2780   0.704   4.169   3.516  0.2360 -0.2666  0.6204
  939TIP3    H1 2781   0.670   4.234   3.455 -0.1620 -0.4952  0.5963
  939TIP3    H2 2782   0.637   4.101   3.519  0.0652 -0.0782  1.5992
  940TIP3   OH2 2783   4.503   0.405   1.205 -0.1446  0.0016  0.2873
  940TIP3    H1 2784   4.480   0.313   1.193  0.4962 -0.2373  0.8341
  940TIP3    H2 2785   4.599   0.405   1.213 -0.1105  0.7535 -0.0112
  941TIP3   OH2 2786   7.091   3.282   1.132  0.0013 -0.2988  0.8867
  941TIP3    H1 2787   7.092   3.378   1.135 -1.1195 -0.2900  1.8397
  941TIP3    H2 2788   7.155   3.259   1.065  0.8766  1.0952  1.2079
  942TIP3   OH2 2789   5.210   1.335   5.259  0.0314 -0.8046 -0.3090
  942TIP3    H1 2790   5.290   1.325   5.207  0.3676 -0.8226  0.2083
  942TIP3    H2 2791   5.173   1.418   5.229  0.1981 -0.8377 -0.6107
  943TIP3   OH2 2792   4.069   4.855   1.241  0.0753 -0.0443 -0.2267
  943TIP3    H1 2793   4.060   4.780   1.183 -3.3145  0.2056 -0.2421
  943TIP3    H2 2794   4.022   4.830   1.321 -0.1188  1.6257  0.2239
  944TIP3   OH2 2795   7.062   0.979   3.190 -0.4223 -0.6498  0.8783
  944TIP3    H1 2796   7.051   1.062   3.237 -1.4788 -1.2087  1.6693
  944TIP3    H2 2797   7.147   0.987   3.147  0.0787  0.3368  1.9861
  945TIP3   OH2 2798   4.082   5.157   1.362  0.0953  0.3047 -0.1730
  945TIP3    H1 2799   4.141   5.232   1.372  0.6298  0.0386 -1.2136
  945TIP3    H2 2800   4.029   5.157   1.442  3.0853 -0.8493  1.9683
  946TIP3   OH2 2801   6.925   5.980   1.875  0.6123 -0.0741 -0.1571
  946TIP3    H1 2802   6.938   5.894   1.914  0.8086  1.0708  2.5681
  946TIP3    H2 2803   7.006   6.028   1.894 -0.1535  1.2310 -0.0191
  947TIP3   OH2 2804   6.120   0.746   3.908 -0.2392  0.5316 -0.0582
  947TIP3    H1 2805   6.041   0.693   3.909 -0.3701  0.7104 -0.5046
  947TIP3    H2 2806   6.158   0.735   3.995 -0.8866  0.6456  0.2447
  948TIP3   OH2 2807   3.552   3.130   4.079 -0.0322 -0.8159 -0.0604
  948TIP3    H1 2808   3.539   3.046   4.035  1.4162 -1.0458 -0.1106
  948TIP3    H2 2809   3.545   3.109   4.172 -2.7996 -0.3831 -0.1038
  949TIP3   OH2 2810   3.745   4.479   3.937 -0.2960 -0.3367  0.1104
  949TIP3    H1 2811   3.740   4.488   4.032 -0.0597  0.7062  0.0387
  949TIP3    H2 2812   3.697   4.555   3.903  1.2814  0.4040 -0.5794
  950TIP3   OH2 2813   2.177   3.087   0.465 -0.0861  0.8915 -0.0949
  950TIP3    H1 2814   2.088   3.092   0.500 -1.3108  0.9365 -2.9148
  950TIP3    H2 2815   2.226   3.154   0.514 -2.2387  2.5930 -0.0915
  951TIP3   OH2 2816   0.114   4.338   1.583 -0.2943 -0.3275  0.0751
  951TIP3    H1 2817   0.149   4.372   1.665 -1.6584 -0.6234  0.8027
  951TIP3    H2 2818   0.112   4.243   1.594  0.4572 -0.4549 -0.7100
  952TIP3   OH2 2819   0.068   5.900   4.840  0.7964 -0.2072  0.8458
  952TIP3    H1 2820   0.013   5.908   4.917  0.9769 -0.7114  1.0277
  952TIP3    H2 2821   0.074   5.806   4.823  0.2390 -0.0738 -0.1585
  953TIP3   OH2 2822   0.343   5.943   3.837  0.3090 -0.1901  0.0006
  953TIP3    H1 2823   0.305   5.971   3.754 -0.8179 -0.2365  0.4820
  953TIP3    H2 2824   0.402   5.871   3.814  0.8242  0.4885 -0.8722
  954TIP3   OH2 2825   3.906   2.122   5.703 -0.1681  0.3298 -0.2159
  954TIP3    H1 2826   3.965   2.085   5.768 -0.8889 -0.6230 -0.0882
  954TIP3    H2 2827   3.957   2.193   5.663 -0.2197  1.9496  2.3658
  955TIP3   OH2 2828   2.299   3.077   3.245  0.0692  0.1772  0.2724
  955TIP3    H1 2829   2.210   3.041   3.252 -0.3172  0.9497 -0.4795
  955TIP3    H2 2830   2.285   3.170   3.226  1.0462  0.5457  1.3102
  956TIP3   OH2 2831   4.189   1.584   5.402 -0.5862 -0.4818  0.6394
  956TIP3    H1 2832   4.107   1.632   5.390  1.3216  3.9268  2.6358
  956TIP3    H2 2833   4.179   1.539   5.486 -1.2219 -0.5959  0.5026
  957TIP3   OH2 2834   5.449   4.499   2.053 -0.0134  0.2311 -0.0627
  957TIP3    H1 2835   5.467   4.592   2.065  2.0244  0.1078 -1.7036
  957TIP3    H2 2836   5.397   4.494   1.973 -2.5427  0.0706  1.4479
  958TIP3   OH2 2837   2.555   3.421   1.941  0.0942  0.5406  0.3212
  958TIP3    H1 2838   2.629   3.465   1.982  0.2012  0.9869 -0.3390
  958TIP3    H2 2839   2.478   3.464   1.979  0.1850  0.7191  0.3032
  959TIP3   OH2 2840   5.793   6.572   0.356 -0.2380 -0.2206 -0.2295
  959TIP3    H1 2841   5.773   6.663   0.376  1.3893 -0.3579  2.4386
  959TIP3    H2 2842   5.874   6.576   0.305  0.7966 -0.1721  1.3510
  960TIP3   OH2 2843   2.873   3.531   5.055  0.2139  0.1334 -0.0636
  960TIP3    H1 2844   2.795   3.508   5.005 -0.4003  0.5519  0.6740
  960TIP3    H2 2845   2.852   3.505   5.145  0.8153  0.5089  0.1914
  961TIP3   OH2 2846   6.701   0.817   4.691  0.1657 -0.5519  0.7131
  961TIP3    H1 2847   6.751   0.872   4.751  0.4655  0.7844 -0.6838
  961TIP3    H2 2848   6.610   0.831   4.715  0.2664  0.2403  0.6553
  962TIP3   OH2 2849   0.571   5.024   4.664 -0.0780  0.7311  0.2419
  962TIP3    H1 2850   0.656   4.988   4.638  0.8061  1.6602  1.6838
  962TIP3    H2 2851   0.555   4.987   4.751 -0.9698  0.8799  0.1480
  963TIP3   OH2 2852   5.952   4.787   1.460 -0.2466  0.0079 -0.0781
  963TIP3    H1 2853   6.035   4.744   1.439 -0.3630 -0.1141 -0.3036
  963TIP3    H2 2854   5.960   4.873   1.420 -0.8251 -0.5438 -1.4660
  964TIP3   OH2 2855   4.947   1.999   5.188 -0.0497 -0.2932  0.2514
  964TIP3    H1 2856   4.855   2.018   5.210 -0.7386 -1.3181 -1.5631
  964TIP3    H2 2857   4.973   2.070   5.130  0.6792  0.5558  1.5583
  965TIP3   OH2 2858   2.926   5.735   5.535 -0.9617  0.7506  0.1626
  965TIP3    H1 2859   2.915   5.733   5.630  0.0442  2.6140  0.3776
  965TIP3    H2 2860   2.991   5.667   5.516 -2.5378 -0.9355  0.5187
  966TIP3   OH2 2861   1.093   3.924   4.743  0.3340  0.5624  0.0976
  966TIP3    H1 2862   1.185   3.943   4.761  0.0861  0.5798  1.4470
  966TIP3    H2 2863   1.090   3.829   4.729  0.7234  0.7167 -1.1479
  967TIP3   OH2 2864   6.998   0.640   2.589  0.1651  0.3672 -0.1894
  967TIP3    H1 2865   7.062   0.595   2.645 -0.3755 -0.8788 -0.5403
  967TIP3    H2 2866   7.045   0.717   2.556  1.3701 -0.3229 -0.1517
  968TIP3   OH2 2867   0.641   0.206   4.735 -0.0267 -0.4571 -0.6038
  968TIP3    H1 2868   0.667   0.293   4.705  0.7754 -0.0540  1.1360
  968TIP3    H2 2869   0.628   0.156   4.655  0.1887  1.0693 -1.6281
  969TIP3   OH2 2870   5.166   4.738   3.525 -0.7448  0.4324  0.4853
  969TIP3    H1 2871   5.077   4.772   3.512 -0.7391 -0.0469 -1.0546
  969TIP3    H2 2872   5.197   4.721   3.436 -0.0688 -1.8477  1.1052
  970TIP3   OH2 2873   5.402   2.409   0.171  0.0916  0.0096 -0.1652
  970TIP3    H1 2874   5.407   2.483   0.111 -0.6743  0.2714  0.0834
  970TIP3    H2 2875   5.311   2.407   0.200  0.8972  1.4043  2.8991
  971TIP3   OH2 2876   4.769   5.518   1.659  0.2319 -0.1844 -0.2007
  971TIP3    H1 2877   4.793   5.446   1.718 -2.2019 -3.1860 -2.5223
  971TIP3    H2 2878   4.684   5.548   1.691 -0.4396 -0.8734 -1.2623
  972TIP3   OH2 2879   3.160   6.030   4.283 -0.2910  0.2452  0.0739
  972TIP3    H1 2880   3.065   6.020   4.284 -0.1935 -0.7626  0.6146
  972TIP3    H2 2881   3.192   5.962   4.341  0.8041  0.1456 -0.6081
  973TIP3   OH2 2882   3.930   2.076   2.130  0.7956 -0.0331  0.5753
  973TIP3    H1 2883   3.837   2.100   2.125  0.8734  0.1029 -0.4081
  973TIP3    H2 2884   3.933   2.009   2.198  0.1353  0.6795  1.3429
  974TIP3   OH2 2885   4.744   5.567   2.804  0.0764  0.5351  0.6114
  974TIP3    H1 2886   4.823   5.616   2.779  1.0869 -0.2608  2.1037
  974TIP3    H2 2887   4.672   5.625   2.781  1.1278  1.5988 -0.1238
  975TIP3   OH2 2888   3.498   4.581   2.759  0.0612  0.4402 -0.2298
  975TIP3    H1 2889   3.508   4.615   2.671 -1.1673 -0.4521 -0.7410
  975TIP3    H2 2890   3.407   4.552   2.764  0.3926 -0.4941  0.9831
  976TIP3   OH2 2891   6.773   3.937   0.621  0.7053 -0.6777  0.2834
  976TIP3    H1 2892   6.692   3.934   0.571 -0.0415 -0.2221  1.4083
  976TIP3    H2 2893   6.747   3.912   0.710  1.5314  0.7169  0.9537
  977TIP3   OH2 2894   6.706   1.591   1.267 -1.1192  0.4575 -0.0367
  977TIP3    H1 2895   6.695   1.680   1.235  2.6861  1.6699  1.4073
  977TIP3    H2 2896   6.761   1.600   1.345 -0.7032 -3.1577  0.2740
  978TIP3   OH2 2897   4.842   4.111   0.555 -0.3534 -0.6871  0.1421
  978TIP3    H1 2898   4.896   4.180   0.518 -0.4040 -1.5747 -1.7302
  978TIP3    H2 2899   4.901   4.062   0.612 -0.0468  0.2434  0.6446
  979TIP3   OH2 2900   4.754   0.655   5.826 -0.1223  0.2858  0.5452
  979TIP3    H1 2901   4.777   0.575   5.873 -1.7301 -1.2395 -1.0866
  979TIP3    H2 2902   4.796   0.645   5.740 -0.3841  1.1653  0.3040
  980TIP3   OH2 2903   7.000   2.194   0.422 -0.0373 -0.0824 -0.1984
  980TIP3    H1 2904   7.025   2.212   0.512  0.2654 -0.7500 -0.1407
  980TIP3    H2 2905   6.906   2.212   0.419 -0.4163 -1.6864  0.7089
  981TIP3   OH2 2906   6.233   4.529   5.521  0.2566  0.3561  0.3462
  981TIP3    H1 2907   6.223   4.606   5.579  0.9751  0.9992 -0.3665
  981TIP3    H2 2908   6.178   4.549   5.445  0.3160  0.0840  0.2309
  982TIP3   OH2 2909   6.138   5.043   0.982  0.8093  0.1803 -0.6411
  982TIP3    H1 2910   6.166   5.084   0.900 -0.2271  0.4930 -0.8526
  982TIP3    H2 2911   6.043   5.055   0.984  0.6365 -1.0647 -0.0743
  983TIP3   OH2 2912   3.853   4.529   1.493  0.2370 -0.3550 -0.0928
  983TIP3    H1 2913   3.788   4.481   1.544  0.4628 -1.4960 -0.8393
  983TIP3    H2 2914   3.879   4.468   1.423  2.2704 -0.0300  0.3024
  984TIP3   OH2 2915   4.362   2.481   1.682 -0.3581  0.3036 -0.0989
  984TIP3    H1 2916   4.286   2.464   1.737 -0.4840 -1.6825 -0.8036
  984TIP3    H2 2917   4.326   2.521   1.603 -0.4077  1.2921  0.4109
  985TIP3   OH2 2918   2.220   5.542   5.603 -0.0639  0.1282 -0.1387
  985TIP3    H1 2919   2.147   5.481   5.618  0.0435  0.1004  0.2739
  985TIP3    H2 2920   2.194   5.591   5.525  0.2118 -0.9909 -0.9667
  986TIP3   OH2 2921   5.876   0.609   5.700 -0.0480 -0.0404 -0.4376
  986TIP3    H1 2922   5.921   0.663   5.765  3.2519 -1.2299 -1.5545
  986TIP3    H2 2923   5.846   0.533   5.750  1.9049 -0.6472 -0.0954
  987TIP3   OH2 2924   1.634   0.185   2.884 -0.1200 -0.1017  0.1032
  987TIP3    H1 2925   1.545   0.191   2.850  0.4738  0.6480 -1.4052
  987TIP3    H2 2926   1.647   0.091   2.900 -0.9882 -0.2808 -0.1759
  988TIP3   OH2 2927   2.524   4.600   1.164 -0.0077  0.2611  0.1590
  988TIP3    H1 2928   2.537   4.514   1.203 -0.1037 -0.1791 -0.7638
  988TIP3    H2 2929   2.564   4.594   1.078  0.4909  1.3264  0.3076
  989TIP3   OH2 2930   5.879   0.602   4.023 -0.0781 -0.1114  0.0508
  989TIP3    H1 2931   5.890   0.686   4.066 -1.7589 -0.4885  1.3319
  989TIP3    H2 2932   5.908   0.538   4.088 -2.8443 -0.7022  0.8376
  990TIP3   OH2 2933   1.372   4.530   3.384  0.3271  0.4516 -0.0193
  990TIP3    H1 2934   1.379   4.459   3.447 -1.1923 -0.1345 -0.4737
  990TIP3    H2 2935   1.456   4.529   3.338  0.5729 -0.6221  0.4151
  991TIP3   OH2 2936   1.523   5.753   3.364  0.4773 -0.7008 -0.0736
  991TIP3    H1 2937   1.441   5.727   3.406  0.3541  0.3826  0.3953
  991TIP3    H2 2938   1.498   5.778   3.275  0.2668 -0.2190  0.1182
  992TIP3   OH2 2939   5.970   1.950   1.847  0.3410 -0.0213  0.2009
  992TIP3    H1 2940   6.027   1.919   1.918 -0.8841  0.1838  1.3228
  992TIP3    H2 2941   5.988   2.044   1.841  0.2958  0.0012  0.4011
  993TIP3   OH2 2942   1.886   6.070   2.587 -0.4418 -0.2337  0.3136
  993TIP3    H1 2943   1.935   5.987   2.583 -2.0711 -1.2469  0.4377
  993TIP3    H2 2944   1.901   6.110   2.501  1.4898  0.0556  0.7313
  994TIP3   OH2 2945   0.194   3.295   1.281 -0.5378 -0.3124 -0.3486
  994TIP3    H1 2946   0.105   3.331   1.288 -0.6778  0.4067 -3.8635
  994TIP3    H2 2947   0.181   3.205   1.250 -0.0374 -0.8725  1.0241
  995TIP3   OH2 2948   3.070   3.136   3.694  0.9549  0.7275  0.1486
  995TIP3    H1 2949   3.003   3.200   3.667 -1.7975 -1.2205  1.8084
  995TIP3    H2 2950   3.051   3.119   3.786  2.9125 -0.9871  0.2937
  996TIP3   OH2 2951   4.241   2.058   0.835  0.0373 -0.1035  0.4161
  996TIP3    H1 2952   4.153   2.051   0.798 -0.3746 -1.1835  1.5330
  996TIP3    H2 2953   4.299   2.061   0.759 -0.7809 -2.2531 -0.3751
  997TIP3   OH2 2954   2.832   0.254   5.355  0.9791 -0.3324  0.1560
  997TIP3    H1 2955   2.858   0.302   5.276  3.5770  0.2011  1.2379
  997TIP3    H2 2956   2.836   0.162   5.329  3.2683 -0.2429 -0.0492
  998TIP3   OH2 2957   0.668   0.764   2.004 -1.0783 -0.7811  0.2430
  998TIP3    H1 2958   0.738   0.804   2.056 -1.5972 -0.3046  0.5879
  998TIP3    H2 2959   0.697   0.773   1.914 -0.5177 -0.9307  0.4058
  999TIP3   OH2 2960   4.158   5.674   3.309  0.0222  0.2710  0.2559
  999TIP3    H1 2961   4.071   5.639   3.289  0.4646 -0.6619 -0.0748
  999TIP3    H2 2962   4.215   5.597   3.312  1.0389  0.9582 -0.5814
 1000TIP3   OH2 2963   0.118   1.884   4.909  0.3876  0.8055 -0.0630
 1000TIP3    H1 2964   0.136   1.925   4.994  2.7186 -3.1862  1.6383
 1000TIP3    H2 2965   0.186   1.920   4.851  1.8252  0.1372  1.1269
 1001TIP3   OH2 2966   1.808   0.705   4.236  0.2335 -0.3076  0.3382
 1001TIP3    H1 2967   1.887   0.741   4.196  0.1836  1.1219  1.4643
 1001TIP3    H2 2968   1.787   0.765   4.307 -0.6710 -1.8298  1.4182
 1002TIP3   OH2 2969   1.106   3.512   5.164 -0.4093 -0.0622  0.0615
 1002TIP3    H1 2970   1.115   3.460   5.084 -1.1912 -0.4410  0.2098
 1002TIP3    H2 2971   1.016   3.542   5.163  0.0112  1.2627  0.0184
 1003TIP3   OH2 2972   0.776   3.577   2.916  0.0326 -0.0073 -0.5928
 1003TIP3    H1 2973   0.703   3.541   2.867  0.6432 -2.1885 -0.0275
 1003TIP3    H2 2974   0.847   3.583   2.852  0.0967 -0.4193 -0.5652
 1004TIP3   OH2 2975   4.675   4.095   0.331 -0.2294 -0.0336 -0.4382
 1004TIP3    H1 2976   4.625   4.024   0.371  0.9741 -0.1769  0.8795
 1004TIP3    H2 2977   4.746   4.112   0.392 -0.4361  2.2870 -0.7385
 1005TIP3   OH2 2978   1.926   3.687   5.105  0.2426  0.2568 -0.1216
 1005TIP3    H1 2979   1.880   3.678   5.189  0.6376  3.0302  0.5101
 1005TIP3    H2 2980   1.948   3.598   5.079  0.2867 -0.6916  2.8341
 1006TIP3   OH2 2981   6.603   4.634   1.751 -0.0852 -0.2041 -0.0239
 1006TIP3    H1 2982   6.567   4.723   1.750  1.1547  0.3067 -0.5420
 1006TIP3    H2 2983   6.615   4.613   1.658  1.6754 -0.0477  0.1492
 1007TIP3   OH2 2984   0.295   3.572   1.561 -0.2424 -0.0037 -0.1027
 1007TIP3    H1 2985   0.269   3.641   1.622  0.9757  1.1159 -0.8123
 1007TIP3    H2 2986   0.213   3.539   1.526 -0.8842  0.4690  0.9053
 1008TIP3   OH2 2987   6.619   0.319   4.585 -0.0264  0.1173 -0.1364
 1008TIP3    H1 2988   6.583   0.233   4.565  1.2152 -0.4918  0.1576
 1008TIP3    H2 2989   6.563   0.380   4.537 -2.8183 -0.5645  2.0107
 1009TIP3   OH2 2990   5.457   1.178   1.589 -0.9739 -0.1132  0.4083
 1009TIP3    H1 2991   5.535   1.233   1.576 -0.1611 -0.9878  1.3858
 1009TIP3    H2 2992   5.386   1.241   1.599 -0.6630  0.6800 -1.8960
 1010TIP3   OH2 2993   0.344   2.933   0.574  0.4703  0.3554  0.2740
 1010TIP3    H1 2994   0.365   2.978   0.492  1.4257  0.6575  0.6856
 1010TIP3    H2 2995   0.254   2.959   0.593  1.2755  2.8800  1.0041
 1011TIP3   OH2 2996   6.983   1.870   1.480 -0.3796 -0.3982 -0.0538
 1011TIP3    H1 2997   7.029   1.954   1.478 -1.3626  0.1360 -0.7543
 1011TIP3    H2 2998   7.052   1.804   1.468  0.3494  0.3135  0.1590
 1012TIP3   OH2 2999   3.877   2.388   3.466  0.4658  0.1935 -0.0741
 1012TIP3    H1 3000   3.860   2.358   3.377  0.2786  0.7251 -0.2238
 1012TIP3    H2 3001   3.968   2.365   3.482 -0.0049 -1.5784  0.2855
 1013TIP3   OH2 3002   3.156   2.609   4.074  0.0219  0.0011 -0.3765
 1013TIP3    H1 3003   3.227   2.568   4.123  0.1060 -0.1304 -0.6057
 1013TIP3    H2 3004   3.077   2.588   4.124  0.0931 -0.2319 -0.3614
 1014TIP3   OH2 3005   0.528   4.191   4.652 -0.7697 -0.0332 -0.1874
 1014TIP3    H1 3006   0.561   4.231   4.572 -2.5803  2.1951  0.0617
 1014TIP3    H2 3007   0.601   4.196   4.714  0.1756 -0.4366 -1.2486
 1015TIP3   OH2 3008   0.093   5.907   1.369  0.7638  0.6867  0.0337
 1015TIP3    H1 3009   0.159   5.919   1.437  1.3429 -0.4403 -0.3048
 1015TIP3    H2 3010   0.126   5.834   1.316 -0.8783 -0.0871  0.0191
 1016TIP3   OH2 3011   3.600   5.992   3.258 -0.6914 -0.0803  0.1835
 1016TIP3    H1 3012   3.695   6.000   3.246 -0.9919  1.1395 -1.8783
 1016TIP3    H2 3013   3.581   6.049   3.333  0.0063  1.2151 -0.5802
 1017TIP3   OH2 3014   0.341   3.808   2.641 -0.1027 -0.5257  0.3035
 1017TIP3    H1 3015   0.277   3.782   2.707 -1.1605 -1.5217 -1.0317
 1017TIP3    H2 3016   0.315   3.896   2.615 -1.2186 -1.0672 -0.5027
 1018TIP3   OH2 3017   6.336   5.766   3.096  0.7712  0.2947 -0.4739
 1018TIP3    H1 3018   6.266   5.700   3.094  2.2557 -1.3918  0.3780
 1018TIP3    H2 3019   6.386   5.751   3.016  0.2409  1.4607 -1.0547
 1019TIP3   OH2 3020   1.513   6.534   1.778  0.0010  0.0818  0.2825
 1019TIP3    H1 3021   1.560   6.459   1.814  0.5282  0.0752 -0.4117
 1019TIP3    H2 3022   1.435   6.496   1.737 -0.1601  0.0007  0.6643
 1020TIP3   OH2 3023   6.340   5.804   0.876  0.3786 -0.2495 -0.6975
 1020TIP3    H1 3024   6.346   5.899   0.875  0.7122 -0.2672 -0.6256
 1020TIP3    H2 3025   6.354   5.779   0.967 -0.6577 -0.3192 -0.5433
 1021TIP3   OH2 3026   2.730   5.496   2.909  0.1028 -0.0950 -0.1165
 1021TIP3    H1 3027   2.636   5.477   2.919 -0.2612  0.7399 -1.6755
 1021TIP3    H2 3028   2.770   5.455   2.986 -1.4360 -1.1407  0.1898
 1022TIP3   OH2 3029   4.627   1.937   1.523 -0.0997 -0.0775  0.4133
 1022TIP3    H1 3030   4.657   2.027   1.537 -2.4354  1.0485 -1.2401
 1022TIP3    H2 3031   4.553   1.945   1.463  1.1471 -3.3224 -1.8445
 1023TIP3   OH2 3032   5.632   3.523   2.801  0.1528  0.5461  0.4953
 1023TIP3    H1 3033   5.641   3.529   2.896 -0.5735 -0.6409  0.6537
 1023TIP3    H2 3034   5.542   3.494   2.787  1.3890 -3.5555 -0.3157
 1024TIP3   OH2 3035   5.230   2.731   2.001  0.1887 -0.3081 -0.6461
 1024TIP3    H1 3036   5.251   2.822   1.984  1.0410 -0.4097 -0.2151
 1024TIP3    H2 3037   5.182   2.732   2.084  1.9802 -0.4047  0.4477
 1025TIP3   OH2 3038   0.987   6.121   4.403 -0.3178 -0.2904  0.2958
 1025TIP3    H1 3039   1.034   6.143   4.483  0.0611  2.5607 -0.5862
 1025TIP3    H2 3040   0.899   6.099   4.432  0.6058 -2.5508  1.6876
 1026TIP3   OH2 3041   2.349   2.496   4.554  0.1144  0.0685  0.3090
 1026TIP3    H1 3042   2.349   2.449   4.470 -1.2000  2.3676 -1.0829
 1026TIP3    H2 3043   2.276   2.458   4.603 -0.8097  0.4669 -0.7129
 1027TIP3   OH2 3044   4.981   4.440   5.691 -0.0926  0.0191  0.0077
 1027TIP3    H1 3045   4.922   4.402   5.625  1.2679  0.4452 -1.5321
 1027TIP3    H2 3046   5.013   4.521   5.650  0.9827  0.1670  1.0913
 1028TIP3   OH2 3047   5.203   1.886   1.923  0.0831  0.3492  0.2174
 1028TIP3    H1 3048   5.143   1.838   1.980 -0.0688  1.4258  0.9972
 1028TIP3    H2 3049   5.284   1.836   1.925 -0.6669 -0.9565 -0.5949
 1029TIP3   OH2 3050   6.128   2.186   1.892  0.0390  0.1002 -0.1668
 1029TIP3    H1 3051   6.207   2.151   1.934 -0.6854 -2.3187 -0.6240
 1029TIP3    H2 3052   6.072   2.214   1.964  0.3179 -0.5461  0.3124
 1030TIP3   OH2 3053   4.695   6.532   3.510 -0.4942 -0.8934 -0.1970
 1030TIP3    H1 3054   4.744   6.577   3.441 -1.0467  0.3448  0.1852
 1030TIP3    H2 3055   4.677   6.600   3.575  0.1501 -2.0637  1.2661
 1031TIP3   OH2 3056   4.734   3.416   5.349 -0.1837 -0.3068  0.5966
 1031TIP3    H1 3057   4.740   3.341   5.289  1.8697 -0.6493  1.1536
 1031TIP3    H2 3058   4.729   3.492   5.291 -2.5081 -0.8103  0.0217
 1032TIP3   OH2 3059   2.704   3.067   4.576  0.1133  0.0674 -0.5740
 1032TIP3    H1 3060   2.787   3.056   4.530  0.2228 -1.1485 -0.1008
 1032TIP3    H2 3061   2.684   3.160   4.566  1.6067  0.4152 -0.5644
 1033TIP3   OH2 3062   7.036   2.478   1.245 -0.4489  0.1112  0.2349
 1033TIP3    H1 3063   7.112   2.420   1.241  1.0146  2.0097 -0.8094
 1033TIP3    H2 3064   7.068   2.562   1.214 -2.5882  1.4305  1.3763
 1034TIP3   OH2 3065   4.420   4.262   2.376  0.6006 -0.5344 -0.0002
 1034TIP3    H1 3066   4.362   4.198   2.418  1.3673 -0.4080  1.2947
 1034TIP3    H2 3067   4.498   4.212   2.351  1.0997 -0.1607  0.7954
 1035TIP3   OH2 3068   1.500   4.069   0.048 -0.8261  0.2533 -0.1649
 1035TIP3    H1 3069   1.548   4.062  -0.035 -0.3208  0.7895  0.0862
 1035TIP3    H2 3070   1.560   4.113   0.108 -0.6754 -1.3141  0.8930
 1036TIP3   OH2 3071   3.526   4.833   1.227  0.0314 -0.1903  0.3723
 1036TIP3    H1 3072   3.472   4.908   1.205  1.5862  0.1198 -2.9547
 1036TIP3    H2 3073   3.612   4.870   1.245  1.0236 -1.0905 -2.0730
 1037TIP3   OH2 3074   6.665   6.222   4.426 -0.2603 -0.3980 -0.3664
 1037TIP3    H1 3075   6.704   6.307   4.407  1.8574 -1.6659 -2.0702
 1037TIP3    H2 3076   6.671   6.174   4.344 -0.1118 -2.6701  0.9090
 1038TIP3   OH2 3077   0.725   2.597   1.345 -0.3035 -0.0665 -0.4450
 1038TIP3    H1 3078   0.735   2.681   1.300  0.0507  0.0202 -0.2079
 1038TIP3    H2 3079   0.746   2.616   1.437 -0.4422 -0.3654 -0.3501
 1039TIP3   OH2 3080   6.489   6.671   0.501 -0.0492  0.0159 -0.4483
 1039TIP3    H1 3081   6.447   6.600   0.452  0.4199 -0.1035 -0.6869
 1039TIP3    H2 3082   6.416   6.725   0.533 -0.4105 -0.5848 -0.2413
 1040TIP3   OH2 3083   0.528   2.133   1.270  0.8685 -0.3306 -0.0052
 1040TIP3    H1 3084   0.547   2.042   1.251 -1.0631 -0.8119  0.1710
 1040TIP3    H2 3085   0.485   2.132   1.355  0.7777  0.7419 -0.0154
 1041TIP3   OH2 3086   3.998   6.186   5.061  0.2192  0.3654 -0.3966
 1041TIP3    H1 3087   3.954   6.222   4.984  1.1436  1.9857 -0.2217
 1041TIP3    H2 3088   4.071   6.135   5.025 -0.7717 -0.9286 -0.6331
 1042TIP3   OH2 3089   1.194   1.784   4.147  0.2511  0.5184  0.0590
 1042TIP3    H1 3090   1.287   1.762   4.154  0.1037  0.0175  0.4995
 1042TIP3    H2 3091   1.178   1.844   4.219  0.0079 -0.2080  0.6253
 1043TIP3   OH2 3092   0.759   4.404   3.753 -0.3404  0.6241  0.1079
 1043TIP3    H1 3093   0.664   4.408   3.740 -0.5079  0.3743  1.1333
 1043TIP3    H2 3094   0.778   4.310   3.761 -0.3201  0.7411  1.8446
 1044TIP3   OH2 3095   6.447   0.550   0.140 -0.3363 -0.7586 -1.0235
 1044TIP3    H1 3096   6.476   0.637   0.112 -0.7192 -0.2889  0.0064
 1044TIP3    H2 3097   6.479   0.541   0.230 -1.4965 -1.1148 -0.6253
 1045TIP3   OH2 3098   5.662   5.248   0.636 -0.1931 -0.1356  0.5951
 1045TIP3    H1 3099   5.671   5.153   0.643 -1.8073 -0.3565  0.0904
 1045TIP3    H2 3100   5.659   5.264   0.541 -1.7737  0.1915  0.6779
 1046TIP3   OH2 3101   0.902   0.286   1.682  0.5523  0.0450 -0.1532
 1046TIP3    H1 3102   0.907   0.368   1.731 -0.0635 -0.5239  0.9252
 1046TIP3    H2 3103   0.858   0.225   1.743  2.7308 -1.6460 -0.1602
 1047TIP3   OH2 3104   2.672   4.744   2.320  0.3614 -0.4945  0.0102
 1047TIP3    H1 3105   2.600   4.776   2.374 -2.1276 -2.3531 -1.9591
 1047TIP3    H2 3106   2.716   4.824   2.289 -1.2432  0.7324  0.7613
 1048TIP3   OH2 3107   3.089   5.942   2.040 -0.1759 -0.3457 -0.2319
 1048TIP3    H1 3108   3.140   6.023   2.036 -0.6243 -0.0847 -0.8879
 1048TIP3    H2 3109   3.103   5.910   2.129 -0.9353  1.0690  0.4354
 1049TIP3   OH2 3110   2.010   6.453   0.053  0.5704 -0.5956 -0.7295
 1049TIP3    H1 3111   2.021   6.377   0.111  0.8231 -0.4871 -0.6382
 1049TIP3    H2 3112   2.094   6.498   0.056  1.0602 -1.3598 -2.2789
 1050TIP3   OH2 3113   4.923   3.141   0.679 -0.0696 -0.2043  0.4869
 1050TIP3    H1 3114   4.861   3.183   0.739 -0.5345 -0.3090  0.0833
 1050TIP3    H2 3115   4.897   3.049   0.678 -2.4919  0.3515 -2.7084
 1051TIP3   OH2 3116   0.373   1.668   4.447 -0.1100  0.1037 -0.0107
 1051TIP3    H1 3117   0.316   1.604   4.405 -0.6979  0.8580 -0.3981
 1051TIP3    H2 3118   0.338   1.678   4.535  0.1241 -0.2740  0.1262
 1052TIP3   OH2 3119   6.599   2.422   1.529  0.1346  0.0928  0.2425
 1052TIP3    H1 3120   6.580   2.514   1.550  1.8246  1.0978 -2.2819
 1052TIP3    H2 3121   6.514   2.386   1.502 -0.2542  1.3906 -0.3525
 1053TIP3   OH2 3122   4.486   1.659   4.861 -0.7351  0.7406  0.5768
 1053TIP3    H1 3123   4.571   1.640   4.899 -0.4644  0.5597 -0.1136
 1053TIP3    H2 3124   4.445   1.719   4.924  0.2075  1.4471  0.5417
 1054TIP3   OH2 3125   2.309   3.938   5.620  0.2294 -0.1709 -0.2045
 1054TIP3    H1 3126   2.306   3.928   5.715 -0.9243 -2.1242 -0.3840
 1054TIP3    H2 3127   2.393   3.901   5.595 -0.0205 -0.8680 -0.0391
 1055TIP3   OH2 3128   6.649   3.691   2.943  0.0187 -0.5399  0.0997
 1055TIP3    H1 3129   6.743   3.686   2.930 -0.1544 -3.0906 -0.7758
 1055TIP3    H2 3130   6.638   3.691   3.038  0.9088 -0.6861  0.2075
 1056TIP3   OH2 3131   1.233   0.487   0.622  0.0602  0.0497  0.3354
 1056TIP3    H1 3132   1.189   0.415   0.576 -0.4567 -0.3463  1.3970
 1056TIP3    H2 3133   1.253   0.551   0.554 -0.3514 -0.6683 -0.4840
 1057TIP3   OH2 3134   6.673   6.516   1.695 -0.4193  0.4064  0.4884
 1057TIP3    H1 3135   6.697   6.592   1.749 -0.1324 -0.3318  1.4224
 1057TIP3    H2 3136   6.752   6.463   1.692 -0.4687  0.3782 -0.5891
 1058TIP3   OH2 3137   4.920   1.704   3.955 -0.3642  0.1616 -0.5260
 1058TIP3    H1 3138   4.887   1.794   3.955  1.2078  0.8357  1.7583
 1058TIP3    H2 3139   4.848   1.652   3.991 -0.2000  1.0661  1.2109
 1059TIP3   OH2 3140   3.823   2.655   3.463  0.0841 -0.4437 -0.1466
 1059TIP3    H1 3141   3.728   2.663   3.472  0.1682  0.8000 -0.1628
 1059TIP3    H2 3142   3.839   2.561   3.461 -1.1365 -0.6730 -0.0370
 1060TIP3   OH2 3143   5.334   2.833   0.757  0.0789 -0.3809  0.2082
 1060TIP3    H1 3144   5.421   2.829   0.799  0.6382 -0.0118 -0.8873
 1060TIP3    H2 3145   5.293   2.911   0.793  0.5406 -0.0881  0.1021
 1061TIP3   OH2 3146   2.453   2.206   4.408 -0.2825 -0.0612  0.5161
 1061TIP3    H1 3147   2.440   2.182   4.500 -0.2279 -1.5262  0.1581
 1061TIP3    H2 3148   2.365   2.210   4.371 -0.4248  1.9838  0.9385
 1062TIP3   OH2 3149   4.829   1.155   3.055 -0.8987  0.0196 -0.6421
 1062TIP3    H1 3150   4.865   1.221   2.996  0.7119  0.1512  0.4045
 1062TIP3    H2 3151   4.792   1.204   3.127  0.0264 -0.1675 -0.0120
 1063TIP3   OH2 3152   0.230   2.020   1.750 -0.6854  0.5063 -0.5117
 1063TIP3    H1 3153   0.192   1.936   1.722  0.4010  0.5662 -2.2834
 1063TIP3    H2 3154   0.323   2.013   1.728  0.1732  0.8481  2.5781
 1064TIP3   OH2 3155   2.723   5.229   2.335  0.3243 -0.5106  0.0274
 1064TIP3    H1 3156   2.756   5.280   2.260  2.1408 -0.9490  0.4889
 1064TIP3    H2 3157   2.739   5.285   2.411 -1.2077 -0.2118  0.1676
 1065TIP3   OH2 3158   6.938   2.424   2.496  0.2898  0.0883  0.1477
 1065TIP3    H1 3159   6.995   2.362   2.450  0.4108  0.6872 -0.5267
 1065TIP3    H2 3160   6.882   2.369   2.550  0.3469 -0.6271 -0.4974
 1066TIP3   OH2 3161   7.083   2.116   3.495  0.0263 -0.4467  0.8389
 1066TIP3    H1 3162   7.139   2.141   3.422 -0.6481 -1.0400  0.1068
 1066TIP3    H2 3163   7.045   2.033   3.469 -1.1087 -0.1097  1.3686
 1067TIP3   OH2 3164   6.836   0.853   3.091 -0.0582 -0.1439 -0.0815
 1067TIP3    H1 3165   6.908   0.910   3.119 -1.1093  1.0745  0.2636
 1067TIP3    H2 3166   6.852   0.770   3.136  1.0077  0.1833  0.1640
 1068TIP3   OH2 3167   2.927   2.242   0.337 -0.0208  0.2800  0.7062
 1068TIP3    H1 3168   2.911   2.150   0.355 -0.4555  0.5243  1.6782
 1068TIP3    H2 3169   2.860   2.267   0.274  0.0095 -0.0370  0.5493
 1069TIP3   OH2 3170   5.842   5.063   3.629 -0.3081  0.0150  0.1538
 1069TIP3    H1 3171   5.899   5.104   3.695 -0.4743  0.8438 -0.2070
 1069TIP3    H2 3172   5.889   5.074   3.547  0.6165 -2.3540  0.2833
 1070TIP3   OH2 3173   1.772   5.110   4.875  0.2149 -0.6835 -0.0350
 1070TIP3    H1 3174   1.760   5.201   4.848  0.5372 -0.2402  1.2191
 1070TIP3    H2 3175   1.787   5.062   4.793 -2.1309 -0.0127 -0.9480
 1071TIP3   OH2 3176   5.412   1.626   0.068  0.0291 -0.0146  0.1360
 1071TIP3    H1 3177   5.358   1.638   0.146  0.7634 -0.4302  0.7167
 1071TIP3    H2 3178   5.439   1.715   0.043  0.8957  0.0236  1.1514
 1072TIP3   OH2 3179   3.920   4.635   0.438  0.3402 -0.3725 -0.4871
 1072TIP3    H1 3180   3.888   4.686   0.363 -0.1211  0.1564  0.0639
 1072TIP3    H2 3181   4.013   4.623   0.420  0.3517  0.2309 -0.8826
 1073TIP3   OH2 3182   2.986   4.049   3.807 -0.5383  0.2390 -0.1583
 1073TIP3    H1 3183   3.006   3.972   3.861 -0.6475  0.3136 -0.0105
 1073TIP3    H2 3184   2.915   4.020   3.749 -0.4147  0.1560 -0.2687
 1074TIP3   OH2 3185   3.295   1.209   4.326  0.4110 -0.4886  0.2080
 1074TIP3    H1 3186   3.211   1.172   4.298  0.3098 -0.3627  0.3464
 1074TIP3    H2 3187   3.330   1.145   4.388 -0.9719  0.8337  2.5047
 1075TIP3   OH2 3188   6.480   6.777   1.675  0.0881  0.0839 -0.2539
 1075TIP3    H1 3189   6.505   6.800   1.586  1.9993 -0.9528 -0.0593
 1075TIP3    H2 3190   6.412   6.711   1.665  0.3592 -0.0975 -0.9718
 1076TIP3   OH2 3191   4.580   0.779   2.169  0.7415  0.5265  0.0119
 1076TIP3    H1 3192   4.497   0.799   2.126 -0.3551 -0.8600  1.3771
 1076TIP3    H2 3193   4.635   0.743   2.100 -1.2155 -2.3192 -0.2377
 1077TIP3   OH2 3194   4.796   4.264   2.159 -0.3900  0.4462 -0.2109
 1077TIP3    H1 3195   4.735   4.227   2.096  0.6187  0.7173 -1.3868
 1077TIP3    H2 3196   4.866   4.301   2.106  0.3420  0.9654  1.0635
 1078TIP3   OH2 3197   7.124   0.401   2.309  0.2468 -0.2263 -0.0166
 1078TIP3    H1 3198   7.158   0.491   2.306  1.6543 -0.7338  0.0162
 1078TIP3    H2 3199   7.148   0.369   2.395 -1.6629 -0.1382  0.5914
 1079TIP3   OH2 3200   4.591   5.203   3.013  0.3963  0.6087  0.4268
 1079TIP3    H1 3201   4.639   5.228   2.933 -0.2156  3.3219  0.7972
 1079TIP3    H2 3202   4.521   5.268   3.020 -0.5967 -0.5768  2.3057
 1080TIP3   OH2 3203   4.468   0.498   5.649 -0.4627 -0.3385 -0.0052
 1080TIP3    H1 3204   4.458   0.464   5.560  0.1523  1.1205 -0.6591
 1080TIP3    H2 3205   4.481   0.592   5.637 -0.6668 -0.0804  1.6524
 1081TIP3   OH2 3206   1.373   0.415   4.264  0.0680 -0.7965 -0.1536
 1081TIP3    H1 3207   1.324   0.453   4.192  2.0900  1.2005 -0.5934
 1081TIP3    H2 3208   1.321   0.339   4.292 -2.6027  0.5113 -1.2807
 1082TIP3   OH2 3209   1.024   6.420   0.476  0.9476  0.0435 -0.3064
 1082TIP3    H1 3210   1.100   6.409   0.419  0.8253 -2.1001 -0.1602
 1082TIP3    H2 3211   0.949   6.419   0.417  0.9637  1.7623 -0.4126
 1083TIP3   OH2 3212   3.418   3.603   5.413  0.3403 -0.0589 -0.0277
 1083TIP3    H1 3213   3.471   3.680   5.430 -0.3469  0.0536  1.7036
 1083TIP3    H2 3214   3.395   3.610   5.320  4.6615 -0.9649 -1.3915
 1084TIP3   OH2 3215   7.123   1.509   4.470 -0.2057 -0.1582  0.2675
 1084TIP3    H1 3216   7.181   1.494   4.395  0.8522  0.6437  0.8981
 1084TIP3    H2 3217   7.116   1.423   4.512  1.2547 -0.1009  0.6758
 1085TIP3   OH2 3218   6.170   3.648   0.230 -0.6303  0.5861  0.2025
 1085TIP3    H1 3219   6.226   3.667   0.306 -0.8388  0.1738  0.4579
 1085TIP3    H2 3220   6.163   3.553   0.228 -0.5309  0.5896 -0.4059
 1086TIP3   OH2 3221   0.330   4.130   2.192 -0.1527 -0.0133  0.2869
 1086TIP3    H1 3222   0.267   4.099   2.127 -0.8623 -0.6539  1.2596
 1086TIP3    H2 3223   0.307   4.222   2.206  1.9551  1.1057 -2.6057
 1087TIP3   OH2 3224   1.856   4.573   3.758 -0.0337  0.5806 -0.6438
 1087TIP3    H1 3225   1.816   4.548   3.674  0.4319  3.2715 -1.7784
 1087TIP3    H2 3226   1.799   4.642   3.792  0.3283  0.2003  0.8066
 1088TIP3   OH2 3227   0.103   2.935   3.261 -0.6159  0.0676  0.3760
 1088TIP3    H1 3228   0.109   2.882   3.182  0.0534 -0.1941  0.5990
 1088TIP3    H2 3229   0.192   2.965   3.278 -1.0423  1.6850 -0.0144
 1089TIP3   OH2 3230   1.846   0.249   1.103  0.3095 -0.0219  0.4285
 1089TIP3    H1 3231   1.896   0.207   1.172 -0.7753 -1.9383  0.0938
 1089TIP3    H2 3232   1.757   0.257   1.138  0.2869  1.2112  0.1452
 1090TIP3   OH2 3233   1.728   4.856   3.148 -0.2218  0.0813 -0.4473
 1090TIP3    H1 3234   1.665   4.833   3.217  0.2239 -1.2246 -0.4463
 1090TIP3    H2 3235   1.789   4.916   3.190  0.9255 -1.8300  0.7990
 1091TIP3   OH2 3236  -0.009   5.381   2.934  0.3061 -0.3266  0.3884
 1091TIP3    H1 3237  -0.050   5.302   2.969  0.0024 -0.6597 -0.6816
 1091TIP3    H2 3238   0.084   5.372   2.958  0.0770 -0.4363  1.2699
 1092TIP3   OH2 3239   5.173   5.208   5.253 -0.1068 -0.1861  0.0849
 1092TIP3    H1 3240   5.155   5.283   5.197 -0.7097  0.5171  1.1708
 1092TIP3    H2 3241   5.171   5.244   5.342  0.1846 -1.3773  0.5926
 1093TIP3   OH2 3242   4.617   2.412   0.367 -0.6774 -0.1118 -0.4252
 1093TIP3    H1 3243   4.603   2.355   0.292  0.1610  1.2313 -1.6553
 1093TIP3    H2 3244   4.532   2.456   0.381 -1.7037 -2.4566  1.3134
 1094TIP3   OH2 3245   3.676   2.510   2.035  0.3225  0.1635 -0.0535
 1094TIP3    H1 3246   3.584   2.526   2.012  0.0303  0.4136  1.2368
 1094TIP3    H2 3247   3.708   2.594   2.068  0.5631 -0.3081  0.9446
 1095TIP3   OH2 3248   5.488   5.048   1.569  0.0729 -0.1801 -0.7840
 1095TIP3    H1 3249   5.394   5.031   1.575  0.1820 -0.6721 -0.4129
 1095TIP3    H2 3250   5.509   5.095   1.650  0.4974 -1.7927  0.0767
 1096TIP3   OH2 3251   4.252   0.729   4.572  0.2393  0.6521 -0.5491
 1096TIP3    H1 3252   4.314   0.716   4.644  1.5957  1.6043 -1.4907
 1096TIP3    H2 3253   4.271   0.817   4.540  0.1873 -0.0042 -2.5193
 1097TIP3   OH2 3254   4.939   4.423   2.825 -0.2455  0.2320  0.1788
 1097TIP3    H1 3255   4.871   4.371   2.869  1.2414 -0.3228  1.9419
 1097TIP3    H2 3256   5.010   4.362   2.809  1.1979  1.4842  1.4929
 1098TIP3   OH2 3257   7.177   3.889   5.079 -0.2980  0.0699  0.2103
 1098TIP3    H1 3258   7.108   3.955   5.072 -0.2378  0.0183 -1.0525
 1098TIP3    H2 3259   7.140   3.810   5.041  1.1487  0.6382 -2.6650
 1099TIP3   OH2 3260   6.913   6.384   1.714 -0.0269  0.4113  0.3381
 1099TIP3    H1 3261   6.995   6.426   1.686  0.1283  1.2227  1.9080
 1099TIP3    H2 3262   6.941   6.304   1.759 -0.2602 -0.7115 -1.4131
 1100TIP3   OH2 3263   0.878   1.963   4.492  0.3309 -0.0154 -0.2183
 1100TIP3    H1 3264   0.784   1.961   4.511  0.7239 -0.6026  1.9891
 1100TIP3    H2 3265   0.907   1.873   4.507  1.4056  0.3868  0.2016
 1101TIP3   OH2 3266   1.604   6.312   4.506  0.0387 -0.6904 -0.0437
 1101TIP3    H1 3267   1.648   6.248   4.451  0.1821  0.3348 -1.1653
 1101TIP3    H2 3268   1.611   6.395   4.458  0.2523  0.2767  1.5520
 1102TIP3   OH2 3269   5.273   1.034   5.627  0.0367  0.3551  0.2470
 1102TIP3    H1 3270   5.216   1.011   5.554  2.4527 -2.1206 -1.0510
 1102TIP3    H2 3271   5.248   0.974   5.697  0.5823 -0.3111 -0.1140
 1103TIP3   OH2 3272   3.259   2.405   1.887  0.2288 -0.2697  0.0119
 1103TIP3    H1 3273   3.193   2.342   1.858  0.6293 -1.1794  1.0294
 1103TIP3    H2 3274   3.289   2.447   1.806 -1.4698  0.0708 -0.4943
 1104TIP3   OH2 3275   3.155   6.587   2.364  0.0598  0.0583  0.2299
 1104TIP3    H1 3276   3.180   6.624   2.449 -0.1555 -0.9409  0.7439
 1104TIP3    H2 3277   3.070   6.546   2.380  0.8449 -1.7350  0.0255
 1105TIP3   OH2 3278   6.404   0.794   1.323 -0.3169 -0.5678 -0.0436
 1105TIP3    H1 3279   6.343   0.788   1.397 -1.2235  0.8232 -0.6414
 1105TIP3    H2 3280   6.352   0.832   1.252  0.7832 -1.0366 -1.1252
 1106TIP3   OH2 3281   5.131   3.266   2.042 -0.1403 -0.5864  0.1728
 1106TIP3    H1 3282   5.125   3.334   1.976 -0.5098  0.9584  1.7324
 1106TIP3    H2 3283   5.211   3.286   2.091 -0.9028 -0.5295  1.4283
 1107TIP3   OH2 3284   1.546   5.104   2.950  0.0891  0.3444  0.2170
 1107TIP3    H1 3285   1.636   5.077   2.932 -0.2433 -0.8386  0.2449
 1107TIP3    H2 3286   1.550   5.140   3.038  0.6924  1.1381 -0.1143
 1108TIP3   OH2 3287   3.064   1.141   2.629  0.5226 -0.1613 -0.4984
 1108TIP3    H1 3288   3.031   1.052   2.614 -0.4342  0.0226  0.4384
 1108TIP3    H2 3289   3.059   1.153   2.723 -0.0837  1.1575 -0.6729
 1109TIP3   OH2 3290   0.523   3.171   2.610 -0.8123 -0.0111  0.1017
 1109TIP3    H1 3291   0.605   3.125   2.594 -0.4316  0.8021 -0.3261
 1109TIP3    H2 3292   0.549   3.257   2.642 -1.5157 -0.0652  0.8598
 1110TIP3   OH2 3293   2.591   6.696   2.453 -0.0357 -0.1197 -0.0910
 1110TIP3    H1 3294   2.631   6.642   2.521  0.4373 -0.9604 -0.9923
 1110TIP3    H2 3295   2.661   6.752   2.422  0.4454 -1.4213 -1.5024
 1111TIP3   OH2 3296   5.315   4.053   4.797 -0.4117  1.1638 -0.1810
 1111TIP3    H1 3297   5.328   4.139   4.837  1.0127  1.2864 -0.8801
 1111TIP3    H2 3298   5.403   4.018   4.785 -0.9497 -0.1944 -0.3672
 1112TIP3   OH2 3299   4.064   5.495   0.112  0.4360 -0.2343  0.0010
 1112TIP3    H1 3300   4.059   5.411   0.065  0.0682 -0.1056 -0.1923
 1112TIP3    H2 3301   4.158   5.513   0.117  0.4741  0.0447 -1.2411
 1113TIP3   OH2 3302   1.051   5.393   4.175 -0.2428 -0.2329  0.0755
 1113TIP3    H1 3303   1.146   5.401   4.172 -0.4266  2.7378 -2.4798
 1113TIP3    H2 3304   1.026   5.446   4.251  0.1115 -0.7401  0.5518
 1114TIP3   OH2 3305   2.580   0.493   5.165 -0.3390  0.3572 -0.0486
 1114TIP3    H1 3306   2.606   0.451   5.246 -0.9301 -1.5477 -0.8076
 1114TIP3    H2 3307   2.494   0.530   5.183  0.2374  1.4192  0.6551
 1115TIP3   OH2 3308   7.033   1.158   3.551 -0.4632  0.4594 -0.0017
 1115TIP3    H1 3309   7.110   1.159   3.495 -0.1586 -1.9690  0.2268
 1115TIP3    H2 3310   6.999   1.247   3.549  1.0263  1.0394 -1.9411
 1116TIP3   OH2 3311   7.021   5.795   0.642 -0.1272  0.2681  0.0205
 1116TIP3    H1 3312   6.944   5.810   0.697  0.6727  3.4450  0.4487
 1116TIP3    H2 3313   7.010   5.705   0.611 -4.1469  0.6526 -0.2220
 1117TIP3   OH2 3314   0.858   2.939   2.990 -0.4093  0.7544 -0.1084
 1117TIP3    H1 3315   0.770   2.973   2.972 -0.1551  2.0180  0.8560
 1117TIP3    H2 3316   0.903   2.943   2.906 -1.5018 -0.6894 -0.7968
 1118TIP3   OH2 3317   4.089   3.363   0.076  0.3844 -0.3159  0.2867
 1118TIP3    H1 3318   4.081   3.452   0.042  0.5551 -0.6570 -0.6734
 1118TIP3    H2 3319   4.103   3.374   0.170 -2.3279  0.6146  0.6873
 1119TIP3   OH2 3320   4.617   2.717   5.523 -0.0574  0.4980  0.2893
 1119TIP3    H1 3321   4.591   2.680   5.607  2.3505 -1.5856  0.2480
 1119TIP3    H2 3322   4.591   2.651   5.458  1.7896  0.0690 -0.0907
 1120TIP3   OH2 3323   1.572   0.844   4.914  0.4541  0.5457 -0.5272
 1120TIP3    H1 3324   1.508   0.814   4.850 -2.1502  0.7946  1.7865
 1120TIP3    H2 3325   1.545   0.934   4.934  0.0936 -0.0776  2.0826
 1121TIP3   OH2 3326   1.253   4.546   1.205  0.2566  0.3786 -0.1769
 1121TIP3    H1 3327   1.298   4.631   1.199  0.2017  0.3192 -1.8293
 1121TIP3    H2 3328   1.166   4.568   1.238  0.9551  0.6649  1.6084
 1122TIP3   OH2 3329   7.209   4.237   2.956 -0.5163  0.1764  0.2642
 1122TIP3    H1 3330   7.264   4.311   2.979 -0.5957  0.1064  0.6903
 1122TIP3    H2 3331   7.123   4.276   2.940 -0.0168  0.4999 -1.9497
 1123TIP3   OH2 3332   1.570   2.245   0.724 -0.0428 -0.1930  0.2391
 1123TIP3    H1 3333   1.609   2.196   0.796  0.6194  0.1399  0.1151
 1123TIP3    H2 3334   1.591   2.194   0.646 -1.7829 -1.1921  0.3659
 1124TIP3   OH2 3335   6.936   0.258   5.829 -0.4014  0.4524  0.3623
 1124TIP3    H1 3336   6.877   0.328   5.799 -0.7591 -0.0074 -0.0117
 1124TIP3    H2 3337   6.896   0.177   5.797  1.4041  0.2378 -1.5538
 1125TIP3   OH2 3338   2.358   5.071   3.776  0.0521 -0.2015  0.2842
 1125TIP3    H1 3339   2.359   5.154   3.823  1.4762 -0.2578  0.4142
 1125TIP3    H2 3340   2.435   5.024   3.810  0.7201 -0.5431 -1.5632
 1126TIP3   OH2 3341   7.010   6.281   4.673  0.7616 -0.4994  0.3253
 1126TIP3    H1 3342   6.928   6.261   4.718  0.8459  0.0417  0.7299
 1126TIP3    H2 3343   7.059   6.199   4.676  0.7168 -0.5045  1.1235
 1127TIP3   OH2 3344   6.076   4.877   3.315 -0.0099  0.0096 -0.5080
 1127TIP3    H1 3345   6.082   4.938   3.388  0.3009 -1.7758  1.0406
 1127TIP3    H2 3346   6.153   4.898   3.261  0.3024  0.7302  0.1871
 1128TIP3   OH2 3347   2.319   0.786   2.252  0.3428  0.1084  0.3769
 1128TIP3    H1 3348   2.250   0.732   2.212  0.9811 -0.0451 -0.5378
 1128TIP3    H2 3349   2.398   0.733   2.244  0.6693  0.5058  0.9460
 1129TIP3   OH2 3350   4.408   0.202   3.698 -0.5125  0.2970  0.1655
 1129TIP3    H1 3351   4.321   0.239   3.685 -1.0158 -1.0723 -0.4771
 1129TIP3    H2 3352   4.413   0.182   3.791  0.1107  2.7375  0.7338
 1130TIP3   OH2 3353   3.581   6.266   5.640 -0.3261  0.0320 -0.1477
 1130TIP3    H1 3354   3.608   6.192   5.586 -0.7380 -0.0860 -0.1997
 1130TIP3    H2 3355   3.561   6.228   5.726 -0.3390  0.1162 -0.1124
 1131TIP3   OH2 3356   1.190   0.188   4.776 -0.0543  1.1839 -0.0568
 1131TIP3    H1 3357   1.160   0.130   4.706 -0.0295 -1.5700  2.0525
 1131TIP3    H2 3358   1.115   0.195   4.835  0.9484  0.6361  1.3343
 1132TIP3   OH2 3359   4.683   5.988   3.991 -0.1299  0.3029  0.4691
 1132TIP3    H1 3360   4.740   5.958   4.062 -1.6724  1.0902  2.1525
 1132TIP3    H2 3361   4.602   5.939   4.004 -1.2206  2.0745  0.6922
 1133TIP3   OH2 3362   3.354   2.510   1.664  0.5322  0.1816  0.1806
 1133TIP3    H1 3363   3.435   2.533   1.617  0.7958 -0.2996  0.3857
 1133TIP3    H2 3364   3.289   2.497   1.595  0.9159 -0.5150 -0.0673
 1134TIP3   OH2 3365   2.808   0.037   3.120  0.5186  0.4731  0.2543
 1134TIP3    H1 3366   2.712   0.045   3.124  0.4110 -0.4055 -0.2398
 1134TIP3    H2 3367   2.834   0.019   3.210  0.0065 -1.2052  0.1043
 1135TIP3   OH2 3368   7.126   6.169   3.001 -0.5496  0.2808  0.2472
 1135TIP3    H1 3369   7.066   6.241   3.019  1.3828  2.4532 -1.4482
 1135TIP3    H2 3370   7.113   6.150   2.908  0.3782 -0.1678  0.2010
 1136TIP3   OH2 3371   3.346   4.165   2.417 -0.0758  0.1953  0.4009
 1136TIP3    H1 3372   3.295   4.088   2.393  0.3902  0.0961 -0.2888
 1136TIP3    H2 3373   3.432   4.151   2.377  0.6877  0.1125  1.9784
 1137TIP3   OH2 3374   3.121   4.035   5.861 -0.7216  0.6382  0.2975
 1137TIP3    H1 3375   3.171   3.968   5.906 -0.2967  2.1002  2.1146
 1137TIP3    H2 3376   3.111   4.001   5.772  2.0777 -0.4419  0.2877
 1138TIP3   OH2 3377   6.731   1.035   1.871  0.2340  0.4116  0.1389
 1138TIP3    H1 3378   6.671   1.093   1.824 -1.6048 -1.5044  0.0046
 1138TIP3    H2 3379   6.754   0.967   1.808  0.6442 -0.1911  0.9226
 1139TIP3   OH2 3380   1.536   1.314   0.639 -0.4553  0.1065 -0.0321
 1139TIP3    H1 3381   1.630   1.299   0.638 -0.1416  1.8803 -1.1158
 1139TIP3    H2 3382   1.505   1.281   0.554 -0.8031 -0.3723  0.2745
 1140TIP3   OH2 3383   3.132   6.239   1.533 -0.3000  0.4389 -0.4988
 1140TIP3    H1 3384   3.083   6.200   1.606 -1.0418 -0.7035 -1.5550
 1140TIP3    H2 3385   3.166   6.163   1.485  1.3191  1.2014 -0.6037
 1141TIP3   OH2 3386   3.409   0.424   0.092  0.3055 -0.0716 -0.2513
 1141TIP3    H1 3387   3.343   0.493   0.096  1.2707  0.8341  1.0767
 1141TIP3    H2 3388   3.407   0.394   0.001 -0.7627  1.0839 -0.6405
 1142TIP3   OH2 3389   5.835   2.343   0.052  0.0965  0.0027  0.2831
 1142TIP3    H1 3390   5.919   2.340   0.006 -0.1783  0.2838 -0.2396
 1142TIP3    H2 3391   5.795   2.258   0.034 -0.8747  0.8149 -1.6603
 1143TIP3   OH2 3392   7.098   6.057   5.328 -0.0566  0.0977  0.2674
 1143TIP3    H1 3393   7.066   6.127   5.385 -0.2356 -0.1490  0.4682
 1143TIP3    H2 3394   7.182   6.090   5.295 -1.2489  1.5208 -1.6118
 1144TIP3   OH2 3395   7.054   2.064   4.657  0.1055 -0.3249 -0.2582
 1144TIP3    H1 3396   6.960   2.060   4.644 -0.1953  0.1253  1.4831
 1144TIP3    H2 3397   7.079   2.150   4.623 -0.2815 -0.0645  0.0962
 1145TIP3   OH2 3398   2.037   3.031   3.280 -0.0721  0.2917 -0.3254
 1145TIP3    H1 3399   1.974   3.095   3.312 -0.8858 -1.2574  1.3915
 1145TIP3    H2 3400   2.020   3.024   3.186 -3.2490 -0.8258  0.2303
 1146TIP3   OH2 3401   3.222   2.044   3.371  0.4089 -0.2594  0.1364
 1146TIP3    H1 3402   3.182   1.959   3.351  0.6343 -0.7282  1.5769
 1146TIP3    H2 3403   3.297   2.023   3.427  1.4112  0.7832 -0.7623
 1147TIP3   OH2 3404   5.856   0.097   5.571 -0.5030 -0.0912 -0.2445
 1147TIP3    H1 3405   5.845   0.188   5.545  0.4558 -0.1183 -0.7912
 1147TIP3    H2 3406   5.791   0.049   5.520 -0.8813  0.2598 -0.0962
 1148TIP3   OH2 3407   3.977   3.711   2.666 -0.3712 -1.3152  0.0266
 1148TIP3    H1 3408   4.030   3.669   2.734 -0.4778 -0.9447  0.3406
 1148TIP3    H2 3409   4.011   3.675   2.584 -0.0069 -1.5018  0.2552
 1149TIP3   OH2 3410   5.064   5.485   1.302  0.1741  0.1884  0.5837
 1149TIP3    H1 3411   4.996   5.532   1.351  0.4059  0.0894  1.0059
 1149TIP3    H2 3412   5.146   5.513   1.342  0.7618  3.3235 -2.3641
 1150TIP3   OH2 3413   0.148   2.121   5.752 -0.5220 -0.3802  0.3687
 1150TIP3    H1 3414   0.142   2.160   5.665 -1.0122  1.7432  1.2955
 1150TIP3    H2 3415   0.176   2.193   5.808 -0.7803 -1.5584  2.0650
 1151TIP3   OH2 3416   0.862   4.638   3.672 -0.1327 -0.3601  0.0461
 1151TIP3    H1 3417   0.840   4.547   3.691  0.7118 -0.5682  0.0614
 1151TIP3    H2 3418   0.956   4.638   3.658  0.3769  0.9699  2.7844
 1152TIP3   OH2 3419   3.787   1.063   4.943  0.4317  0.1303  0.1301
 1152TIP3    H1 3420   3.791   1.099   5.032  0.8869  0.1491  0.1034
 1152TIP3    H2 3421   3.853   1.112   4.894 -0.3500  0.6493 -0.4174
 1153TIP3   OH2 3422   2.258   5.625   0.149 -0.4665  0.2353 -0.2014
 1153TIP3    H1 3423   2.231   5.550   0.201 -0.8775 -0.8242 -1.8626
 1153TIP3    H2 3424   2.176   5.668   0.123 -0.3016  0.4074 -0.4468
 1154TIP3   OH2 3425   1.696   3.958   3.575  0.3378 -0.4879  0.2040
 1154TIP3    H1 3426   1.632   3.890   3.551 -0.5390  0.5081 -0.3471
 1154TIP3    H2 3427   1.728   3.932   3.661 -1.1485 -0.7684  0.6861
 1155TIP3   OH2 3428   0.403   1.585   3.288 -0.3503  0.3239 -0.1564
 1155TIP3    H1 3429   0.478   1.549   3.241  0.0421 -0.4727  1.0483
 1155TIP3    H2 3430   0.353   1.632   3.221  0.3473 -0.5216 -1.3006
 1156TIP3   OH2 3431   4.543   6.348   5.328  0.7879  0.1460 -0.4850
 1156TIP3    H1 3432   4.526   6.436   5.363 -0.8568 -0.2477 -0.2306
 1156TIP3    H2 3433   4.564   6.296   5.405 -1.1063 -0.3197 -0.2439
 1157TIP3   OH2 3434   0.230   6.495   1.056 -0.7007  0.4455 -0.1529
 1157TIP3    H1 3435   0.138   6.507   1.033 -0.9683  0.5553  0.9265
 1157TIP3    H2 3436   0.243   6.401   1.057 -0.3599  0.4277 -1.8922
 1158TIP3   OH2 3437   2.919   0.645   3.655 -0.3526  0.4262 -0.1033
 1158TIP3    H1 3438   2.910   0.550   3.668  1.8535  0.1800 -0.1002
 1158TIP3    H2 3439   3.013   0.661   3.661 -0.4147  2.2346 -2.7805
 1159TIP3   OH2 3440   3.870   2.621   1.784  0.1087 -0.2020  0.4061
 1159TIP3    H1 3441   3.783   2.636   1.822 -1.2773  1.8626 -3.0953
 1159TIP3    H2 3442   3.928   2.679   1.833 -1.0298  0.4695  0.9984
 1160TIP3   OH2 3443   0.626   0.522   4.707 -0.2130 -0.1062  0.1011
 1160TIP3    H1 3444   0.543   0.486   4.675 -0.1251  1.9427 -2.8083
 1160TIP3    H2 3445   0.604   0.611   4.734  0.8781  0.1492  0.1904
 1161TIP3   OH2 3446   2.188   0.389   0.432  0.2765  0.2270  0.0143
 1161TIP3    H1 3447   2.165   0.314   0.487 -0.9467 -1.3837 -2.5304
 1161TIP3    H2 3448   2.239   0.446   0.490 -0.4793 -1.5714  2.6259
 1162TIP3   OH2 3449   5.117   6.505   4.064  0.1194  0.0436  0.2326
 1162TIP3    H1 3450   5.204   6.494   4.025 -0.1327  2.0488 -1.0799
 1162TIP3    H2 3451   5.066   6.431   4.031  0.9734 -0.4396 -0.0396
 1163TIP3   OH2 3452   6.907   6.656   1.316  0.4676 -0.1519 -0.2325
 1163TIP3    H1 3453   6.895   6.691   1.405 -1.1419  1.2413 -0.9356
 1163TIP3    H2 3454   6.915   6.733   1.261 -0.3956 -0.9501 -1.5282
 1164TIP3   OH2 3455   5.091   6.162   2.743  0.2751 -0.0199 -0.4154
 1164TIP3    H1 3456   5.171   6.132   2.699  0.6903 -0.2654  0.4809
 1164TIP3    H2 3457   5.117   6.244   2.785  0.0708 -0.1136 -0.0998
 1165TIP3   OH2 3458   6.500   3.160   2.116 -0.3554 -0.0509 -0.1040
 1165TIP3    H1 3459   6.582   3.162   2.066 -0.7972 -0.5447 -0.8773
 1165TIP3    H2 3460   6.433   3.142   2.050 -0.8878 -1.4288  0.7689
 1166TIP3   OH2 3461   3.959   5.268   3.987  0.2699 -0.6722  0.2038
 1166TIP3    H1 3462   3.905   5.316   4.049 -0.4685 -0.8432 -0.2974
 1166TIP3    H2 3463   4.038   5.322   3.977 -0.4533  0.3383 -0.1953
 1167TIP3   OH2 3464   3.327   6.339   4.104  0.0678 -0.0174  0.1482
 1167TIP3    H1 3465   3.295   6.251   4.084  0.0985  0.1173 -0.5088
 1167TIP3    H2 3466   3.414   6.325   4.140  0.6632 -0.1798 -1.3001
 1168TIP3   OH2 3467   3.530   6.754   1.157 -0.1841 -0.1204 -0.5448
 1168TIP3    H1 3468   3.524   6.776   1.250 -1.2370  1.2869 -0.9052
 1168TIP3    H2 3469   3.535   6.839   1.113  1.0698 -0.7773 -1.7495
 1169TIP3   OH2 3470   2.436   6.467   4.566 -0.3056 -0.2836 -0.1777
 1169TIP3    H1 3471   2.497   6.511   4.627 -1.2499 -0.1814  0.7224
 1169TIP3    H2 3472   2.372   6.425   4.623 -0.5040 -1.2530 -1.0934
 1170TIP3   OH2 3473   6.374   2.886   1.380  0.1013  0.2167 -0.5898
 1170TIP3    H1 3474   6.448   2.930   1.421 -0.7030 -0.0294  1.1781
 1170TIP3    H2 3475   6.396   2.886   1.286  1.4738  1.7432 -0.3176
 1171TIP3   OH2 3476   5.352   4.020   0.057 -0.1708  0.1437  0.4088
 1171TIP3    H1 3477   5.361   4.047  -0.035 -0.8983  0.9830  0.5698
 1171TIP3    H2 3478   5.361   3.925   0.054 -0.0183  0.1727 -0.5182
 1172TIP3   OH2 3479   2.928   4.427   5.079  0.8337  0.0628  0.1642
 1172TIP3    H1 3480   2.838   4.457   5.088  1.2658  1.4620  0.2304
 1172TIP3    H2 3481   2.922   4.333   5.066 -0.7362  0.3432 -1.5624
 1173TIP3   OH2 3482   6.645   1.313   3.665  0.1389 -0.0389  0.0834
 1173TIP3    H1 3483   6.645   1.352   3.752  4.7805  0.5655  0.0771
 1173TIP3    H2 3484   6.700   1.235   3.673 -0.0083 -0.4526 -2.1388
 1174TIP3   OH2 3485   3.357   4.782   3.182  0.5155 -0.1693  0.1668
 1174TIP3    H1 3486   3.311   4.851   3.230 -0.6022 -2.3118  2.4165
 1174TIP3    H2 3487   3.431   4.760   3.238  0.7575 -0.9094 -0.4245
 1175TIP3   OH2 3488   4.411   6.263   2.904  0.5458 -0.5521  0.7329
 1175TIP3    H1 3489   4.330   6.279   2.953  0.2457  1.2962 -0.2939
 1175TIP3    H2 3490   4.418   6.167   2.900 -1.0344 -0.7378  1.7264
 1176TIP3   OH2 3491   4.257   5.459   5.800 -0.1438  0.2724 -0.0778
 1176TIP3    H1 3492   4.227   5.539   5.757  0.6771  0.3917 -0.4648
 1176TIP3    H2 3493   4.347   5.479   5.827 -0.2152 -0.2387  0.5597
 1177TIP3   OH2 3494   6.641   0.119   0.672 -0.8960  0.0648 -0.2377
 1177TIP3    H1 3495   6.574   0.105   0.605 -0.6550  1.1609 -0.7354
 1177TIP3    H2 3496   6.617   0.202   0.713 -0.4833 -0.1045  0.3625
 1178TIP3   OH2 3497   6.774   5.541   5.390  0.0640 -0.3416  0.3225
 1178TIP3    H1 3498   6.822   5.535   5.473  0.5289 -1.0838  0.0103
 1178TIP3    H2 3499   6.734   5.628   5.392  0.0461 -0.3600  1.3355
 1179TIP3   OH2 3500   6.678   6.347   5.305 -0.8678  0.3809  0.1111
 1179TIP3    H1 3501   6.584   6.328   5.297 -0.7780 -0.6183  1.2227
 1179TIP3    H2 3502   6.685   6.402   5.382 -0.4502 -0.4141  0.6607
 1180TIP3   OH2 3503   6.285   3.023   1.959 -0.0044  0.0352  0.6302
 1180TIP3    H1 3504   6.300   2.929   1.973 -1.7874 -0.1621  1.5419
 1180TIP3    H2 3505   6.311   3.038   1.868 -1.2266 -1.7096 -0.0692
 1181TIP3   OH2 3506   6.692   5.943   2.978  0.4905 -0.2099  0.0968
 1181TIP3    H1 3507   6.765   5.982   2.930 -0.2064  1.8114  0.5800
 1181TIP3    H2 3508   6.616   5.995   2.951  0.1476  1.4795  3.7730
 1182TIP3   OH2 3509   3.266   6.263   2.458  0.4057 -0.3078  0.3692
 1182TIP3    H1 3510   3.361   6.251   2.468  0.5667  1.6880  1.9529
 1182TIP3    H2 3511   3.257   6.340   2.402 -0.2144  0.4485  1.4743
 1183TIP3   OH2 3512   2.012   5.977   1.777 -0.2278 -0.2757  0.0940
 1183TIP3    H1 3513   2.008   5.906   1.841 -0.2599 -1.4643 -1.1720
 1183TIP3    H2 3514   1.944   5.956   1.714  0.0926  0.6290 -0.5686
 1184TIP3   OH2 3515   2.373   2.087   0.407 -0.0446 -0.4351 -0.5550
 1184TIP3    H1 3516   2.299   2.076   0.467 -0.5687  0.8406 -0.9365
 1184TIP3    H2 3517   2.447   2.045   0.452 -0.4228  0.4817  0.9986
 1185TIP3   OH2 3518   0.103   1.493   3.225 -0.4712 -0.5800  0.3759
 1185TIP3    H1 3519   0.015   1.457   3.216 -1.4592  1.3915  1.5817
 1185TIP3    H2 3520   0.090   1.581   3.259  2.0000 -0.3812  1.0012
 1186TIP3   OH2 3521   4.035   2.176   2.519 -0.4108 -0.2208 -0.0419
 1186TIP3    H1 3522   4.087   2.224   2.584 -1.4627  0.5270  0.2745
 1186TIP3    H2 3523   4.084   2.186   2.438  0.7510 -0.8855  0.5523
 1187TIP3   OH2 3524   4.234   0.214   0.049  0.2824  0.5382 -0.5967
 1187TIP3    H1 3525   4.315   0.163   0.045  0.5165  0.9811 -1.9536
 1187TIP3    H2 3526   4.166   0.154   0.017  0.2740  0.5535 -0.6077
 1188TIP3   OH2 3527   6.100   6.006   3.013 -0.0348 -0.2852  0.3319
 1188TIP3    H1 3528   6.127   6.096   3.032 -2.0249  0.1167  1.5963
 1188TIP3    H2 3529   6.107   5.961   3.097 -0.0962 -1.0274 -0.0533
 1189TIP3   OH2 3530   6.678   0.805   1.318 -0.0648 -0.1052  0.3669
 1189TIP3    H1 3531   6.709   0.747   1.248 -0.7084 -1.3703  1.0924
 1189TIP3    H2 3532   6.583   0.809   1.305  0.1058  2.2791 -0.7455
 1190TIP3   OH2 3533   5.216   3.087   0.708 -0.8695  0.2001  0.2059
 1190TIP3    H1 3534   5.126   3.103   0.681 -1.2008 -0.6300  0.7775
 1190TIP3    H2 3535   5.235   3.155   0.772 -0.3781  1.6411 -1.3788
 1191TIP3   OH2 3536   2.653   1.687   4.774  0.2814 -0.1713 -0.1781
 1191TIP3    H1 3537   2.575   1.697   4.720  0.4149  1.6796 -0.1027
 1191TIP3    H2 3538   2.722   1.732   4.725  0.9832 -0.6155  0.3820
 1192TIP3   OH2 3539   1.818   5.563   5.713 -0.3568 -0.2825 -0.0599
 1192TIP3    H1 3540   1.897   5.611   5.737  0.3624 -0.0828 -2.5405
 1192TIP3    H2 3541   1.775   5.545   5.796  1.4200  1.0913  1.2434
 1193TIP3   OH2 3542   1.848   0.312   5.505  0.6089  0.1832  0.0308
 1193TIP3    H1 3543   1.898   0.388   5.536 -1.6122  1.4111  0.8203
 1193TIP3    H2 3544   1.874   0.303   5.413  1.0740  1.8061 -0.0281
 1194TIP3   OH2 3545   5.934   0.835   1.992 -0.0218  0.3923  0.5902
 1194TIP3    H1 3546   6.022   0.858   1.964  0.0284 -1.6614 -1.3124
 1194TIP3    H2 3547   5.938   0.740   2.008 -1.6461  0.4303  1.4472
 1195TIP3   OH2 3548   2.311   3.298   0.244  0.1296  0.2052  0.4377
 1195TIP3    H1 3549   2.342   3.351   0.169  0.4300 -1.2670 -0.5148
 1195TIP3    H2 3550   2.385   3.297   0.304  0.8984 -0.8125 -0.4832
 1196TIP3   OH2 3551   6.446   1.610   2.374 -0.1021 -0.4807 -0.1465
 1196TIP3    H1 3552   6.416   1.637   2.461  0.9346  1.0056 -0.2087
 1196TIP3    H2 3553   6.383   1.544   2.346 -1.6382  0.5006  0.8784
 1197TIP3   OH2 3554   4.751   1.745   2.520  0.1033 -0.1596  0.0460
 1197TIP3    H1 3555   4.692   1.724   2.592  0.1249 -0.3824 -0.0000
 1197TIP3    H2 3556   4.773   1.838   2.532 -0.9560  0.1640 -0.4475
 1198TIP3   OH2 3557   6.206   3.020   4.400 -0.0132  0.5656  0.1120
 1198TIP3    H1 3558   6.289   2.984   4.433  0.6435  0.8071 -1.2083
 1198TIP3    H2 3559   6.187   3.093   4.459  1.3500  1.2580 -0.2612
 1199TIP3   OH2 3560   4.686   3.665   4.761 -0.6452  0.1005 -0.0107
 1199TIP3    H1 3561   4.773   3.635   4.737 -0.7792  1.5441 -2.6559
 1199TIP3    H2 3562   4.699   3.754   4.792 -1.0572 -0.0789  0.6942
 1200TIP3   OH2 3563   1.786   2.376   0.042 -0.4404 -0.0049 -0.2676
 1200TIP3    H1 3564   1.693   2.390   0.058 -0.4952  0.0672 -0.6573
 1200TIP3    H2 3565   1.812   2.445  -0.019  0.0145  0.3660  0.3369
 1201TIP3   OH2 3566   2.503   0.029   2.929  0.0939 -0.2314 -0.0803
 1201TIP3    H1 3567   2.434   0.004   2.868 -0.5376  0.7932  0.1723
 1201TIP3    H2 3568   2.459   0.033   3.014  0.8292 -1.0739  0.3601
 1202TIP3   OH2 3569   5.480   5.750   2.870  0.0631  0.7857  0.4379
 1202TIP3    H1 3570   5.433   5.684   2.922  0.4217  1.0731  1.1353
 1202TIP3    H2 3571   5.549   5.700   2.826  0.3302  0.6889  0.9593
 1203TIP3   OH2 3572   3.966   2.762   0.538 -0.2042  0.7115 -0.1624
 1203TIP3    H1 3573   4.017   2.766   0.619 -0.6054 -0.8546  0.1946
 1203TIP3    H2 3574   3.880   2.731   0.565 -0.2365 -0.1919 -1.2381
 1204TIP3   OH2 3575   4.191   2.102   3.569 -0.7446  0.3804  0.0200
 1204TIP3    H1 3576   4.250   2.032   3.598  0.0114  0.7936 -0.5146
 1204TIP3    H2 3577   4.199   2.103   3.474  0.0740  1.8909  0.0747
 1205TIP3   OH2 3578   3.432   6.188   0.428  0.3629 -0.3710 -0.1058
 1205TIP3    H1 3579   3.402   6.240   0.502  0.8532 -0.4023  0.1135
 1205TIP3    H2 3580   3.414   6.098   0.453  1.9894 -0.5088  0.6619
 1206TIP3   OH2 3581   2.519   4.205   5.694  0.1130  0.5011  0.7820
 1206TIP3    H1 3582   2.542   4.162   5.611 -1.6325 -0.4969  0.7524
 1206TIP3    H2 3583   2.450   4.267   5.670  1.7851  2.5779  1.0316
 1207TIP3   OH2 3584   3.147   1.665   1.782 -0.2756  0.1813  0.2252
 1207TIP3    H1 3585   3.148   1.616   1.865 -0.4711 -0.3376 -0.0725
 1207TIP3    H2 3586   3.185   1.605   1.718  1.5029  1.2172  0.2635
 1208TIP3   OH2 3587   1.411   0.569   0.255 -0.2660 -0.5176 -0.3454
 1208TIP3    H1 3588   1.442   0.659   0.267 -0.5125 -0.5124  0.3376
 1208TIP3    H2 3589   1.475   0.515   0.301 -0.6644 -0.6006  0.1190
 1209TIP3   OH2 3590   4.140   3.697   0.820  0.3726  0.0040  0.3339
 1209TIP3    H1 3591   4.147   3.756   0.894  0.0860  0.5987 -0.1061
 1209TIP3    H2 3592   4.166   3.749   0.744 -3.3386  0.7808 -0.6435
 1210TIP3   OH2 3593   0.211   4.528   5.585  0.1253 -0.0557  0.2925
 1210TIP3    H1 3594   0.163   4.508   5.504  0.6901 -1.2034  0.2250
 1210TIP3    H2 3595   0.143   4.536   5.652 -0.2129 -1.3117  0.1267
 1211TIP3   OH2 3596   3.383   1.623   3.552  0.6269 -0.4228  0.2932
 1211TIP3    H1 3597   3.424   1.704   3.581 -0.8104 -0.2975  2.1422
 1211TIP3    H2 3598   3.388   1.627   3.456  3.3382  0.3363  0.4017
 1212TIP3   OH2 3599   1.711   1.291   5.504 -0.2317  0.2557  0.3483
 1212TIP3    H1 3600   1.740   1.265   5.592 -1.8014  0.8306  1.0769
 1212TIP3    H2 3601   1.664   1.373   5.518 -1.1098 -0.0075 -0.9255
 1213TIP3   OH2 3602   4.770   6.635   0.607  0.2310 -0.0315 -0.4103
 1213TIP3    H1 3603   4.855   6.606   0.573 -0.2597 -1.2380 -0.6794
 1213TIP3    H2 3604   4.708   6.615   0.536 -0.4919 -0.5675  0.3529
 1214TIP3   OH2 3605   5.397   3.979   0.930 -0.2676  0.0262  0.1880
 1214TIP3    H1 3606   5.454   3.903   0.940  1.9236  1.6092  0.5525
 1214TIP3    H2 3607   5.370   3.978   0.838  0.8441 -0.4483 -0.1447
 1215TIP3   OH2 3608   7.102   3.054   2.541  0.2588 -0.3719  0.6278
 1215TIP3    H1 3609   7.093   3.036   2.634  1.7438 -2.3946  0.4354
 1215TIP3    H2 3610   7.110   3.149   2.536 -1.6346 -0.0549  2.3585
 1216TIP3   OH2 3611   5.022   5.460   1.982 -0.6781  0.0083  0.0202
 1216TIP3    H1 3612   5.076   5.384   2.002  1.0632  0.6393 -1.9219
 1216TIP3    H2 3613   5.045   5.524   2.049  0.3839 -0.0572 -0.2525
 1217TIP3   OH2 3614   3.829   4.094   4.842  0.0366 -0.1472  0.2549
 1217TIP3    H1 3615   3.843   4.000   4.826  0.9387 -0.2444  1.4978
 1217TIP3    H2 3616   3.740   4.110   4.810  0.6539 -0.9043 -2.0915
 1218TIP3   OH2 3617   0.165   2.393   5.537 -0.1536  0.5017  0.2155
 1218TIP3    H1 3618   0.103   2.400   5.610  0.7339 -3.5324  1.6231
 1218TIP3    H2 3619   0.236   2.454   5.560 -0.7752  0.6888  1.7373
 1219TIP3   OH2 3620   1.666   5.428   0.783  0.2390 -0.2163 -0.3803
 1219TIP3    H1 3621   1.584   5.469   0.810  0.5101 -0.7445  1.3617
 1219TIP3    H2 3622   1.640   5.357   0.726 -0.4582  0.1338 -0.5056
 1220TIP3   OH2 3623   0.172   2.712   4.011 -0.1733  0.1296  0.2587
 1220TIP3    H1 3624   0.093   2.659   4.005  0.7926 -1.4048  0.7226
 1220TIP3    H2 3625   0.184   2.747   3.922 -0.1887 -1.4230 -0.3909
 1221TIP3   OH2 3626   0.368   1.493   5.479  0.0365 -0.2387  0.6143
 1221TIP3    H1 3627   0.346   1.552   5.550 -0.0632  0.6716 -0.1469
 1221TIP3    H2 3628   0.373   1.406   5.519 -0.2696  0.2227  1.6640
 1222TIP3   OH2 3629   4.575   2.708   0.935  0.4155  0.7450 -0.5177
 1222TIP3    H1 3630   4.530   2.640   0.885 -0.2764  0.7554  0.0709
 1222TIP3    H2 3631   4.657   2.667   0.963  0.2982  0.3708 -0.7201
 1223TIP3   OH2 3632   2.042   2.471   2.235 -0.6230  0.3063 -0.1785
 1223TIP3    H1 3633   1.998   2.555   2.245 -0.0626  0.3800  2.1713
 1223TIP3    H2 3634   2.125   2.492   2.193  0.1864  1.2145  1.7534
 1224TIP3   OH2 3635   6.112   6.729   1.501 -0.6169 -0.1497 -0.8886
 1224TIP3    H1 3636   6.179   6.713   1.435  0.1766 -1.6544  0.2150
 1224TIP3    H2 3637   6.089   6.821   1.491  1.5284  0.3803 -1.3811
 1225TIP3   OH2 3638   1.931   5.479   1.297 -0.1335  0.0514  0.1018
 1225TIP3    H1 3639   1.858   5.452   1.352  0.6642  1.4595  1.9785
 1225TIP3    H2 3640   2.008   5.437   1.337  0.3410  0.2234 -0.6115
 1226TIP3   OH2 3641   4.124   6.108   1.008  0.3910 -0.4040 -0.0009
 1226TIP3    H1 3642   4.157   6.018   1.014 -0.8741 -0.9229 -0.4699
 1226TIP3    H2 3643   4.198   6.159   0.973  1.7860 -0.8457  2.1037
 1227TIP3   OH2 3644   1.668   2.506   1.423  0.4962 -0.8805 -0.0029
 1227TIP3    H1 3645   1.633   2.417   1.433 -1.5507 -0.0668  0.5933
 1227TIP3    H2 3646   1.643   2.531   1.334 -0.2129 -0.4135  0.3158
 1228TIP3   OH2 3647   0.607   4.934   0.316  0.1758  0.0103  0.0031
 1228TIP3    H1 3648   0.590   4.841   0.332 -1.9610 -0.0631 -2.1400
 1228TIP3    H2 3649   0.699   4.937   0.288  0.5791 -1.2906  1.1173
 1229TIP3   OH2 3650   0.242   5.828   5.854  0.0195 -0.4641 -0.0892
 1229TIP3    H1 3651   0.162   5.869   5.822 -0.2619 -0.2486  0.8444
 1229TIP3    H2 3652   0.294   5.901   5.888  0.7670 -0.5641 -1.0051
 1230TIP3   OH2 3653   2.301   1.311   5.778 -0.5174 -0.0283  1.2316
 1230TIP3    H1 3654   2.383   1.316   5.728 -0.3034 -3.0589  1.1064
 1230TIP3    H2 3655   2.311   1.377   5.847  0.6695  1.8238 -0.5807
 1231TIP3   OH2 3656   5.558   2.775   1.185  0.4380  0.0675  0.0180
 1231TIP3    H1 3657   5.645   2.744   1.211  0.4750  0.8036  0.8118
 1231TIP3    H2 3658   5.499   2.704   1.211  0.6789  0.0455  0.5175
 1232TIP3   OH2 3659   0.501   5.950   1.889 -0.1818 -0.9249  0.8588
 1232TIP3    H1 3660   0.584   5.923   1.929 -0.3278 -1.2646  0.9325
 1232TIP3    H2 3661   0.524   6.026   1.836  0.1226 -0.8359  1.1193
 1233TIP3   OH2 3662   1.916   5.631   4.428 -0.2795 -0.0957 -0.2806
 1233TIP3    H1 3663   1.954   5.543   4.429  2.3003  0.8976 -1.2184
 1233TIP3    H2 3664   1.831   5.620   4.385  0.1671 -2.0650 -0.7509
 1234TIP3   OH2 3665   1.329   1.806   3.401  0.3560  0.3641  0.5578
 1234TIP3    H1 3666   1.343   1.860   3.323  1.3595  0.2521  0.6491
 1234TIP3    H2 3667   1.390   1.733   3.390  0.3545  0.2400  1.3523
 1235TIP3   OH2 3668   0.722   0.047   5.871 -0.0805 -0.1338  0.1597
 1235TIP3    H1 3669   0.652  -0.012   5.843  0.7685 -1.8284  1.4077
 1235TIP3    H2 3670   0.696   0.133   5.837 -1.1293 -1.2738 -2.1686
 1236TIP3   OH2 3671   5.221   5.992   2.388 -0.9011  0.0475  0.0552
 1236TIP3    H1 3672   5.131   6.011   2.413 -0.3337  0.8736  1.6712
 1236TIP3    H2 3673   5.255   5.938   2.459 -0.9581 -2.9447 -2.0136
 1237TIP3   OH2 3674   3.789   3.547   2.225  0.0443  0.0758 -0.2692
 1237TIP3    H1 3675   3.755   3.458   2.226  0.2851 -0.0746 -2.1712
 1237TIP3    H2 3676   3.740   3.591   2.156 -0.4285  1.5920  0.9821
 1238TIP3   OH2 3677   4.190   5.945   4.515 -0.5147  0.0383  0.3648
 1238TIP3    H1 3678   4.172   5.892   4.437 -1.2889  0.6200  0.1290
 1238TIP3    H2 3679   4.172   6.035   4.487  0.0529  0.3499  0.9691
 1239TIP3   OH2 3680   3.604   4.728   1.795  0.0271  0.3701 -0.0422
 1239TIP3    H1 3681   3.683   4.741   1.743  0.5151 -0.7167  0.3900
 1239TIP3    H2 3682   3.635   4.731   1.886 -0.3188 -0.6563  0.1170
 1240TIP3   OH2 3683   0.228   5.023   1.407  0.6235  0.3449 -0.7793
 1240TIP3    H1 3684   0.256   5.115   1.403 -2.6530  1.4460 -1.7194
 1240TIP3    H2 3685   0.164   5.021   1.478  0.8641 -1.2858 -0.5891
 1241TIP3   OH2 3686   2.829   1.496   3.118 -0.5420 -0.1906  0.4530
 1241TIP3    H1 3687   2.924   1.494   3.108 -0.3962 -0.6167  1.6928
 1241TIP3    H2 3688   2.814   1.460   3.206 -1.9298 -1.4766 -0.2613
 1242TIP3   OH2 3689   3.189   2.152   2.189 -0.2007 -0.3036 -0.7203
 1242TIP3    H1 3690   3.171   2.122   2.100  1.3400  1.1757 -1.6154
 1242TIP3    H2 3691   3.241   2.232   2.177  0.4538 -0.3115  1.5158
 1243TIP3   OH2 3692   0.688   1.888   4.178 -0.5825  0.1594 -0.0959
 1243TIP3    H1 3693   0.628   1.850   4.113 -0.0431  1.1430 -1.2072
 1243TIP3    H2 3694   0.769   1.838   4.166 -0.1774  0.9880 -0.8775
 1244TIP3   OH2 3695   0.324   3.044   3.816 -0.0748  0.8356  0.0764
 1244TIP3    H1 3696   0.403   3.015   3.861 -0.7203  1.0679  1.3869
 1244TIP3    H2 3697   0.263   2.971   3.823 -0.1144  0.7953 -0.6107
 1245TIP3   OH2 3698   4.532   5.294   1.590 -0.5434  0.4559  0.3023
 1245TIP3    H1 3699   4.449   5.330   1.557 -1.0121  2.3564  3.1660
 1245TIP3    H2 3700   4.506   5.241   1.665  0.8250  1.3714  1.4588
 1246TIP3   OH2 3701   3.866   0.794   3.072 -0.1131  0.3407  0.1797
 1246TIP3    H1 3702   3.807   0.777   2.998 -0.3970  0.3958  0.3921
 1246TIP3    H2 3703   3.852   0.720   3.131  1.0801 -0.3994 -0.4206
 1247TIP3   OH2 3704   0.892   4.752   2.205  0.1105 -0.1709  0.1027
 1247TIP3    H1 3705   0.866   4.661   2.190  1.8750 -0.5950 -0.6151
 1247TIP3    H2 3706   0.904   4.757   2.300 -0.4284 -0.5455  0.2006
 1248TIP3   OH2 3707   6.384   2.074   4.468  0.3979 -0.5130 -0.4974
 1248TIP3    H1 3708   6.313   2.098   4.409 -1.6909  0.3126  2.1054
 1248TIP3    H2 3709   6.440   2.016   4.417 -0.2411  1.5081 -3.7477
 1249TIP3   OH2 3710   1.708   5.593   0.055  0.3401  0.2056 -0.4343
 1249TIP3    H1 3711   1.691   5.616   0.146 -0.6710  0.8696 -0.7790
 1249TIP3    H2 3712   1.774   5.523   0.060  0.8209  0.7143  0.7695
 1250TIP3   OH2 3713   3.102   2.412   5.337  0.3042  0.7154 -0.4394
 1250TIP3    H1 3714   3.021   2.390   5.292 -0.4672 -0.9763  1.5857
 1250TIP3    H2 3715   3.168   2.354   5.299 -0.3577 -0.7597  0.5563
 1251TIP3   OH2 3716   6.890   5.347   0.434  0.6920  0.1131 -0.3728
 1251TIP3    H1 3717   6.809   5.302   0.411 -0.3884  1.0670  1.3299
 1251TIP3    H2 3718   6.910   5.402   0.358  0.2758 -0.8232 -1.1789
 1252TIP3   OH2 3719   1.847   0.021   0.157 -0.1326 -0.4079 -1.1086
 1252TIP3    H1 3720   1.858   0.087   0.226  0.1047  0.2952 -1.8154
 1252TIP3    H2 3721   1.887  -0.058   0.194  1.2572  0.3265 -0.9627
 1253TIP3   OH2 3722   6.498   1.849   4.322 -0.4190 -0.4788 -0.3484
 1253TIP3    H1 3723   6.412   1.810   4.336 -0.8600  0.0079 -1.5678
 1253TIP3    H2 3724   6.530   1.809   4.242  1.7879 -2.7858  1.5161
 1254TIP3   OH2 3725   3.007   6.059   1.020 -0.3914 -0.0847  0.6367
 1254TIP3    H1 3726   3.061   6.132   1.051 -0.7441  0.6362 -0.4089
 1254TIP3    H2 3727   2.922   6.098   1.002 -1.5573 -1.3384  2.9426
 1255TIP3   OH2 3728   0.962   5.489   1.261  1.0501 -0.4236  0.6720
 1255TIP3    H1 3729   0.938   5.518   1.349  1.0401  0.1810  0.4772
 1255TIP3    H2 3730   0.993   5.568   1.217  0.8423 -0.6711  0.0594
 1256TIP3   OH2 3731   0.737   2.354   1.233 -0.3238 -0.2194 -0.1298
 1256TIP3    H1 3732   0.732   2.426   1.297 -0.2315  0.7871 -1.2235
 1256TIP3    H2 3733   0.671   2.377   1.168 -1.7551 -2.2026  0.5288
 1257TIP3   OH2 3734   2.467   0.462   2.822  0.1020  0.2347 -0.2371
 1257TIP3    H1 3735   2.515   0.518   2.883 -0.6355  0.5222  0.0960
 1257TIP3    H2 3736   2.379   0.458   2.858 -0.0033 -0.6814 -0.5738
 1258TIP3   OH2 3737   1.416   3.375   4.404 -0.1833 -0.2822 -0.4125
 1258TIP3    H1 3738   1.418   3.455   4.350 -0.7231 -0.0507 -0.0964
 1258TIP3    H2 3739   1.430   3.406   4.493 -0.3654 -0.5436 -0.2920
 1259TIP3   OH2 3740   4.659   3.794   5.496 -0.0089 -0.5892  0.3634
 1259TIP3    H1 3741   4.716   3.719   5.509 -0.5520 -0.8333  1.4308
 1259TIP3    H2 3742   4.602   3.795   5.573  0.3270  1.2148  0.6285
 1260TIP3   OH2 3743   5.630   3.191   0.819  0.1162  0.3345  0.2449
 1260TIP3    H1 3744   5.601   3.234   0.738  1.2650 -0.3227 -0.5492
 1260TIP3    H2 3745   5.550   3.157   0.858 -0.3387 -0.5829 -1.3783
 1261TIP3   OH2 3746   3.824   5.124   4.674  0.2777 -0.2063  0.8556
 1261TIP3    H1 3747   3.853   5.071   4.748  0.4560 -2.0773 -0.4748
 1261TIP3    H2 3748   3.824   5.064   4.599 -3.5567  0.5645 -0.0028
 1262TIP3   OH2 3749   5.312   6.685   5.750 -0.0067  0.2139 -0.4028
 1262TIP3    H1 3750   5.270   6.632   5.682  0.3416  0.5678 -0.8999
 1262TIP3    H2 3751   5.260   6.766   5.753 -1.8690 -0.9375  1.8367
 1263TIP3   OH2 3752   4.831   0.906   3.176 -0.3114 -0.2572 -0.6232
 1263TIP3    H1 3753   4.743   0.872   3.192 -0.7207  0.8736 -0.3643
 1263TIP3    H2 3754   4.816   0.993   3.137  0.6771  0.1153 -0.2035
 1264TIP3   OH2 3755   0.451   3.248   5.499  0.0499 -0.0110 -0.6557
 1264TIP3    H1 3756   0.446   3.257   5.595  0.1792 -2.3014 -0.3738
 1264TIP3    H2 3757   0.416   3.160   5.482  0.6196  0.1195 -2.6521
 1265TIP3   OH2 3758   2.991   6.045   3.964 -0.0517  0.5636  0.0652
 1265TIP3    H1 3759   2.975   6.134   3.932  2.0993  0.7755 -0.5645
 1265TIP3    H2 3760   2.977   6.051   4.059  1.4429  1.9669  0.2449
 1266TIP3   OH2 3761   4.173   4.753   0.110 -0.0861 -0.6860 -0.2242
 1266TIP3    H1 3762   4.103   4.782   0.052 -0.7549  1.9922  1.6946
 1266TIP3    H2 3763   4.244   4.816   0.094  1.4440 -2.5352 -1.1585
 1267TIP3   OH2 3764   4.474   4.378   5.560  0.0261  0.9055 -0.1294
 1267TIP3    H1 3765   4.426   4.317   5.504 -1.0059  0.9028  0.7442
 1267TIP3    H2 3766   4.483   4.332   5.643 -0.4979  1.8198  0.4401
 1268TIP3   OH2 3767   5.295   0.337   1.302  0.8001 -0.1902 -0.4072
 1268TIP3    H1 3768   5.289   0.342   1.397  1.3502  0.6279 -0.4079
 1268TIP3    H2 3769   5.232   0.269   1.277  1.7065 -1.4602  0.6481
 1269TIP3   OH2 3770   7.038   5.333   5.112  0.5164 -0.0670  0.1952
 1269TIP3    H1 3771   7.073   5.358   5.197  2.2937 -1.2044 -0.1530
 1269TIP3    H2 3772   7.058   5.407   5.055  0.4494  0.1599  0.4630
 1270TIP3   OH2 3773   6.010   4.109   1.169 -0.2092 -0.1054  0.4681
 1270TIP3    H1 3774   6.097   4.070   1.181 -0.0253  0.4894  1.1638
 1270TIP3    H2 3775   5.958   4.077   1.242 -0.5573 -0.3925  0.0998
 1271TIP3   OH2 3776   2.642   1.390   1.736 -0.0792  0.5719 -0.3470
 1271TIP3    H1 3777   2.697   1.466   1.717 -1.8950  1.5282 -2.0322
 1271TIP3    H2 3778   2.660   1.371   1.828  1.9051  1.7800 -0.4273
 1272TIP3   OH2 3779   5.013   2.937   2.343 -0.1936 -0.0747  0.2196
 1272TIP3    H1 3780   4.952   2.980   2.404 -0.3209  1.8130 -1.1349
 1272TIP3    H2 3781   5.002   2.985   2.261  1.1295 -1.5029 -0.8495
 1273TIP3   OH2 3782   6.105   4.201   4.799 -0.3096 -0.3779  0.3657
 1273TIP3    H1 3783   6.138   4.235   4.882 -0.8927  0.8251  0.1135
 1273TIP3    H2 3784   6.069   4.277   4.753 -0.5772 -1.1284 -0.7217
 1274TIP3   OH2 3785   2.516   0.547   0.686  0.5760 -0.2610 -0.7506
 1274TIP3    H1 3786   2.495   0.578   0.774 -0.2918 -0.6282 -0.8133
 1274TIP3    H2 3787   2.609   0.525   0.690  0.6129 -0.0098 -0.0079
 1275TIP3   OH2 3788   3.576   4.881   5.782  0.4592 -0.1962 -0.2100
 1275TIP3    H1 3789   3.625   4.816   5.732  0.2039  0.1128 -0.8767
 1275TIP3    H2 3790   3.642   4.945   5.808  0.6104 -0.4105 -0.0596
 1276TIP3   OH2 3791   6.545   3.233   5.300  0.1945 -0.2355  0.5301
 1276TIP3    H1 3792   6.491   3.189   5.366 -0.9490  1.1133  0.5530
 1276TIP3    H2 3793   6.634   3.228   5.335 -0.0186 -1.7162  0.9401
 1277TIP3   OH2 3794   1.831   6.458   3.178  0.0985  0.0244  0.0708
 1277TIP3    H1 3795   1.736   6.465   3.166  0.1695  1.0534 -0.0400
 1277TIP3    H2 3796   1.847   6.366   3.195 -0.9934 -0.0675  0.6904
 1278TIP3   OH2 3797   6.372   1.902   0.370 -0.2723  0.4873 -0.2202
 1278TIP3    H1 3798   6.368   1.959   0.447 -0.4235  0.6300 -0.3324
 1278TIP3    H2 3799   6.282   1.868   0.361 -1.2339  3.2191 -2.3939
 1279TIP3   OH2 3800   4.261   4.925   4.545 -0.0772 -0.4051 -0.5871
 1279TIP3    H1 3801   4.255   5.012   4.504 -1.2928 -0.9777 -1.7019
 1279TIP3    H2 3802   4.355   4.910   4.556  0.1464  1.1197 -0.2093
 1280TIP3   OH2 3803   0.027   3.734   5.848  0.3900  0.4061  0.1985
 1280TIP3    H1 3804  -0.057   3.734   5.802  0.5537  1.2918 -0.1248
 1280TIP3    H2 3805   0.084   3.679   5.794  0.0328 -0.1820  0.4070
 1281TIP3   OH2 3806   1.537   2.557   2.246 -0.0270 -0.1663 -0.5611
 1281TIP3    H1 3807   1.573   2.505   2.318  0.8540  0.2487 -0.6864
 1281TIP3    H2 3808   1.456   2.513   2.222 -0.5109 -0.1221  0.9104
 1282TIP3   OH2 3809   2.469   4.134   0.105  0.2063  0.0994  0.7864
 1282TIP3    H1 3810   2.420   4.208   0.069 -0.0325 -0.9219 -1.1458
 1282TIP3    H2 3811   2.492   4.081   0.028 -1.7777 -3.1531  2.1968
 1283TIP3   OH2 3812   4.858   2.076   1.116 -0.4871 -0.0371 -0.2430
 1283TIP3    H1 3813   4.860   1.984   1.146 -1.0365  0.7337  2.4711
 1283TIP3    H2 3814   4.765   2.098   1.113 -0.3808  1.3848  2.8099
 1284TIP3   OH2 3815   4.153   4.061   3.128 -0.3791  0.5129 -0.2424
 1284TIP3    H1 3816   4.215   4.130   3.106  0.2163 -0.5603 -2.1631
 1284TIP3    H2 3817   4.067   4.099   3.111 -0.1823  1.3680  0.5624
 1285TIP3   OH2 3818   2.671   0.616   1.091 -0.1312  0.2439  0.0091
 1285TIP3    H1 3819   2.716   0.556   1.150 -1.1569  0.3110  0.8664
 1285TIP3    H2 3820   2.730   0.692   1.085 -0.3082  0.5343  1.4935
 1286TIP3   OH2 3821   0.606   4.421   4.981  0.1816  0.3889  0.3313
 1286TIP3    H1 3822   0.648   4.487   4.926  0.6829  0.0213  0.2646
 1286TIP3    H2 3823   0.513   4.428   4.960  0.3728  0.1776 -0.6527
 1287TIP3   OH2 3824   1.204   3.804   2.518 -0.1007  0.0884  0.4303
 1287TIP3    H1 3825   1.194   3.807   2.613 -0.0941 -2.2845  0.5813
 1287TIP3    H2 3826   1.116   3.785   2.485  0.2837 -1.3896  0.1860
 1288TIP3   OH2 3827   2.340   2.284   4.170 -0.3836 -0.2065  0.7566
 1288TIP3    H1 3828   2.283   2.250   4.239 -2.4319  0.4821 -0.4973
 1288TIP3    H2 3829   2.304   2.247   4.089  1.3313 -0.1957 -0.0616
 1289TIP3   OH2 3830   5.914   2.198   3.075 -0.2326 -0.2718  0.0606
 1289TIP3    H1 3831   5.976   2.126   3.065  1.1424  0.7773  0.8193
 1289TIP3    H2 3832   5.852   2.186   3.003 -0.2043 -2.3458  0.3196
 1290TIP3   OH2 3833   3.853   3.191   5.374 -0.1538 -0.4724 -0.2342
 1290TIP3    H1 3834   3.926   3.249   5.356 -0.2884  0.6864  2.5667
 1290TIP3    H2 3835   3.881   3.139   5.450 -0.5698 -3.1947 -1.7968
 1291TIP3   OH2 3836   7.201   0.715   4.391  0.5385 -0.4772  0.1860
 1291TIP3    H1 3837   7.126   0.663   4.362  0.8382 -2.9582  3.2907
 1291TIP3    H2 3838   7.173   0.754   4.474  1.5907  1.3928 -0.2806
 1292TIP3   OH2 3839   6.093   5.670   0.896  0.6047 -0.2581 -0.2374
 1292TIP3    H1 3840   6.099   5.668   0.992 -0.3732  4.7833  0.2225
 1292TIP3    H2 3841   6.012   5.624   0.876 -0.6024  0.8654  1.7192
 1293TIP3   OH2 3842   3.602   3.798   4.811  0.2491 -0.2833 -0.2170
 1293TIP3    H1 3843   3.559   3.859   4.751 -1.8173 -0.5287  0.9156
 1293TIP3    H2 3844   3.671   3.757   4.759  1.1452  2.3404 -1.2676
 1294TIP3   OH2 3845   3.610   2.350   0.327  0.2532  0.3504 -0.5705
 1294TIP3    H1 3846   3.576   2.413   0.390 -0.6636 -0.3451 -0.3447
 1294TIP3    H2 3847   3.620   2.269   0.377  0.6663  0.1092 -1.0338
 1295TIP3   OH2 3848   6.807   5.898   5.711 -0.3407 -0.2423  0.4947
 1295TIP3    H1 3849   6.831   5.833   5.644 -0.1105 -0.9953  1.2871
 1295TIP3    H2 3850   6.715   5.917   5.694  0.0896  0.7163 -0.9638
 1296TIP3   OH2 3851   0.007   2.084   0.872  0.6277  0.1518 -0.1166
 1296TIP3    H1 3852   0.057   2.002   0.871  0.0568 -0.2704  1.5623
 1296TIP3    H2 3853   0.053   2.138   0.936  1.2836  1.3742 -1.5656
 1297TIP3   OH2 3854   4.006   1.516   4.783 -0.2501  0.5472 -0.4736
 1297TIP3    H1 3855   4.080   1.531   4.723  1.1219  0.2012  1.0595
 1297TIP3    H2 3856   4.046   1.518   4.870 -1.9938 -0.1904  0.3726
 1298TIP3   OH2 3857   5.980   0.197   3.981  0.3465  0.5185 -0.5350
 1298TIP3    H1 3858   5.971   0.258   4.054 -0.0717  0.7567 -0.7811
 1298TIP3    H2 3859   6.050   0.234   3.928  1.6242 -0.3993  0.4650
 1299TIP3   OH2 3860   5.213   1.347   1.272 -0.0543  0.2219 -0.0142
 1299TIP3    H1 3861   5.124   1.343   1.239 -0.0500 -2.4400  0.0635
 1299TIP3    H2 3862   5.204   1.371   1.364 -0.6786 -0.0243 -0.0130
 1300TIP3   OH2 3863   2.823   0.158   1.700 -0.1011  0.1924 -0.2592
 1300TIP3    H1 3864   2.760   0.093   1.730  0.2641 -0.2447 -0.4230
 1300TIP3    H2 3865   2.906   0.110   1.694  0.0404  0.5198 -1.0003
 1301TIP3   OH2 3866   4.750   5.103   5.136 -0.0235  0.0943  0.0516
 1301TIP3    H1 3867   4.704   5.020   5.119 -0.4489 -0.1741  2.2174
 1301TIP3    H2 3868   4.830   5.077   5.182  0.3832  0.8289 -0.2322
 1302TIP3   OH2 3869   3.829   4.486   0.726 -0.2394  0.4046 -0.1641
 1302TIP3    H1 3870   3.817   4.559   0.666 -1.1269  0.5031  0.1089
 1302TIP3    H2 3871   3.904   4.438   0.692  0.2360  1.3330 -0.4543
 1303TIP3   OH2 3872   3.863   2.176   0.485  0.1250  0.5282 -0.2911
 1303TIP3    H1 3873   3.775   2.197   0.517 -0.2958 -0.6455 -0.6459
 1303TIP3    H2 3874   3.898   2.261   0.457 -0.7903  1.0524  0.0939
 1304TIP3   OH2 3875   4.427   2.017   1.293 -0.6070 -0.1902 -0.4933
 1304TIP3    H1 3876   4.366   1.982   1.357  0.1783  0.5079  0.6691
 1304TIP3    H2 3877   4.375   2.080   1.243 -0.6703  1.0771  1.0775
 1305TIP3   OH2 3878   5.285   0.267   3.821  0.0887 -0.2339  0.0259
 1305TIP3    H1 3879   5.194   0.286   3.799  0.1869  1.6847  1.1349
 1305TIP3    H2 3880   5.332   0.349   3.805  1.7493 -1.3323 -1.0363
 1306TIP3   OH2 3881   6.194   1.313   3.164 -0.1306 -0.1601  0.1686
 1306TIP3    H1 3882   6.102   1.318   3.190 -0.2661 -0.6719 -0.1991
 1306TIP3    H2 3883   6.202   1.230   3.118  1.0924 -1.4844  2.5400
 1307TIP3   OH2 3884   2.468   0.738   3.787 -0.1092  0.2086 -0.1101
 1307TIP3    H1 3885   2.448   0.748   3.880  0.3197  1.6495 -0.1592
 1307TIP3    H2 3886   2.515   0.654   3.782 -0.3478 -0.0058  0.9235
 1308TIP3   OH2 3887   3.253   3.860   5.279  0.0224 -0.0262  0.4887
 1308TIP3    H1 3888   3.326   3.902   5.234  0.2837 -1.8784 -0.9159
 1308TIP3    H2 3889   3.291   3.827   5.361  1.1942 -2.0987 -0.7867
 1309TIP3   OH2 3890   4.846   1.092   5.762 -0.1630  0.1480  0.2623
 1309TIP3    H1 3891   4.925   1.044   5.737 -1.1818 -1.7420  0.5154
 1309TIP3    H2 3892   4.784   1.075   5.691 -0.9931 -0.0376  1.0128
 1310TIP3   OH2 3893   1.161   3.563   1.811 -0.2626  0.4019 -0.0892
 1310TIP3    H1 3894   1.247   3.521   1.822  0.0755  0.9864 -0.4122
 1310TIP3    H2 3895   1.162   3.635   1.875 -0.2686  0.7675 -0.4922
 1311TIP3   OH2 3896   4.933   6.083   2.526  0.6005 -0.3012  0.6171
 1311TIP3    H1 3897   4.963   6.151   2.587 -0.1994  0.1724  0.5034
 1311TIP3    H2 3898   4.926   6.129   2.442 -1.3944 -0.0980  0.8355
 1312TIP3   OH2 3899   5.334   5.405   3.665  0.0966 -0.5008 -0.2931
 1312TIP3    H1 3900   5.325   5.310   3.679 -0.0277 -0.2667  1.4418
 1312TIP3    H2 3901   5.400   5.432   3.729 -2.0657  1.0420  1.4707
 1313TIP3   OH2 3902   1.654   5.602   0.322 -0.6154  0.8732 -0.2434
 1313TIP3    H1 3903   1.739   5.577   0.358 -0.9678  1.0801  0.7351
 1313TIP3    H2 3904   1.626   5.677   0.374 -2.6052 -0.7908  1.2692
 1314TIP3   OH2 3905   0.423   1.190   3.574  0.1688 -0.1800  0.6426
 1314TIP3    H1 3906   0.470   1.268   3.546 -2.5452  1.7457  1.0207
 1314TIP3    H2 3907   0.441   1.125   3.505  0.3777  1.6731 -1.1555
 1315TIP3   OH2 3908   2.025   2.860   2.956  0.4038 -0.5617  0.2337
 1315TIP3    H1 3909   1.930   2.860   2.968  0.7088 -0.8631  3.6505
 1315TIP3    H2 3910   2.048   2.769   2.939  0.2348 -0.8030  1.2789
 1316TIP3   OH2 3911   5.882   1.954   0.576 -0.3376 -0.3704 -0.1433
 1316TIP3    H1 3912   5.893   1.859   0.566 -1.8047 -0.4297 -1.7246
 1316TIP3    H2 3913   5.870   1.986   0.487 -0.9350  1.1453  0.4499
 1317TIP3   OH2 3914   4.949   2.058   4.764 -0.4318 -0.2320  0.2437
 1317TIP3    H1 3915   4.978   1.971   4.792  0.9891  0.1494  0.0605
 1317TIP3    H2 3916   4.854   2.050   4.754 -0.6616 -1.1040  2.5748
 1318TIP3   OH2 3917   6.795   2.696   3.592  0.0740  0.1723 -0.3042
 1318TIP3    H1 3918   6.727   2.710   3.658 -0.9772 -1.9631 -0.8521
 1318TIP3    H2 3919   6.747   2.680   3.511  1.2376 -0.9369 -0.8039
 1319TIP3   OH2 3920   3.515   3.325   1.973  0.2616  0.5281  0.0045
 1319TIP3    H1 3921   3.444   3.285   2.023 -0.5389  2.6895  0.7147
 1319TIP3    H2 3922   3.495   3.305   1.882 -0.1353 -0.5692  0.3099
 1320TIP3   OH2 3923   4.796   2.790   3.943 -0.2518 -0.1134  0.5738
 1320TIP3    H1 3924   4.829   2.833   3.864  0.4329  0.3302  1.0920
 1320TIP3    H2 3925   4.873   2.749   3.982 -0.4544  0.2509  1.3697
 1321TIP3   OH2 3926   0.611   4.527   2.252 -0.0987  0.2169  0.4264
 1321TIP3    H1 3927   0.677   4.465   2.223  0.9842  0.5207  2.0745
 1321TIP3    H2 3928   0.651   4.570   2.328 -1.8995  0.9584  0.9992
 1322TIP3   OH2 3929   4.527   5.344   1.248  0.0136 -0.0917 -0.5416
 1322TIP3    H1 3930   4.547   5.412   1.313  0.7022  0.3787 -1.2326
 1322TIP3    H2 3931   4.592   5.275   1.263  0.4680  0.2241 -1.0202
 1323TIP3   OH2 3932   6.525   2.234   0.793  0.3143  0.3013  0.0305
 1323TIP3    H1 3933   6.581   2.227   0.871  0.5193  0.7310 -0.0768
 1323TIP3    H2 3934   6.447   2.280   0.824 -0.5131 -1.2920  0.4556
 1324TIP3   OH2 3935   6.005   1.455   0.977 -0.0003 -0.0741 -0.0256
 1324TIP3    H1 3936   5.982   1.481   1.066  2.0735  3.1374 -0.2681
 1324TIP3    H2 3937   6.093   1.417   0.985 -0.4196 -1.2140 -0.5559
 1325TIP3   OH2 3938   0.115   2.165   4.260  0.2546 -0.1268 -0.3169
 1325TIP3    H1 3939   0.158   2.080   4.275 -0.5181 -0.3245  0.9556
 1325TIP3    H2 3940   0.173   2.229   4.301 -0.1920 -0.2989  0.6249
 1326TIP3   OH2 3941   2.981   0.476   0.122 -0.5744  0.6232 -0.0580
 1326TIP3    H1 3942   2.944   0.500   0.207  0.5510 -1.5094  1.1327
 1326TIP3    H2 3943   2.907   0.478   0.061 -2.2934 -1.5155  1.7960
 1327TIP3   OH2 3944   0.808   4.557   3.971  0.1425  0.2219  0.3819
 1327TIP3    H1 3945   0.806   4.640   3.923  1.0165  0.8560  1.4010
 1327TIP3    H2 3946   0.816   4.490   3.903  1.5745  1.1035 -0.3727
 1328TIP3   OH2 3947   1.888   3.434   5.525 -0.0757 -0.4678  0.8663
 1328TIP3    H1 3948   1.978   3.453   5.498  0.3247  0.3734  2.6521
 1328TIP3    H2 3949   1.845   3.402   5.446  1.4102  0.4448 -0.3518
 1329TIP3   OH2 3950   5.345   4.483   3.908 -0.5017 -0.4404  0.3492
 1329TIP3    H1 3951   5.403   4.425   3.859 -0.6100  0.2081 -0.5805
 1329TIP3    H2 3952   5.403   4.552   3.940 -0.6257 -0.2094  0.0826
 1330TIP3   OH2 3953   3.733   3.492   3.130  0.4008  0.7102 -0.4149
 1330TIP3    H1 3954   3.738   3.422   3.194 -1.3996  0.4393 -0.5033
 1330TIP3    H2 3955   3.774   3.456   3.051 -1.6689 -0.8325 -0.8935
 1331TIP3   OH2 3956   3.863   1.335   3.143 -0.2865  0.1056 -0.6833
 1331TIP3    H1 3957   3.944   1.369   3.104 -0.3378 -0.1857 -1.0509
 1331TIP3    H2 3958   3.876   1.240   3.144  0.0063  0.1272  0.6496
 1332TIP3   OH2 3959   1.780   2.306   3.190 -0.5591  0.0206  0.1390
 1332TIP3    H1 3960   1.797   2.307   3.284 -1.5373  0.5953  0.3215
 1332TIP3    H2 3961   1.867   2.303   3.150 -0.1109 -3.5675  1.0545
 1333TIP3   OH2 3962   6.011   2.201   4.731  0.2976 -0.2429  0.1297
 1333TIP3    H1 3963   5.938   2.261   4.741 -0.7048 -1.7627  3.6162
 1333TIP3    H2 3964   6.000   2.163   4.644  0.1777  3.3973 -1.6162
 1334TIP3   OH2 3965   6.127   0.524   5.189 -0.1136 -0.0332  0.0094
 1334TIP3    H1 3966   6.216   0.510   5.157 -1.3272 -1.0895 -3.3166
 1334TIP3    H2 3967   6.117   0.461   5.260  1.7187  0.0395  0.3888
 1335TIP3   OH2 3968   1.334   4.550   0.385  0.2162 -0.8880 -0.0174
 1335TIP3    H1 3969   1.259   4.497   0.359  0.9928 -2.3992  0.6673
 1335TIP3    H2 3970   1.395   4.545   0.312 -0.9805  1.7470 -1.3032
 1336TIP3   OH2 3971   6.985   0.568   0.360 -0.7255 -0.5572 -0.1828
 1336TIP3    H1 3972   6.901   0.614   0.355 -0.4781 -0.1082 -0.2685
 1336TIP3    H2 3973   7.010   0.554   0.269  0.0578  0.7462 -0.2043
 1337TIP3   OH2 3974   0.964  -0.011   4.359  0.1091  0.1080 -0.2621
 1337TIP3    H1 3975   0.956   0.021   4.449 -1.7373 -0.4193 -0.2055
 1337TIP3    H2 3976   0.934   0.061   4.304  1.2910  0.4518 -0.5014
 1338TIP3   OH2 3977   6.600   0.762   3.498  0.0841  0.1350  0.1040
 1338TIP3    H1 3978   6.542   0.838   3.492  0.5979  0.5480  0.3035
 1338TIP3    H2 3979   6.599   0.723   3.411  0.0840  0.5694 -0.0908
 1339TIP3   OH2 3980   5.920   1.484   2.558  0.2170  0.1127  0.2672
 1339TIP3    H1 3981   5.831   1.449   2.554 -0.4253  1.7021 -3.7708
 1339TIP3    H2 3982   5.916   1.551   2.626 -1.3392 -0.6111  0.9263
 1340TIP3   OH2 3983   5.209   5.703   5.346  0.2735  0.0856 -0.1670
 1340TIP3    H1 3984   5.146   5.631   5.339  1.0059 -0.9361  2.5724
 1340TIP3    H2 3985   5.165   5.777   5.303 -1.8959 -1.1209 -0.1797
 1341TIP3   OH2 3986   0.243   2.799   1.094 -0.7026 -0.5647  0.1210
 1341TIP3    H1 3987   0.219   2.892   1.094  2.0913  0.2478  0.4383
 1341TIP3    H2 3988   0.234   2.772   1.003  0.8669  0.7760 -0.4864
 1342TIP3   OH2 3989   0.814   5.740   0.222 -0.2084 -0.0251  0.0513
 1342TIP3    H1 3990   0.779   5.748   0.133  1.3486 -1.6172 -0.7710
 1342TIP3    H2 3991   0.884   5.805   0.227  1.0330 -1.2470 -0.6411
 1343TIP3   OH2 3992   2.155   5.101   2.872  0.2749  0.0604  0.1117
 1343TIP3    H1 3993   2.186   5.031   2.814 -1.5488 -2.6058  2.0747
 1343TIP3    H2 3994   2.082   5.141   2.825 -0.5453 -1.3943  0.0624
 1344TIP3   OH2 3995   3.005   3.326   3.245 -0.2227 -0.2534 -0.1801
 1344TIP3    H1 3996   2.926   3.378   3.257  0.1214  0.1912  0.2012
 1344TIP3    H2 3997   3.023   3.288   3.331  0.0538 -0.2383 -0.2287
 1345TIP3   OH2 3998   1.256   1.588   3.715  0.3046  0.0287  0.0667
 1345TIP3    H1 3999   1.207   1.656   3.763 -0.9207 -1.8390  1.6378
 1345TIP3    H2 4000   1.195   1.515   3.710  1.2529 -0.6706 -2.4245
 1346TIP3   OH2 4001   5.337   0.162   5.667  0.1020 -0.2982  0.7023
 1346TIP3    H1 4002   5.260   0.198   5.623 -0.4632  0.2686  2.0915
 1346TIP3    H2 4003   5.340   0.071   5.637 -1.0285 -0.2971  0.5148
 1347TIP3   OH2 4004   4.708   3.603   2.284 -0.0122  0.3089 -0.0114
 1347TIP3    H1 4005   4.716   3.667   2.355 -1.8695 -1.1085  1.5830
 1347TIP3    H2 4006   4.744   3.522   2.321  0.8160 -0.0106 -1.4310
 1348TIP3   OH2 4007   6.274   3.149   5.179  0.5634 -0.1044  0.3465
 1348TIP3    H1 4008   6.181   3.162   5.197 -0.0913 -0.7310 -2.1167
 1348TIP3    H2 4009   6.317   3.228   5.213 -0.6975 -0.2067  2.3274
 1349TIP3   OH2 4010   4.160   3.846   4.206 -0.0225 -0.1974 -0.0442
 1349TIP3    H1 4011   4.219   3.920   4.213  0.6117 -0.7617  0.6613
 1349TIP3    H2 4012   4.075   3.886   4.186  0.8627  0.5292 -2.8599
 1350TIP3   OH2 4013   2.555   3.390   2.336 -0.0417 -0.1847 -0.2344
 1350TIP3    H1 4014   2.524   3.462   2.281 -0.8987 -1.0804 -0.9760
 1350TIP3    H2 4015   2.645   3.412   2.356 -1.2023  2.8783  2.5225
 1351TIP3   OH2 4016   5.028   2.172   1.317  0.3022 -0.1470  0.5772
 1351TIP3    H1 4017   5.064   2.084   1.303  0.0197 -0.6676  2.7630
 1351TIP3    H2 4018   4.934   2.162   1.298  0.3597 -0.1804  0.3037
 1352TIP3   OH2 4019   4.543   6.720   2.958  1.3278 -0.2081  0.4134
 1352TIP3    H1 4020   4.633   6.750   2.946  1.2848 -0.7574 -1.6140
 1352TIP3    H2 4021   4.551   6.638   3.006  1.8934 -0.1482  0.4255
 1353TIP3   OH2 4022   3.086   0.791   0.901 -0.0169  0.0880  0.2116
 1353TIP3    H1 4023   3.049   0.849   0.834 -0.6259 -1.5083 -0.8884
 1353TIP3    H2 4024   3.142   0.849   0.954  0.9977  1.3059 -2.0262
 1354TIP3   OH2 4025   1.023   2.715   5.517  0.5343 -1.0414 -0.2236
 1354TIP3    H1 4026   1.039   2.794   5.465  0.8582 -3.1869 -3.7532
 1354TIP3    H2 4027   1.110   2.684   5.541  0.3767  0.0410  1.9047
 1355TIP3   OH2 4028   0.439   6.057   0.382  0.0061  0.0858 -0.2871
 1355TIP3    H1 4029   0.455   5.963   0.385 -0.6593 -0.0220  1.0014
 1355TIP3    H2 4030   0.348   6.067   0.411  0.2491  1.1600  0.1776
 1356TIP3   OH2 4031   0.026   5.649   2.226  0.3148  0.1877  0.4322
 1356TIP3    H1 4032   0.061   5.733   2.255  0.4630  0.0519  0.6507
 1356TIP3    H2 4033   0.068   5.633   2.142  1.5542 -0.4370  1.1305
 1357TIP3   OH2 4034   6.854   5.529   3.199  0.4978 -0.0404 -0.7669
 1357TIP3    H1 4035   6.801   5.549   3.276  0.3487 -1.7775 -0.3946
 1357TIP3    H2 4036   6.810   5.576   3.127  2.3842  4.2851  0.5676
 1358TIP3   OH2 4037   5.539   4.402   2.315  0.5263 -0.0677 -0.5630
 1358TIP3    H1 4038   5.482   4.366   2.382  2.1696 -1.0457  0.3712
 1358TIP3    H2 4039   5.491   4.390   2.233 -0.5673 -0.8782  0.1822
 1359TIP3   OH2 4040   2.462   2.531   0.805 -0.4261  0.1563  0.1037
 1359TIP3    H1 4041   2.527   2.587   0.762  0.1100  1.0653  1.9642
 1359TIP3    H2 4042   2.463   2.450   0.755  3.3318 -0.4749  0.8845
 1360TIP3   OH2 4043   6.404   1.791   3.262 -0.5831 -0.3533  0.4353
 1360TIP3    H1 4044   6.455   1.821   3.337 -0.4046 -0.3395  0.3090
 1360TIP3    H2 4045   6.383   1.870   3.213 -1.6582 -0.2299  1.0617
 1361TIP3   OH2 4046   4.362   0.648   3.294 -0.1601  0.4397 -0.0961
 1361TIP3    H1 4047   4.340   0.674   3.384  0.3890 -0.9167  0.4614
 1361TIP3    H2 4048   4.375   0.554   3.299  1.5674  0.5671 -1.2442
 1362TIP3   OH2 4049   0.742   5.323   0.532  0.4588  0.0987  0.1712
 1362TIP3    H1 4050   0.815   5.261   0.538  0.5675  0.1792 -0.2828
 1362TIP3    H2 4051   0.664   5.268   0.533  0.5675 -0.4262 -3.6836
 1363TIP3   OH2 4052   6.769   6.513   2.458  0.6611  0.6703  0.7177
 1363TIP3    H1 4053   6.823   6.471   2.525  1.0877 -1.0307 -0.6186
 1363TIP3    H2 4054   6.693   6.545   2.505  0.1213 -1.9743  1.8347
 1364TIP3   OH2 4055   5.952   2.209   1.025 -0.4522 -0.0364  0.2339
 1364TIP3    H1 4056   6.025   2.148   1.037 -0.0505  0.4152  0.0960
 1364TIP3    H2 4057   5.957   2.234   0.933 -0.7923 -0.0137  0.2218
 1365TIP3   OH2 4058   6.727   4.420   3.802 -0.2789 -0.0635 -0.4352
 1365TIP3    H1 4059   6.760   4.508   3.819 -0.4986 -0.1301  0.3766
 1365TIP3    H2 4060   6.636   4.432   3.776 -0.0822  0.0011 -1.1226
 1366TIP3   OH2 4061   2.501   5.511   5.572 -0.9124  0.9102  0.0890
 1366TIP3    H1 4062   2.548   5.523   5.654 -0.1842  2.3570 -0.4938
 1366TIP3    H2 4063   2.409   5.520   5.596 -0.8916 -1.1867  1.1155
 1367TIP3   OH2 4064   2.824   3.587   2.760 -0.2516  0.0404  0.2899
 1367TIP3    H1 4065   2.858   3.570   2.848  0.0901 -0.9008 -0.0178
 1367TIP3    H2 4066   2.799   3.501   2.726  0.3356  0.2871 -0.8243
 1368TIP3   OH2 4067   0.287   3.733   3.538 -0.1941 -0.0888  0.0403
 1368TIP3    H1 4068   0.276   3.638   3.535  0.7828 -0.1915 -2.3084
 1368TIP3    H2 4069   0.359   3.746   3.601  0.0514 -0.9573 -0.0463
 1369TIP3   OH2 4070   3.616   1.001   1.418  0.0010  0.1764  0.3503
 1369TIP3    H1 4071   3.675   1.009   1.343  0.0906 -3.3108 -0.0966
 1369TIP3    H2 4072   3.529   1.020   1.381 -0.1341 -2.7375 -1.1048
 1370TIP3   OH2 4073   6.955   6.116   0.405  0.0759 -0.4200 -0.2746
 1370TIP3    H1 4074   7.006   6.091   0.328  1.0938  0.2209  0.1674
 1370TIP3    H2 4075   6.868   6.135   0.372  0.5610  0.0715 -1.3064
 1371TIP3   OH2 4076   6.659   1.683   5.471 -0.4141  0.3245  0.0311
 1371TIP3    H1 4077   6.673   1.730   5.553  1.8672 -0.8150  0.3952
 1371TIP3    H2 4078   6.600   1.611   5.493 -1.1132  0.9660  0.2734
 1372TIP3   OH2 4079   6.014   4.857   4.874  0.2726 -0.2534 -0.1505
 1372TIP3    H1 4080   6.067   4.846   4.795  2.2064 -0.5387  1.1299
 1372TIP3    H2 4081   5.940   4.911   4.845  1.9557  1.3644 -1.7566
 1373TIP3   OH2 4082   4.041   3.491   0.607  0.1201  0.0730 -0.2644
 1373TIP3    H1 4083   3.988   3.568   0.628 -0.3112  0.1049 -1.4193
 1373TIP3    H2 4084   4.132   3.521   0.617 -0.0501  0.2134  1.0248
 1374TIP3   OH2 4085   4.346   4.383   3.406 -0.1549 -0.8129  0.1833
 1374TIP3    H1 4086   4.378   4.469   3.433 -1.1730 -1.0160  2.2560
 1374TIP3    H2 4087   4.279   4.402   3.340  0.2831 -0.0704 -0.0546
 1375TIP3   OH2 4088   4.328   0.187   2.667  0.0299  0.4287 -0.0569
 1375TIP3    H1 4089   4.387   0.213   2.737  1.7731  1.1595 -1.7027
 1375TIP3    H2 4090   4.287   0.269   2.638  0.1091  0.2963 -0.5568
 1376TIP3   OH2 4091   2.520   5.100   4.093  0.1624  0.1041 -0.0863
 1376TIP3    H1 4092   2.560   5.186   4.080 -1.4676  1.4123  2.5780
 1376TIP3    H2 4093   2.428   5.113   4.070  0.3654 -1.7656 -2.3215
 1377TIP3   OH2 4094   5.688   4.416   5.357  0.2266  0.0487  0.5267
 1377TIP3    H1 4095   5.662   4.333   5.317  2.2593 -1.3382  1.8586
 1377TIP3    H2 4096   5.614   4.475   5.343 -0.4488 -1.3301 -2.2882
 1378TIP3   OH2 4097   0.671   2.156   3.594 -0.1666 -0.1552  0.3102
 1378TIP3    H1 4098   0.709   2.176   3.679  2.2369 -3.6914  0.2776
 1378TIP3    H2 4099   0.593   2.104   3.613  0.8546 -1.7006  0.4518
 1379TIP3   OH2 4100   5.446   5.671   2.521  0.0701 -0.1876  0.8534
 1379TIP3    H1 4101   5.476   5.617   2.448  0.1982  0.0777  0.7089
 1379TIP3    H2 4102   5.499   5.642   2.596 -0.8411 -1.2378  1.1073
 1380TIP3   OH2 4103   3.769   2.998   4.441 -0.5274 -0.0783 -0.2160
 1380TIP3    H1 4104   3.742   3.057   4.511 -0.8233 -1.3411  0.7761
 1380TIP3    H2 4105   3.808   3.055   4.375  0.0761  1.1247  1.1167
 1381TIP3   OH2 4106   4.366   3.674   1.044  0.4329 -0.6245  0.0415
 1381TIP3    H1 4107   4.279   3.714   1.032  0.1469 -0.6823  1.7063
 1381TIP3    H2 4108   4.371   3.656   1.138  1.4983 -2.3870 -0.3228
 1382TIP3   OH2 4109   3.325   6.498   0.325  0.2450 -0.4893  0.8013
 1382TIP3    H1 4110   3.319   6.408   0.293  1.2650 -0.8494  1.5830
 1382TIP3    H2 4111   3.273   6.499   0.405 -0.1777 -0.2552  0.5235
 1383TIP3   OH2 4112   5.984   0.990   0.188  0.0899  0.2311 -0.3486
 1383TIP3    H1 4113   5.907   1.039   0.158 -0.3633 -0.7566 -0.8792
 1383TIP3    H2 4114   5.984   1.001   0.283 -0.2299  0.9186 -0.4231
 1384TIP3   OH2 4115   0.615   5.656   5.273  0.5472 -0.4414 -0.3849
 1384TIP3    H1 4116   0.669   5.590   5.230  0.2964 -0.9381  0.0450
 1384TIP3    H2 4117   0.674   5.700   5.334  0.1177 -2.1510  1.3553
 1385TIP3   OH2 4118   3.505   2.993   4.350  0.0693 -0.7257 -0.1963
 1385TIP3    H1 4119   3.467   3.033   4.428 -1.2340  1.5531 -1.8837
 1385TIP3    H2 4120   3.599   2.992   4.367  0.2485  3.3120  0.0188
 1386TIP3   OH2 4121   0.813   2.307   5.439 -0.2383 -0.6933 -0.5530
 1386TIP3    H1 4122   0.719   2.323   5.435 -0.0903 -0.0606 -2.2097
 1386TIP3    H2 4123   0.822   2.229   5.493 -1.3950  1.5887  3.3442
 1387TIP3   OH2 4124   7.010   3.407   4.452  0.4253 -0.7707 -0.0842
 1387TIP3    H1 4125   6.922   3.402   4.416  1.3496  0.3245 -2.7350
 1387TIP3    H2 4126   7.057   3.335   4.411  1.1963 -0.3190 -0.0112
 1388TIP3   OH2 4127   0.890   2.850   2.432 -0.0171 -0.2493  0.3163
 1388TIP3    H1 4128   0.867   2.918   2.495  1.6531  0.5897  0.0644
 1388TIP3    H2 4129   0.809   2.833   2.384 -0.4732  1.5456  0.4036
 1389TIP3   OH2 4130   5.454   6.043   0.386 -0.0401  0.1410 -0.3061
 1389TIP3    H1 4131   5.522   6.010   0.327  0.4833  0.0783  0.3166
 1389TIP3    H2 4132   5.415   5.964   0.425  0.4640  0.2125  0.3579
 1390TIP3   OH2 4133   2.320   2.658   5.154  0.6956  0.0509 -0.4115
 1390TIP3    H1 4134   2.416   2.664   5.145  0.8752  0.7491  1.5080
 1390TIP3    H2 4135   2.297   2.732   5.210 -1.3053  1.3447 -2.7622
 1391TIP3   OH2 4136   2.984   5.732   1.852 -0.2434 -0.0181 -0.3995
 1391TIP3    H1 4137   2.904   5.751   1.900  0.9448  0.6156  1.4667
 1391TIP3    H2 4138   3.040   5.808   1.868  1.7388 -1.5929  0.6689
 1392TIP3   OH2 4139   6.298   3.336   1.788  0.0922  0.1010  0.6337
 1392TIP3    H1 4140   6.275   3.372   1.702  0.3213  0.2537  0.6332
 1392TIP3    H2 4141   6.310   3.242   1.772  1.1835  0.2869  0.2715
 1393TIP3   OH2 4142   2.884   6.418  -0.010  0.4210 -0.6719  0.3058
 1393TIP3    H1 4143   2.854   6.427   0.080 -2.9108  1.1795 -0.8121
 1393TIP3    H2 4144   2.961   6.362  -0.004  1.0717  0.3316  4.3812
 1394TIP3   OH2 4145   6.365   4.078   2.506  0.0769 -0.5231  0.2955
 1394TIP3    H1 4146   6.453   4.057   2.474  0.5078 -0.3319  1.3184
 1394TIP3    H2 4147   6.358   4.173   2.495  0.1898 -0.4705  0.6562
 1395TIP3   OH2 4148   4.133   5.407   4.142  0.1417  0.0490 -0.3001
 1395TIP3    H1 4149   4.185   5.487   4.146  0.8842 -0.4666  1.2147
 1395TIP3    H2 4150   4.116   5.385   4.234  0.4512 -1.8416 -0.6504
 1396TIP3   OH2 4151   2.985   4.347   5.358 -0.2206  0.1563 -0.6637
 1396TIP3    H1 4152   3.058   4.404   5.332 -0.8217  0.8219 -0.9351
 1396TIP3    H2 4153   2.907   4.398   5.337 -0.8253 -1.3655 -2.3598
 1397TIP3   OH2 4154   7.150   4.600   3.829 -0.4115  0.2785  1.1481
 1397TIP3    H1 4155   7.136   4.507   3.846  0.1737 -0.2013 -0.7657
 1397TIP3    H2 4156   7.197   4.632   3.906 -1.3902 -0.7935  2.2200
 1398TIP3   OH2 4157   4.713   5.432   5.415  0.0435  0.1264  0.1603
 1398TIP3    H1 4158   4.621   5.405   5.419 -0.1461  0.8416  1.3968
 1398TIP3    H2 4159   4.733   5.435   5.322 -1.6412  1.3573 -0.2211
 1399TIP3   OH2 4160   1.040   0.651   1.298 -0.2948 -0.2411  0.7242
 1399TIP3    H1 4161   1.091   0.571   1.286  2.1114  0.8725  2.6359
 1399TIP3    H2 4162   1.105   0.721   1.300 -2.3355  1.8762 -1.1956
 1400TIP3   OH2 4163   0.050   3.858   0.726  0.0921  0.5576  0.1117
 1400TIP3    H1 4164  -0.006   3.819   0.659 -1.2160  0.7533  1.0594
 1400TIP3    H2 4165  -0.000   3.932   0.759  1.7895  2.0257 -0.4315
 1401TIP3   OH2 4166   5.432   0.304   3.360  0.2837 -0.2526 -0.1879
 1401TIP3    H1 4167   5.466   0.299   3.271  0.9174 -1.2598  0.0925
 1401TIP3    H2 4168   5.340   0.278   3.353  0.9292 -2.7491 -0.2491
 1402TIP3   OH2 4169   3.728   5.076   5.060  0.2338  0.3672  0.2071
 1402TIP3    H1 4170   3.679   5.072   5.142 -0.8554  3.5574 -0.1247
 1402TIP3    H2 4171   3.814   5.041   5.081 -0.3309  0.1727  2.4285
 1403TIP3   OH2 4172   4.523   0.545   2.521  0.5548  0.3058 -0.4039
 1403TIP3    H1 4173   4.438   0.530   2.561  0.8627 -1.8634 -0.4477
 1403TIP3    H2 4174   4.510   0.622   2.465 -1.6229 -0.4658 -1.0672
 1404TIP3   OH2 4175   0.686   3.371   2.326 -0.0260 -0.0325 -0.0875
 1404TIP3    H1 4176   0.624   3.387   2.397 -0.5834  2.2245 -1.0121
 1404TIP3    H2 4177   0.664   3.435   2.259  0.3784 -2.1532 -2.4183
 1405TIP3   OH2 4178   2.065   1.749   5.726 -0.4316 -0.2032 -0.0199
 1405TIP3    H1 4179   2.041   1.838   5.754 -0.0299  0.1036 -0.6138
 1405TIP3    H2 4180   1.982   1.711   5.697 -0.7748 -0.3791  1.1660
 1406TIP3   OH2 4181   6.546   3.063   1.496 -0.2604  0.8036 -0.2350
 1406TIP3    H1 4182   6.519   3.103   1.414  0.4015  2.2424  0.2099
 1406TIP3    H2 4183   6.637   3.092   1.507  0.8969 -2.2985 -0.7536
 1407TIP3   OH2 4184   5.916   2.080   3.994 -0.1747  0.3801  0.1147
 1407TIP3    H1 4185   5.856   2.056   4.064  0.3200 -0.7912  0.1624
 1407TIP3    H2 4186   5.861   2.117   3.925 -0.7462  0.8330  0.8047
 1408TIP3   OH2 4187   1.866   0.157   3.438  0.8288 -0.1234 -0.2496
 1408TIP3    H1 4188   1.798   0.170   3.372  1.8981  2.1541 -0.9999
 1408TIP3    H2 4189   1.853   0.229   3.500  0.4954 -1.6239  1.5002
 1409TIP3   OH2 4190   5.045   3.833   2.308 -0.1778 -0.2774 -0.1670
 1409TIP3    H1 4191   4.976   3.773   2.334  0.5658 -0.4124  1.6493
 1409TIP3    H2 4192   5.004   3.919   2.309 -0.0278 -0.1412  2.5261
 1410TIP3   OH2 4193   2.203   4.243   5.547  0.2011  0.0486 -0.4661
 1410TIP3    H1 4194   2.189   4.155   5.582 -0.6688 -0.8990 -2.9735
 1410TIP3    H2 4195   2.159   4.301   5.609 -0.0422 -1.3538  0.7329
 1411TIP3   OH2 4196   4.865   3.366   2.316  0.1678 -0.3603 -0.1546
 1411TIP3    H1 4197   4.903   3.329   2.396  2.1701 -1.2663 -1.4476
 1411TIP3    H2 4198   4.865   3.294   2.253 -1.1190  0.3993 -1.0959
 1412TIP3   OH2 4199   6.790   5.175   2.878  0.7540 -0.1048  0.6783
 1412TIP3    H1 4200   6.794   5.083   2.905  0.0900  0.0101  1.2137
 1412TIP3    H2 4201   6.779   5.172   2.783  0.5097 -0.5914  0.7154
 1413TIP3   OH2 4202   2.612   4.263   3.656 -0.5556 -0.6530 -0.4005
 1413TIP3    H1 4203   2.702   4.257   3.623 -0.4438 -0.3576 -0.1578
 1413TIP3    H2 4204   2.558   4.231   3.585 -0.1048 -3.2351  0.3313
 1414TIP3   OH2 4205   6.582   1.491   3.868 -0.3049 -0.3393  0.4517
 1414TIP3    H1 4206   6.496   1.506   3.829 -0.4130  0.0638  0.8427
 1414TIP3    H2 4207   6.566   1.486   3.962  0.0171 -0.8715  0.4854
 1415TIP3   OH2 4208   2.005   4.651   3.311  0.2136  0.1987 -0.3206
 1415TIP3    H1 4209   1.951   4.651   3.232 -1.1874  2.2066  0.5290
 1415TIP3    H2 4210   1.976   4.574   3.360 -1.2784  0.7384 -0.3048
 1416TIP3   OH2 4211   1.078   0.189   4.076 -0.0680  0.1375 -0.5023
 1416TIP3    H1 4212   1.122   0.201   4.160 -1.0199  1.3910 -0.1556
 1416TIP3    H2 4213   1.021   0.265   4.067 -0.0584 -0.0072 -2.2562
 1417TIP3   OH2 4214   2.001   1.109   0.020  0.1611 -0.6268 -0.0899
 1417TIP3    H1 4215   2.041   1.196   0.017  0.8576 -0.9381  0.1975
 1417TIP3    H2 4216   2.062   1.055   0.070 -0.2354 -1.3052 -0.3222
 1418TIP3   OH2 4217   2.508   5.174   0.011 -0.6805 -0.0025  0.0489
 1418TIP3    H1 4218   2.546   5.242   0.067 -1.3408  0.4226 -0.0087
 1418TIP3    H2 4219   2.413   5.185   0.022 -0.8389  0.5330 -1.6949
 1419TIP3   OH2 4220   6.950   0.418   0.721  1.4086 -0.0002  0.0072
 1419TIP3    H1 4221   6.907   0.423   0.806 -0.1862 -1.0140 -0.7087
 1419TIP3    H2 4222   6.900   0.477   0.665  1.3814 -0.6257 -0.6478
 1420TIP3   OH2 4223   4.997   3.189   1.784 -0.0387  0.1831 -0.4147
 1420TIP3    H1 4224   5.043   3.258   1.832  1.3381 -2.1030  1.7739
 1420TIP3    H2 4225   5.021   3.204   1.692  1.6038  1.6139  0.1915
 1421TIP3   OH2 4226   4.047   2.402   2.258  0.0393 -0.7200  0.0126
 1421TIP3    H1 4227   4.109   2.344   2.213 -0.3037 -0.7577 -0.4113
 1421TIP3    H2 4228   4.093   2.428   2.338  0.3704 -1.2229 -0.0101
 1422TIP3   OH2 4229   3.434   5.907   5.041 -0.2670  0.4779 -0.0391
 1422TIP3    H1 4230   3.460   5.854   4.966  1.3015  0.3213  0.5758
 1422TIP3    H2 4231   3.448   5.998   5.012  1.1494  0.3942  0.3113
 1423TIP3   OH2 4232   6.110   3.095   3.648  0.0791 -0.2279  0.1969
 1423TIP3    H1 4233   6.192   3.134   3.679  0.5517 -0.6588 -0.4764
 1423TIP3    H2 4234   6.131   3.002   3.638 -0.6071 -0.4016  0.3770
 1424TIP3   OH2 4235   5.226   6.085   0.200 -0.0791  0.1298  0.0693
 1424TIP3    H1 4236   5.251   6.172   0.170  0.9212 -0.1219  0.1568
 1424TIP3    H2 4237   5.288   6.064   0.270 -0.7901 -0.3460  0.5743
 1425TIP3   OH2 4238   0.370   2.492   1.755 -0.4192  0.1284 -0.1141
 1425TIP3    H1 4239   0.441   2.533   1.706 -1.1019 -0.5996 -1.7887
 1425TIP3    H2 4240   0.402   2.404   1.773 -0.1352  0.4196  0.8818
 1426TIP3   OH2 4241   5.065   1.155   3.260 -0.0122 -0.1277 -0.3559
 1426TIP3    H1 4242   5.089   1.140   3.168  0.1239  0.8845 -0.4956
 1426TIP3    H2 4243   5.029   1.072   3.289 -1.1134 -0.1312 -1.6597
 1427TIP3   OH2 4244   6.075   5.513   5.311 -0.2063 -0.2382 -0.6528
 1427TIP3    H1 4245   6.050   5.592   5.359  0.6927  0.0245 -0.5904
 1427TIP3    H2 4246   5.996   5.488   5.264 -1.2974 -0.8529  1.3997
 1428TIP3   OH2 4247   3.992   6.318   0.525  0.2351  0.1324  0.1711
 1428TIP3    H1 4248   4.000   6.261   0.601 -0.7101  0.6767  0.7036
 1428TIP3    H2 4249   3.904   6.354   0.531 -0.0199 -0.1244 -1.4201
 1429TIP3   OH2 4250   2.817   0.218   4.417 -0.0670  0.0320  0.4920
 1429TIP3    H1 4251   2.749   0.175   4.468 -1.8451 -0.4567 -2.0830
 1429TIP3    H2 4252   2.770   0.281   4.362  1.7400  0.7851 -0.2791
 1430TIP3   OH2 4253   1.149   0.626   0.969  0.0696  0.0248  0.4142
 1430TIP3    H1 4254   1.148   0.570   1.047 -2.6433  0.2498  0.6144
 1430TIP3    H2 4255   1.161   0.714   1.003 -1.1449  0.1259  0.6095
 1431TIP3   OH2 4256   1.275   4.292   0.578  0.4161  0.8590 -0.3394
 1431TIP3    H1 4257   1.293   4.223   0.642  1.0220  0.7928 -0.5726
 1431TIP3    H2 4258   1.275   4.373   0.629 -1.8846  0.5634  0.2114
 1432TIP3   OH2 4259   0.354   3.156   0.759 -0.5107  0.1224  0.0783
 1432TIP3    H1 4260   0.365   3.134   0.667  1.9857  1.4650 -0.0455
 1432TIP3    H2 4261   0.260   3.168   0.770 -0.7576  1.5763 -2.7405
 1433TIP3   OH2 4262   0.408   1.170   4.105 -0.0163 -0.2752 -0.2659
 1433TIP3    H1 4263   0.361   1.086   4.104  1.8483 -1.3867 -1.7856
 1433TIP3    H2 4264   0.444   1.176   4.193 -0.4888 -0.9010 -0.0223
 1434TIP3   OH2 4265   0.707   3.264   3.673  0.1734 -0.2963 -0.1002
 1434TIP3    H1 4266   0.801   3.266   3.691  0.1935 -3.4980  0.6939
 1434TIP3    H2 4267   0.699   3.209   3.595 -1.0157  0.8894 -0.8524
 1435TIP3   OH2 4268   2.590   3.376   0.825 -0.5593  0.2049 -0.6553
 1435TIP3    H1 4269   2.535   3.428   0.765 -2.7079 -1.5009 -0.2797
 1435TIP3    H2 4270   2.567   3.285   0.806  0.8122 -0.4933  0.8206
 1436TIP3   OH2 4271   2.540   3.661   1.000 -0.1048 -0.4245 -0.1989
 1436TIP3    H1 4272   2.568   3.693   1.086 -0.2331 -0.5266 -0.1194
 1436TIP3    H2 4273   2.546   3.565   1.007  3.4759 -0.4361 -1.4628
 1437TIP3   OH2 4274   1.246   5.962   2.590  0.0193 -0.0102 -0.0780
 1437TIP3    H1 4275   1.255   6.003   2.676  0.1764 -0.8844  0.3419
 1437TIP3    H2 4276   1.173   5.900   2.602 -0.3044  0.2402 -0.7276
 1438TIP3   OH2 4277   1.722   5.773   4.033 -0.1306  0.0995  0.4469
 1438TIP3    H1 4278   1.649   5.781   4.094  0.4514  0.2033  1.1427
 1438TIP3    H2 4279   1.797   5.809   4.080  0.3444  0.1125 -0.3037
 1439TIP3   OH2 4280   3.730   3.707   0.133  0.0293  0.2216 -0.1347
 1439TIP3    H1 4281   3.793   3.726   0.202  0.4921  1.7198 -0.9296
 1439TIP3    H2 4282   3.778   3.722   0.051 -1.3335  1.4120 -0.7620
 1440TIP3   OH2 4283   3.701   2.325   3.993 -0.7698  0.0620 -0.0176
 1440TIP3    H1 4284   3.709   2.329   3.898  2.8559  0.7551  0.1663
 1440TIP3    H2 4285   3.642   2.252   4.010  0.5865 -1.8499 -2.7994
 1441TIP3   OH2 4286   1.462   5.163   5.548  0.2741  0.0971  0.4057
 1441TIP3    H1 4287   1.528   5.183   5.614 -0.1898  3.6732  0.0064
 1441TIP3    H2 4288   1.395   5.230   5.560  0.6579  1.7195 -4.2357
 1442TIP3   OH2 4289   3.358   0.154   0.727  0.1294  0.1734 -0.1993
 1442TIP3    H1 4290   3.410   0.105   0.663  0.5344 -1.0452  1.0276
 1442TIP3    H2 4291   3.354   0.097   0.804 -2.3668  0.5555  0.0500
 1443TIP3   OH2 4292   2.010   5.048   0.329 -0.0512  0.6478 -0.2006
 1443TIP3    H1 4293   2.042   4.985   0.393 -2.4902 -0.8247 -0.2821
 1443TIP3    H2 4294   2.012   5.132   0.374 -0.0174 -0.0731  1.1891
 1444TIP3   OH2 4295   6.283   5.904   2.793 -0.1513  0.2736  0.0364
 1444TIP3    H1 4296   6.257   5.931   2.881 -0.4928  0.5474 -0.1434
 1444TIP3    H2 4297   6.360   5.957   2.773  0.9125 -0.9306  0.7852
 1445TIP3   OH2 4298   4.578   2.787   0.583  0.3304  0.1272  0.6874
 1445TIP3    H1 4299   4.562   2.725   0.654  0.1586 -0.1417  0.4145
 1445TIP3    H2 4300   4.500   2.844   0.584 -0.0643 -0.3865  0.1902
 1446TIP3   OH2 4301   0.159   1.288   4.034  0.1861  0.1553  0.1475
 1446TIP3    H1 4302   0.250   1.274   4.058 -0.2038 -0.0421  1.6188
 1446TIP3    H2 4303   0.163   1.326   3.946  1.7713  1.7109  0.8327
 1447TIP3   OH2 4304   1.692   3.614   2.254 -0.1140  0.2760 -0.1176
 1447TIP3    H1 4305   1.739   3.531   2.252 -0.0398  0.3185 -2.0543
 1447TIP3    H2 4306   1.708   3.649   2.342  1.1337 -1.0187  0.2042
 1448TIP3   OH2 4307   3.173   3.411   1.652 -0.6905 -0.4539  0.1295
 1448TIP3    H1 4308   3.144   3.487   1.602 -0.4638  0.5568  1.4766
 1448TIP3    H2 4309   3.117   3.340   1.622 -0.1657 -0.0539 -1.9768
 1449TIP3   OH2 4310   3.980   0.152   2.452  0.4689 -0.5278 -0.4815
 1449TIP3    H1 4311   4.057   0.179   2.402 -1.4926  0.5204 -3.1708
 1449TIP3    H2 4312   3.909   0.206   2.418 -1.4561 -1.2732  2.0521
 1450TIP3   OH2 4313   7.136   3.572   1.114 -0.3096  0.0627  0.0090
 1450TIP3    H1 4314   7.148   3.638   1.183 -0.6200  0.0655  0.0611
 1450TIP3    H2 4315   7.098   3.621   1.041  0.3085  0.1234 -0.2782
 1451TIP3   OH2 4316   1.188   3.070   1.343 -0.6079 -0.1698  0.0294
 1451TIP3    H1 4317   1.167   3.148   1.395  1.5915  1.5423 -1.4695
 1451TIP3    H2 4318   1.113   3.059   1.284 -0.8742  0.9261  0.1425
 1452TIP3   OH2 4319   5.082   2.126   4.386 -0.1375 -0.3257 -0.1213
 1452TIP3    H1 4320   5.104   2.191   4.452 -0.1177  0.8478 -1.2454
 1452TIP3    H2 4321   5.005   2.161   4.342 -0.6591 -1.4997 -0.1800
 1453TIP3   OH2 4322   3.715   4.974   4.445 -0.1532  0.2180  0.3330
 1453TIP3    H1 4323   3.656   5.043   4.474 -0.9205 -0.2387 -0.0953
 1453TIP3    H2 4324   3.660   4.895   4.445  0.1693 -0.0263 -1.0867
 1454TIP3   OH2 4325   4.883   6.545   4.283  0.3563 -0.3402  0.0801
 1454TIP3    H1 4326   4.880   6.633   4.321  0.7324  0.2458 -1.1896
 1454TIP3    H2 4327   4.945   6.553   4.210  1.2034 -1.9269  0.5862
 1455TIP3   OH2 4328   2.759   3.043   1.742  0.0065 -0.5491 -0.4817
 1455TIP3    H1 4329   2.711   3.119   1.777  2.3139  1.2206 -0.9204
 1455TIP3    H2 4330   2.828   3.026   1.806  0.9337 -0.7794 -1.5066
 1456TIP3   OH2 4331   5.539   5.748   4.672  0.3691 -0.5075  0.1757
 1456TIP3    H1 4332   5.500   5.826   4.631 -0.0792  0.3013  2.0381
 1456TIP3    H2 4333   5.489   5.675   4.636 -1.6120  0.3536  1.0245
 1457TIP3   OH2 4334   4.324   0.087   5.637  0.0867  0.7859  0.4418
 1457TIP3    H1 4335   4.311  -0.007   5.628 -0.9552  0.9214  0.3672
 1457TIP3    H2 4336   4.269   0.111   5.713  1.2955  1.1438  1.2291
 1458TIP3   OH2 4337   0.151   4.463   2.761 -0.3086  0.0935  0.5477
 1458TIP3    H1 4338   0.169   4.439   2.852 -0.0531 -2.0885 -0.0182
 1458TIP3    H2 4339   0.234   4.498   2.729  0.0563 -0.5526  0.7529
 1459TIP3   OH2 4340   7.168   6.447   4.493  0.2374 -0.1632  0.8967
 1459TIP3    H1 4341   7.117   6.383   4.543  1.3947 -1.4578  0.5063
 1459TIP3    H2 4342   7.239   6.472   4.552  0.2970  0.0720  0.7257
 1460TIP3   OH2 4343   4.692   6.349   4.257 -0.3224  0.5080  0.0158
 1460TIP3    H1 4344   4.649   6.342   4.342 -1.4096 -0.1415 -0.5562
 1460TIP3    H2 4345   4.752   6.423   4.266 -0.4261  0.4500  1.3368
 1461TIP3   OH2 4346   6.877   2.762   2.327  0.5417  0.6143 -0.2584
 1461TIP3    H1 4347   6.848   2.776   2.417  0.7562 -1.3302  0.1706
 1461TIP3    H2 4348   6.968   2.732   2.335  1.3632  2.6244 -1.3107
 1462TIP3   OH2 4349   4.218   3.007   4.780  0.3253 -0.2399 -0.1865
 1462TIP3    H1 4350   4.208   2.939   4.846 -0.1299 -0.2531 -0.2647
 1462TIP3    H2 4351   4.307   2.996   4.747  0.3544 -0.6043  0.0149
 1463TIP3   OH2 4352   2.380   3.424   2.689  0.1547  0.2231  0.1937
 1463TIP3    H1 4353   2.384   3.329   2.684  1.5549 -0.0199  3.4522
 1463TIP3    H2 4354   2.457   3.454   2.639  0.2399 -0.3973 -0.0564
 1464TIP3   OH2 4355   1.373   4.365   1.025 -0.5978  0.3251 -0.1309
 1464TIP3    H1 4356   1.322   4.387   0.947 -0.4180  0.7049 -0.1448
 1464TIP3    H2 4357   1.329   4.411   1.096 -1.3638 -0.8332  0.1731
 1465TIP3   OH2 4358   1.340   3.441   5.619  0.0834 -0.1940  0.6011
 1465TIP3    H1 4359   1.311   3.396   5.699  1.6784 -3.7717 -0.5925
 1465TIP3    H2 4360   1.278   3.413   5.552  2.1068 -2.3247 -0.5409
 1466TIP3   OH2 4361   0.958   2.345   2.936  0.0047 -0.5582 -0.1248
 1466TIP3    H1 4362   0.983   2.346   2.844  0.7811  2.4818  0.0122
 1466TIP3    H2 4363   1.042   2.344   2.983 -0.2928  0.6957  0.4733
 1467TIP3   OH2 4364   6.232   1.331   1.650  0.4052  0.3264 -0.5801
 1467TIP3    H1 4365   6.306   1.389   1.632 -0.3870  1.3029 -0.8252
 1467TIP3    H2 4366   6.155   1.383   1.625 -0.4462 -0.1164  0.9555
 1468TIP3   OH2 4367   4.110   2.108   0.286  0.3980 -0.6288  0.2561
 1468TIP3    H1 4368   4.089   2.155   0.206 -0.3979 -1.2151  0.1136
 1468TIP3    H2 4369   4.112   2.016   0.261 -0.2298 -0.8506  0.9827
 1469TIP3   OH2 4370   1.451   1.421   4.572  0.2834  0.3656 -0.0299
 1469TIP3    H1 4371   1.417   1.486   4.510 -0.6951  0.0049  0.1075
 1469TIP3    H2 4372   1.375   1.395   4.624  0.8146 -0.3300  0.4278
 1470TIP3   OH2 4373   4.163   1.827   4.767 -0.2064 -0.1516 -0.0265
 1470TIP3    H1 4374   4.180   1.733   4.778  0.7526 -0.3189 -2.3984
 1470TIP3    H2 4375   4.157   1.839   4.672  0.4122  2.3110  0.1977
 1471TIP3   OH2 4376   0.623   4.577   2.790  0.1742  0.3934  0.1227
 1471TIP3    H1 4377   0.661   4.641   2.731  1.2905 -0.1372  0.2286
 1471TIP3    H2 4378   0.686   4.505   2.791 -0.1553  0.0892  1.4069
 1472TIP3   OH2 4379   2.231   2.659   3.589 -0.2984  0.2610  0.0374
 1472TIP3    H1 4380   2.279   2.578   3.574 -1.6530 -0.3909 -1.0869
 1472TIP3    H2 4381   2.221   2.697   3.501 -0.7153  1.0215  0.4036
 1473TIP3   OH2 4382   1.415   1.773   5.626  0.4038  0.4961  0.2330
 1473TIP3    H1 4383   1.457   1.845   5.581  2.2989 -1.3701 -1.2092
 1473TIP3    H2 4384   1.323   1.778   5.601  0.6224  2.0108 -0.3322
 1474TIP3   OH2 4385   2.028   5.673   2.806 -0.1568 -0.2558  0.1277
 1474TIP3    H1 4386   2.012   5.742   2.871 -1.1400  0.7442 -1.1049
 1474TIP3    H2 4387   2.085   5.715   2.741 -1.3563 -0.3320 -1.0130
 1475TIP3   OH2 4388   3.387   3.511   1.406 -0.6679 -0.3990  0.1851
 1475TIP3    H1 4389   3.378   3.532   1.313  0.7059  2.3599  0.5652
 1475TIP3    H2 4390   3.349   3.424   1.415 -2.4415 -0.0295 -2.6196
 1476TIP3   OH2 4391   4.424   6.106   5.779  0.2043 -0.2089  0.1182
 1476TIP3    H1 4392   4.357   6.152   5.829 -1.3594  0.3832 -2.3336
 1476TIP3    H2 4393   4.494   6.088   5.842 -1.2094  1.2993  2.2283
 1477TIP3   OH2 4394   2.020   5.107   5.236  0.0667  0.0518 -0.1039
 1477TIP3    H1 4395   2.096   5.067   5.279  0.4043 -1.1531 -1.7023
 1477TIP3    H2 4396   1.947   5.086   5.293  0.9953  2.0603  1.9745
 1478TIP3   OH2 4397   0.412   1.539   4.075  0.0945  0.2516 -0.5747
 1478TIP3    H1 4398   0.468   1.469   4.040  1.6606  0.6971  0.9395
 1478TIP3    H2 4399   0.468   1.616   4.076 -1.2859  1.2960 -1.1890
 1479TIP3   OH2 4400   0.250   4.010   3.985 -0.4362 -0.1905  0.4285
 1479TIP3    H1 4401   0.217   4.063   3.913  0.3239  0.6186  0.6544
 1479TIP3    H2 4402   0.310   4.068   4.032  0.3277 -1.2133  0.7603
 1480TIP3   OH2 4403   6.258   2.424   3.400  1.0135  0.3281  0.3412
 1480TIP3    H1 4404   6.267   2.435   3.495 -0.1649 -1.6952  0.7444
 1480TIP3    H2 4405   6.192   2.355   3.390  2.8827 -1.2576 -1.9165
 1481TIP3   OH2 4406   3.613   1.901   0.513  0.1256 -0.1384  0.3812
 1481TIP3    H1 4407   3.532   1.858   0.487  0.5888 -0.8098  0.0216
 1481TIP3    H2 4408   3.664   1.907   0.432  1.4755 -2.0036  1.0132
 1482TIP3   OH2 4409   3.730   0.124   4.250  0.1227  0.4644 -0.4392
 1482TIP3    H1 4410   3.651   0.083   4.285  0.6904  0.3071  0.7089
 1482TIP3    H2 4411   3.756   0.068   4.177 -0.7706  0.4651 -0.7602
 1483TIP3   OH2 4412   5.148   1.268   2.553  0.0340 -0.8280 -0.1439
 1483TIP3    H1 4413   5.213   1.200   2.535 -0.1963 -0.8192 -1.0184
 1483TIP3    H2 4414   5.102   1.237   2.631 -0.1082 -1.7025 -0.5670
 1484TIP3   OH2 4415   7.068   5.366   5.382 -0.1966 -0.1205 -0.0542
 1484TIP3    H1 4416   7.065   5.400   5.471 -1.5674  0.2768 -0.2173
 1484TIP3    H2 4417   7.132   5.295   5.385 -2.9714 -2.8730  2.2813
 1485TIP3   OH2 4418   1.974   1.198   2.747 -0.5288  0.2300 -0.2511
 1485TIP3    H1 4419   2.026   1.245   2.682 -0.5744  2.0405  0.9416
 1485TIP3    H2 4420   1.946   1.118   2.703  1.3132  0.3175 -1.6776
 1486TIP3   OH2 4421   0.226   3.793   0.934  0.7663 -0.1274 -0.0232
 1486TIP3    H1 4422   0.160   3.791   0.866  1.9211 -2.3495 -1.1865
 1486TIP3    H2 4423   0.213   3.711   0.983  1.2833  0.4371  1.1015
 1487TIP3   OH2 4424   5.809   3.600   4.000  0.7420 -0.4440  0.0876
 1487TIP3    H1 4425   5.823   3.518   3.953  1.9075  0.0784 -0.5176
 1487TIP3    H2 4426   5.897   3.632   4.018  0.3405  1.3969 -0.9819
 1488TIP3   OH2 4427   4.369   3.483   5.650  0.0519  0.1780 -0.4458
 1488TIP3    H1 4428   4.425   3.477   5.727  0.1154  0.3850 -0.4764
 1488TIP3    H2 4429   4.318   3.402   5.652 -1.1888  0.9500  0.7713
 1489TIP3   OH2 4430   4.398   4.659   3.452  0.4131 -0.1348  0.1666
 1489TIP3    H1 4431   4.367   4.747   3.475  0.4916  0.1378 -0.7643
 1489TIP3    H2 4432   4.428   4.666   3.362  1.7700 -0.7695  0.5280
 1490TIP3   OH2 4433   0.068   0.429   1.566 -0.3905 -0.0660  0.4208
 1490TIP3    H1 4434   0.025   0.378   1.635 -0.2958  0.4928  0.9106
 1490TIP3    H2 4435   0.161   0.407   1.575 -0.4542 -0.5053  0.0255
 1491TIP3   OH2 4436   1.489   2.198   1.851 -0.1120  0.2266 -0.7938
 1491TIP3    H1 4437   1.507   2.285   1.816 -0.1766  0.6202  0.1142
 1491TIP3    H2 4438   1.550   2.188   1.924  0.3089 -0.7403 -1.2654
 1492TIP3   OH2 4439   3.872   5.167   0.134  0.5405 -0.0305  0.6566
 1492TIP3    H1 4440   3.835   5.079   0.140  1.0669 -0.4019 -1.0576
 1492TIP3    H2 4441   3.946   5.166   0.195  1.9401 -1.5500 -0.9457
 1493TIP3   OH2 4442   0.069  -0.008   4.414  0.5034 -1.0202  0.0013
 1493TIP3    H1 4443   0.122  -0.014   4.493 -1.7264 -3.3156  1.4982
 1493TIP3    H2 4444   0.023   0.075   4.421  1.7336 -0.3379  0.1293
 1494TIP3   OH2 4445   6.443   2.912   3.516 -0.4079 -0.4693 -0.5661
 1494TIP3    H1 4446   6.438   3.005   3.538  0.7216 -0.6727  0.6194
 1494TIP3    H2 4447   6.454   2.911   3.421  0.4757  0.6433 -0.4937
 1495TIP3   OH2 4448   1.939   6.244   3.509 -0.2741  0.0773 -0.5074
 1495TIP3    H1 4449   1.980   6.235   3.595  0.2196 -0.2525 -0.7741
 1495TIP3    H2 4450   1.998   6.198   3.450  0.3713  1.8639 -1.3169
 1496TIP3   OH2 4451   0.113   5.916   2.875 -0.8102  0.3676  0.0463
 1496TIP3    H1 4452   0.130   5.831   2.915  0.1516 -0.1367 -1.3541
 1496TIP3    H2 4453   0.122   5.979   2.946 -0.5614 -0.6009  0.8966
 1497TIP3   OH2 4454   6.381   0.233   0.253  0.1389  0.1984 -0.6137
 1497TIP3    H1 4455   6.298   0.281   0.249 -0.3724 -0.5660  0.4448
 1497TIP3    H2 4456   6.415   0.236   0.163 -1.5732 -0.4188 -1.3190
 1498TIP3   OH2 4457   2.582   1.431   1.098  0.7713  0.3457 -0.3354
 1498TIP3    H1 4458   2.558   1.375   1.172  1.7279  2.7317  1.9205
 1498TIP3    H2 4459   2.505   1.431   1.042  0.2192 -1.9882  0.2947
 1499TIP3   OH2 4460   5.427   0.792   3.982  0.1153 -0.2976  0.3955
 1499TIP3    H1 4461   5.413   0.842   4.062  0.9794  2.2459 -0.9287
 1499TIP3    H2 4462   5.456   0.857   3.918  0.5449 -2.4093 -1.6924
 1500TIP3   OH2 4463   3.377   2.432   4.175  0.2200 -0.2457  0.0749
 1500TIP3    H1 4464   3.348   2.354   4.129 -0.3639  0.5957 -1.0316
 1500TIP3    H2 4465   3.427   2.481   4.110  0.2907  0.4579  0.6473
 1501TIP3   OH2 4466   2.108   0.864   5.556  0.0970 -0.5721 -0.2968
 1501TIP3    H1 4467   2.016   0.872   5.579  0.1491 -0.8233  0.0101
 1501TIP3    H2 4468   2.131   0.948   5.516 -0.0441 -0.1870  0.4102
 1502TIP3   OH2 4469   0.225   1.276   3.754 -0.5926 -0.2624 -0.1522
 1502TIP3    H1 4470   0.303   1.244   3.709  0.8407 -0.6495  2.3955
 1502TIP3    H2 4471   0.181   1.331   3.690  1.4073 -0.5826 -1.9137
 1503TIP3   OH2 4472   4.926   4.385   5.070  0.2174 -0.0168  0.3842
 1503TIP3    H1 4473   4.873   4.340   5.004 -0.5683 -0.6144  1.3960
 1503TIP3    H2 4474   4.965   4.459   5.023  1.2760 -1.5169 -1.2407
 1504TIP3   OH2 4475   4.787   2.318   0.567 -0.1847  0.1669  0.2294
 1504TIP3    H1 4476   4.744   2.294   0.649 -0.1060 -0.1604  0.1783
 1504TIP3    H2 4477   4.717   2.349   0.510 -0.2886  0.0696  0.3043
 1505TIP3   OH2 4478   0.583   4.030   5.142 -0.1291 -0.1764  0.2540
 1505TIP3    H1 4479   0.608   3.975   5.217  0.9295  0.0073  0.0495
 1505TIP3    H2 4480   0.641   4.106   5.147 -1.9759  1.2733  0.8785
 1506TIP3   OH2 4481   6.810   4.798   2.495 -0.5585 -0.6090 -0.4772
 1506TIP3    H1 4482   6.842   4.832   2.411 -2.1899 -1.2208 -1.3918
 1506TIP3    H2 4483   6.853   4.713   2.503  1.7322  0.5524  0.7025
 1507TIP3   OH2 4484   6.570   3.091   2.604  0.3525  0.2902 -0.0593
 1507TIP3    H1 4485   6.508   3.127   2.541  1.2208  1.5747 -0.2296
 1507TIP3    H2 4486   6.542   3.127   2.688  0.2435  0.0070  0.0270
 1508TIP3   OH2 4487   6.946   3.392   0.528  0.6873  0.1256  0.4239
 1508TIP3    H1 4488   6.883   3.463   0.518 -0.4663 -0.7957  0.8227
 1508TIP3    H2 4489   6.957   3.357   0.440  0.3453  0.0513  0.4100
 1509TIP3   OH2 4490   4.844   2.243   4.295 -0.0533  0.6742  0.1525
 1509TIP3    H1 4491   4.799   2.318   4.256  0.1087  1.5126  1.5063
 1509TIP3    H2 4492   4.779   2.203   4.353 -0.0726 -0.1066 -0.4046
 1510TIP3   OH2 4493   3.281   2.350   5.665  0.2192  0.2855  0.8666
 1510TIP3    H1 4494   3.202   2.403   5.662 -0.4912 -0.7623 -1.6816
 1510TIP3    H2 4495   3.333   2.378   5.590  0.8301 -1.1129  0.7189
 1511TIP3   OH2 4496   5.872   4.601   5.461 -0.4800 -0.1686 -0.3221
 1511TIP3    H1 4497   5.804   4.557   5.409  1.4617 -3.5190 -0.2673
 1511TIP3    H2 4498   5.861   4.566   5.549  0.3382  0.5065  0.0575
 1512TIP3   OH2 4499   6.113   4.552   0.961  0.7823  0.0957  0.1117
 1512TIP3    H1 4500   6.138   4.486   0.897  3.6878  0.0012  1.1839
 1512TIP3    H2 4501   6.179   4.621   0.951 -1.1662  2.1136  0.1780
 1513TIP3   OH2 4502   4.479   1.934   3.954 -0.1813  0.2016  0.1168
 1513TIP3    H1 4503   4.494   1.994   3.881 -0.6178  1.2618  0.8658
 1513TIP3    H2 4504   4.385   1.916   3.950  0.2314 -1.9481 -1.2098
 1514TIP3   OH2 4505   3.323   1.698   4.062 -0.1171 -0.1779  0.6423
 1514TIP3    H1 4506   3.305   1.604   4.052 -1.5976 -0.0117  1.4077
 1514TIP3    H2 4507   3.245   1.741   4.026 -0.0451  0.7208  1.5306
 1515TIP3   OH2 4508   0.055   0.877   4.151  0.4127 -0.1541  0.0808
 1515TIP3    H1 4509   0.021   0.851   4.237  1.2578  0.4451  0.6031
 1515TIP3    H2 4510   0.008   0.820   4.089 -1.3415  0.4433  0.7911
 1516TIP3   OH2 4511   4.746   2.107   5.682 -0.0047  0.4002 -0.1366
 1516TIP3    H1 4512   4.774   2.020   5.712 -0.7076 -0.1759 -1.0907
 1516TIP3    H2 4513   4.808   2.167   5.724 -0.2458 -0.4353  1.5311
 1517TIP3   OH2 4514   1.323   3.266   2.541 -0.3314  1.0296 -0.5690
 1517TIP3    H1 4515   1.380   3.206   2.493  0.1300 -0.1353  1.2950
 1517TIP3    H2 4516   1.342   3.352   2.506  0.6816  0.3485 -1.7608
 1518TIP3   OH2 4517   6.610   6.329   4.092  0.2969  0.0194  0.3036
 1518TIP3    H1 4518   6.589   6.412   4.135 -1.4808 -1.1345  1.8731
 1518TIP3    H2 4519   6.699   6.309   4.120 -0.3977 -0.1286  2.6719
 1519TIP3   OH2 4520   2.853   3.375   1.725 -0.4875  0.0462 -0.3278
 1519TIP3    H1 4521   2.923   3.332   1.676  1.0200  1.8097  0.1844
 1519TIP3    H2 4522   2.776   3.320   1.709  1.0066 -2.0532 -0.7881
 1520TIP3   OH2 4523   6.678   0.649   2.679  0.1622 -0.3302  0.4223
 1520TIP3    H1 4524   6.585   0.647   2.698 -0.2351 -0.5035 -1.3315
 1520TIP3    H2 4525   6.713   0.722   2.730 -0.8698 -0.4435  1.3093
 1521TIP3   OH2 4526   2.277   1.701   0.778 -0.5629 -0.1951  1.1712
 1521TIP3    H1 4527   2.240   1.673   0.695  1.5497  1.2508 -0.3569
 1521TIP3    H2 4528   2.243   1.789   0.791 -0.2269 -0.1039  1.4339
 1522TIP3   OH2 4529   5.520   2.259   1.553  0.3488 -0.2531 -0.3439
 1522TIP3    H1 4530   5.556   2.242   1.466 -1.5150  0.9591 -1.4181
 1522TIP3    H2 4531   5.454   2.191   1.565 -0.0808  0.1633 -0.3178
 1523TIP3   OH2 4532   2.689   1.953   0.647 -0.2368 -0.1171 -0.7953
 1523TIP3    H1 4533   2.636   1.874   0.645 -0.0800 -0.2130 -1.1532
 1523TIP3    H2 4534   2.655   2.002   0.723 -1.2846  0.1356 -1.4010
 1524TIP3   OH2 4535   0.462   3.640   4.632  0.0754 -0.7842  0.2109
 1524TIP3    H1 4536   0.452   3.632   4.727 -1.1640 -0.5838  0.1050
 1524TIP3    H2 4537   0.423   3.560   4.597  1.0570 -1.1375 -0.1208
 1525TIP3   OH2 4538   1.466   0.162   3.514 -0.1892 -0.0057  0.1199
 1525TIP3    H1 4539   1.553   0.123   3.509 -0.9809 -2.2642  2.0058
 1525TIP3    H2 4540   1.482   0.252   3.543  1.5182 -0.0988 -0.4021
 1526TIP3   OH2 4541   1.563   3.325   4.092  0.8296  0.4108 -0.3019
 1526TIP3    H1 4542   1.577   3.358   4.003  1.7832  0.1261 -0.2623
 1526TIP3    H2 4543   1.521   3.399   4.137  1.7437  1.1123 -0.5711
 1527TIP3   OH2 4544   4.195   3.189   3.244  0.2428  0.0804 -0.4939
 1527TIP3    H1 4545   4.278   3.146   3.222  0.0213 -0.8971  0.5066
 1527TIP3    H2 4546   4.178   3.164   3.335 -0.5489  1.2648 -0.2919
 1528TIP3   OH2 4547   5.749   4.836   1.815  0.0072 -0.0246  0.0693
 1528TIP3    H1 4548   5.750   4.834   1.720 -1.7734 -3.4448 -0.0267
 1528TIP3    H2 4549   5.835   4.869   1.839  0.2327  1.7142 -2.6375
 1529TIP3   OH2 4550   5.655   6.621   2.308 -0.3192 -0.0269  0.3751
 1529TIP3    H1 4551   5.729   6.593   2.255  0.0653 -0.5732  1.1650
 1529TIP3    H2 4552   5.682   6.602   2.398 -1.4824 -0.4073  0.6626
 1530TIP3   OH2 4553   3.111   5.328   5.409 -0.4930  0.3142  0.2872
 1530TIP3    H1 4554   3.181   5.263   5.406 -0.7322  0.0882 -0.6407
 1530TIP3    H2 4555   3.032   5.278   5.426 -0.9048  0.1472 -1.9236
 1531TIP3   OH2 4556   1.531   4.410   4.288 -0.2920 -0.4167 -0.4202
 1531TIP3    H1 4557   1.552   4.476   4.354 -0.1868 -0.8980  0.0314
 1531TIP3    H2 4558   1.595   4.423   4.219 -0.5877  0.2865 -0.5657
 1532TIP3   OH2 4559   2.799   0.287   2.975  0.4028 -0.9025  0.0314
 1532TIP3    H1 4560   2.741   0.276   2.900  0.8269 -0.2285 -0.4110
 1532TIP3    H2 4561   2.781   0.212   3.031 -1.0859 -0.5568  0.0424
 1533TIP3   OH2 4562   4.060   6.459   5.560  0.5943 -0.2920 -0.1468
 1533TIP3    H1 4563   4.032   6.374   5.524  1.1537 -1.1128  1.2569
 1533TIP3    H2 4564   4.013   6.466   5.643  1.8157 -0.0432  0.5569
 1534TIP3   OH2 4565   0.767   0.936   3.281 -0.5024 -0.3925 -0.1937
 1534TIP3    H1 4566   0.748   0.897   3.196 -0.0847  0.5915 -0.7599
 1534TIP3    H2 4567   0.829   1.007   3.262  0.5084 -0.8864  1.0732
 1535TIP3   OH2 4568   3.535   2.239   0.093  0.2045 -0.3579  0.1093
 1535TIP3    H1 4569   3.551   2.299   0.166 -0.1131  1.2084 -1.0609
 1535TIP3    H2 4570   3.619   2.197   0.077  0.8641  0.9949 -0.0810
 1536TIP3   OH2 4571   4.884   2.480   3.909  0.2438 -0.2204 -0.2744
 1536TIP3    H1 4572   4.946   2.549   3.934  0.8564 -0.7974 -0.1551
 1536TIP3    H2 4573   4.853   2.506   3.823 -0.6941  0.9842  0.3965
 1537TIP3   OH2 4574   7.094   2.146   5.409 -0.2473 -0.0937  0.9395
 1537TIP3    H1 4575   7.126   2.098   5.333  0.6787 -0.8961  1.8072
 1537TIP3    H2 4576   7.107   2.086   5.483  0.3983  1.2495  1.9673
 1538TIP3   OH2 4577   2.235   0.654   5.418  0.2865  0.0975 -0.0522
 1538TIP3    H1 4578   2.313   0.651   5.474  1.0751  1.4560 -1.0032
 1538TIP3    H2 4579   2.187   0.732   5.449 -1.5657 -1.5513  1.5441
 1539TIP3   OH2 4580   0.515   6.395   2.650  0.3935 -0.1138 -0.1127
 1539TIP3    H1 4581   0.600   6.406   2.693 -0.0642  0.3924  0.6919
 1539TIP3    H2 4582   0.453   6.387   2.722 -0.0451 -2.2250 -0.6743
 1540TIP3   OH2 4583   4.101   2.579   3.991  0.0748  0.0001  0.4241
 1540TIP3    H1 4584   4.041   2.651   3.969 -0.2816 -0.3856  0.1213
 1540TIP3    H2 4585   4.137   2.551   3.907 -1.2013 -1.3932  0.3041
 1541TIP3   OH2 4586   1.076   6.137   3.859 -0.1318  0.2189 -0.9067
 1541TIP3    H1 4587   1.098   6.217   3.811 -4.3284  1.9063 -0.4086
 1541TIP3    H2 4588   0.999   6.101   3.815 -1.4353 -0.6603  1.8159
 1542TIP3   OH2 4589   4.615   5.560   3.213 -0.7726 -0.4480 -0.3916
 1542TIP3    H1 4590   4.540   5.610   3.243 -0.9785 -0.8775 -0.1814
 1542TIP3    H2 4591   4.581   5.471   3.200 -0.0644 -0.9108  0.7743
 1543TIP3   OH2 4592   5.143   5.840   1.351  0.1266 -0.3417 -0.3348
 1543TIP3    H1 4593   5.176   5.752   1.366  1.2106  0.4088  2.1655
 1543TIP3    H2 4594   5.105   5.867   1.434 -0.2802  1.5074 -1.0559
 1544TIP3   OH2 4595   3.303   2.886   1.334 -0.4322  0.1837  0.0279
 1544TIP3    H1 4596   3.265   2.969   1.305 -0.8804  0.0459  0.1992
 1544TIP3    H2 4597   3.275   2.822   1.269 -0.0567  0.1729 -0.1244
 1545TIP3   OH2 4598   0.779   1.088   3.918 -0.0666 -0.0216  0.3473
 1545TIP3    H1 4599   0.824   1.005   3.937 -2.5683 -1.6466 -0.3699
 1545TIP3    H2 4600   0.736   1.073   3.834  0.1979  2.4167 -0.2990
 1546TIP3   OH2 4601   4.633   1.104   3.425 -0.1482  0.0197  0.1225
 1546TIP3    H1 4602   4.606   1.022   3.467  1.8016 -1.0947 -0.6750
 1546TIP3    H2 4603   4.577   1.112   3.349 -2.2630  0.9453  1.6915
 1547TIP3   OH2 4604   5.826   3.341   0.958  0.0277  0.7694  0.0487
 1547TIP3    H1 4605   5.793   3.373   1.042  0.4966  0.1114  0.4959
 1547TIP3    H2 4606   5.750   3.301   0.916 -0.6286  2.6357 -0.6348
 1548TIP3   OH2 4607   1.291   1.686   4.795 -0.4305 -0.3156 -0.6889
 1548TIP3    H1 4608   1.286   1.771   4.838  0.9945 -0.1955 -0.7187
 1548TIP3    H2 4609   1.285   1.707   4.701 -1.6464 -0.4148 -0.6586
 1549TIP3   OH2 4610   5.875   5.363   2.889 -0.4583 -0.4663 -0.4676
 1549TIP3    H1 4611   5.799   5.405   2.931 -1.5432 -0.5683 -2.2162
 1549TIP3    H2 4612   5.896   5.289   2.946 -0.9720  0.1935  0.6161
 1550TIP3   OH2 4613   1.391   0.712   2.198  0.0231 -0.1993 -0.4720
 1550TIP3    H1 4614   1.486   0.715   2.194  0.1008  1.3353  1.2333
 1550TIP3    H2 4615   1.370   0.627   2.236  0.7223 -0.3591 -0.4422
 1551TIP3   OH2 4616   3.414   3.768   1.473 -0.1738 -0.5755  0.0635
 1551TIP3    H1 4617   3.410   3.675   1.452  0.4218 -0.0593 -2.8063
 1551TIP3    H2 4618   3.352   3.809   1.413  0.1942  0.9641  0.6810
 1552TIP3   OH2 4619   7.025   1.591   1.959 -0.1807  0.0571  0.2716
 1552TIP3    H1 4620   7.041   1.628   1.872 -1.1521 -0.7238 -0.2644
 1552TIP3    H2 4621   7.020   1.497   1.944  3.6124 -0.5579  1.7941
 1553TIP3   OH2 4622   1.551   5.586   2.318  0.2135  0.2093 -0.5178
 1553TIP3    H1 4623   1.521   5.498   2.340  0.7939 -0.0646 -0.7954
 1553TIP3    H2 4624   1.512   5.604   2.232  0.5065  0.0180 -0.6919
 1554TIP3   OH2 4625   3.066   4.494   4.604  0.3009 -0.0468 -0.2296
 1554TIP3    H1 4626   2.978   4.529   4.591  0.8629  1.9861  0.9946
 1554TIP3    H2 4627   3.059   4.445   4.686  0.0196 -1.0664 -0.8432
 1555TIP3   OH2 4628   0.667   0.693   4.343  0.2830  0.1524  1.2355
 1555TIP3    H1 4629   0.697   0.700   4.252  2.1005 -0.5905  1.7234
 1555TIP3    H2 4630   0.728   0.747   4.392 -0.1436 -0.1635  2.1264
 1556TIP3   OH2 4631   3.374   0.520   3.745 -0.2690 -0.4411 -0.6025
 1556TIP3    H1 4632   3.436   0.578   3.702 -2.8337  2.7080 -0.3741
 1556TIP3    H2 4633   3.427   0.474   3.811  2.4508 -0.6750 -2.7666
 1557TIP3   OH2 4634   3.108   4.967   5.460  0.3408 -0.4958 -0.0107
 1557TIP3    H1 4635   3.105   4.872   5.453 -0.4815 -0.4330 -0.6338
 1557TIP3    H2 4636   3.200   4.987   5.479  0.3721 -1.4537  0.8906
 1558TIP3   OH2 4637   5.447   2.156   5.716 -0.0273 -0.3171  0.2525
 1558TIP3    H1 4638   5.496   2.201   5.647 -1.6451  0.1668 -0.6245
 1558TIP3    H2 4639   5.410   2.227   5.769  0.3713 -0.6818  1.0445
 1559TIP3   OH2 4640   6.741   1.845   3.937  0.1840  0.0942  0.1890
 1559TIP3    H1 4641   6.697   1.808   4.014 -0.0906 -0.5941 -0.2929
 1559TIP3    H2 4642   6.835   1.840   3.959  0.2903 -2.5221 -0.5310
 1560TIP3   OH2 4643   5.130   4.100   2.072 -0.5098 -0.5873  0.4546
 1560TIP3    H1 4644   5.210   4.118   2.121 -0.2213 -0.2430 -0.1346
 1560TIP3    H2 4645   5.083   4.184   2.072 -0.1667 -0.3872 -0.4699
 1561TIP3   OH2 4646   3.003   6.578   4.147 -0.0937 -0.0340 -0.5689
 1561TIP3    H1 4647   2.925   6.579   4.092 -0.9746 -0.1105  0.6246
 1561TIP3    H2 4648   3.076   6.596   4.087 -1.0661  0.4356 -1.6419
 1562TIP3   OH2 4649   6.596   1.264   2.072  0.2836 -0.1198  0.2608
 1562TIP3    H1 4650   6.627   1.276   2.162  0.4379 -0.1075  0.2056
 1562TIP3    H2 4651   6.569   1.172   2.068 -0.4336  0.0718  0.5376
 1563TIP3   OH2 4652   2.487   3.205   2.506 -0.0623  0.8167  0.2039
 1563TIP3    H1 4653   2.577   3.191   2.533  0.2994  0.9914 -0.8642
 1563TIP3    H2 4654   2.493   3.270   2.436 -1.0804  1.3478  0.5879
 1564TIP3   OH2 4655   1.413   3.460   1.805 -0.2095  0.4104 -0.0730
 1564TIP3    H1 4656   1.479   3.397   1.832 -1.5404 -0.7601  0.6103
 1564TIP3    H2 4657   1.462   3.536   1.776  1.4874 -1.2046 -1.6514
 1565TIP3   OH2 4658   0.867   2.143   3.383 -0.2128 -0.0629  0.2918
 1565TIP3    H1 4659   0.927   2.172   3.452 -0.0112 -0.5539  0.3260
 1565TIP3    H2 4660   0.781   2.144   3.424 -0.1670  0.1729  0.3877
 1566TIP3   OH2 4661   2.506   3.579   5.751  0.3897 -0.3120  0.3070
 1566TIP3    H1 4662   2.565   3.511   5.718  0.0590  0.1842 -1.4090
 1566TIP3    H2 4663   2.440   3.589   5.682  0.7612  2.1866  0.2307
 1567TIP3   OH2 4664   2.646   3.360   3.649  0.1778  0.0043  0.3759
 1567TIP3    H1 4665   2.680   3.443   3.616 -0.6946  0.5605  0.8305
 1567TIP3    H2 4666   2.559   3.382   3.684 -0.7372 -1.4053 -0.9270
 1568TIP3   OH2 4667   2.630   5.509   1.506  0.2867  0.5782  0.5424
 1568TIP3    H1 4668   2.711   5.492   1.457  0.2539  1.6220  0.1004
 1568TIP3    H2 4669   2.658   5.542   1.591  0.3301  1.1109  0.3237
 1569TIP3   OH2 4670   5.821   5.278   2.373 -0.7849  0.0573  0.1662
 1569TIP3    H1 4671   5.786   5.274   2.462  0.9111  2.5108  1.0636
 1569TIP3    H2 4672   5.880   5.203   2.367 -0.3631  0.2639  1.4163
 1570TIP3   OH2 4673   6.578   4.354   0.550 -0.0871 -0.1768  0.5119
 1570TIP3    H1 4674   6.603   4.430   0.602 -2.0675  1.8541 -1.2928
 1570TIP3    H2 4675   6.482   4.358   0.546 -0.1077 -1.3955 -1.6116
 1571TIP3   OH2 4676   1.490   1.047   1.451  0.2935 -0.0650 -0.5038
 1571TIP3    H1 4677   1.399   1.059   1.424 -0.0124  0.9201  0.8688
 1571TIP3    H2 4678   1.487   0.975   1.514  0.0581  1.3956  1.2508
 1572TIP3   OH2 4679   1.872   0.887   5.339 -0.4452 -0.0127 -0.1822
 1572TIP3    H1 4680   1.942   0.952   5.345 -1.6705  1.5649 -1.8379
 1572TIP3    H2 4681   1.843   0.874   5.429  0.4179  1.0786  0.2788
 1573TIP3   OH2 4682   5.697   6.499   4.316 -0.3363  0.5695 -0.5791
 1573TIP3    H1 4683   5.617   6.481   4.366  0.0163 -0.8201 -0.4677
 1573TIP3    H2 4684   5.719   6.589   4.337 -1.0799  0.5095  0.5330
 1574TIP3   OH2 4685   1.846   4.098   5.044 -0.1088  0.4593 -0.4613
 1574TIP3    H1 4686   1.879   4.033   5.107 -0.5094  0.5168 -0.1877
 1574TIP3    H2 4687   1.881   4.070   4.960  2.8507  1.9460  0.1363
 1575TIP3   OH2 4688   4.133   2.467   1.970  0.0982  0.0876  0.4662
 1575TIP3    H1 4689   4.087   2.473   1.886  0.2998  3.4074  0.4457
 1575TIP3    H2 4690   4.064   2.449   2.034 -0.3031 -0.8157 -0.1965
 1576TIP3   OH2 4691   6.963   3.918   1.237 -0.2011  0.8822  0.4456
 1576TIP3    H1 4692   6.989   3.851   1.174 -0.9254  0.3244  0.7330
 1576TIP3    H2 4693   7.023   3.907   1.311 -0.8144  0.0158  0.8337
 1577TIP3   OH2 4694   4.498   0.087   5.881 -0.0386 -0.0452  0.2888
 1577TIP3    H1 4695   4.454   0.093   5.796  0.2895  1.8503  0.2193
 1577TIP3    H2 4696   4.567   0.022   5.868 -0.9187 -0.8818 -0.4324
 1578TIP3   OH2 4697   1.678   1.945   1.812 -0.3240  0.0297 -0.3137
 1578TIP3    H1 4698   1.651   1.865   1.857 -2.5173  1.3103  0.8302
 1578TIP3    H2 4699   1.631   2.015   1.858  0.7062  1.8702 -1.9236
 1579TIP3   OH2 4700   5.422   0.992   4.781 -0.1302  0.1634  0.2080
 1579TIP3    H1 4701   5.497   0.962   4.730  0.7392  1.8284  0.4081
 1579TIP3    H2 4702   5.352   0.931   4.761  0.6988 -0.2493 -1.5775
 1580TIP3   OH2 4703   0.898   3.028   1.269 -0.0082  0.2373  0.4175
 1580TIP3    H1 4704   0.903   3.006   1.362 -0.5227  1.7341  0.8275
 1580TIP3    H2 4705   0.804   3.035   1.251  0.0978  0.4237 -0.0838
 1581TIP3   OH2 4706   1.240   4.577   5.364  1.0807 -0.6593  0.3166
 1581TIP3    H1 4707   1.240   4.481   5.367  1.4808 -0.7162 -1.0966
 1581TIP3    H2 4708   1.147   4.600   5.368  1.0163 -0.9327  3.4640
 1582TIP3   OH2 4709   2.139   2.120   2.592  0.0786 -0.5232 -0.3458
 1582TIP3    H1 4710   2.114   2.203   2.551 -0.3150 -0.5469 -0.1626
 1582TIP3    H2 4711   2.075   2.108   2.662  0.8266 -0.4079  0.3774
 1583TIP3   OH2 4712   4.889   3.064   4.763  0.3564 -0.0972 -0.9058
 1583TIP3    H1 4713   4.837   3.119   4.821  1.4964 -0.3509  0.4207
 1583TIP3    H2 4714   4.896   3.115   4.682  1.8934  2.1153  0.4672
 1584TIP3   OH2 4715   1.182   6.429   4.448  0.5302  0.3524  0.0758
 1584TIP3    H1 4716   1.215   6.349   4.489  0.9479  2.1877  3.6817
 1584TIP3    H2 4717   1.091   6.435   4.475  0.2772  0.7345 -0.8206
 1585TIP3   OH2 4718   1.770   0.719   3.323  0.3414  0.1205 -0.4589
 1585TIP3    H1 4719   1.768   0.728   3.227 -1.9331 -0.8617 -0.5414
 1585TIP3    H2 4720   1.700   0.658   3.344  0.1926  0.9880  1.9303
 1586TIP3   OH2 4721   0.002   1.141   4.199  0.1607  0.2454 -0.1761
 1586TIP3    H1 4722   0.053   1.188   4.133 -0.4055 -0.1855 -0.9393
 1586TIP3    H2 4723   0.019   1.048   4.181 -0.3635  0.1151 -0.0154
 1587TIP3   OH2 4724   5.804   2.866   4.228  0.5117 -0.8903  0.1337
 1587TIP3    H1 4725   5.887   2.832   4.259  1.3620 -0.9522 -2.0644
 1587TIP3    H2 4726   5.827   2.930   4.161 -1.1833  0.7647  1.0118
 1588TIP3   OH2 4727   0.662   4.331   3.278  0.6377 -0.0001 -0.0081
 1588TIP3    H1 4728   0.654   4.425   3.295 -0.2718 -0.2342  1.0158
 1588TIP3    H2 4729   0.742   4.322   3.227  1.2622  1.2291  0.7130
 1589TIP3   OH2 4730   5.864   3.565   2.682  0.4235 -0.4820 -0.2062
 1589TIP3    H1 4731   5.781   3.570   2.730  1.3141 -2.5109  1.6939
 1589TIP3    H2 4732   5.853   3.492   2.622  0.8461 -0.7617  0.0573
 1590TIP3   OH2 4733   4.075   0.053   0.955 -0.0127  0.0928 -0.1241
 1590TIP3    H1 4734   4.027  -0.022   0.921  1.9548 -1.1792 -0.2758
 1590TIP3    H2 4735   4.101   0.028   1.043  0.3910  0.7283 -0.0515
 1591TIP3   OH2 4736   2.380   2.284   2.643  0.4148 -0.4357  0.7550
 1591TIP3    H1 4737   2.305   2.232   2.613  2.4634 -2.2366 -1.6833
 1591TIP3    H2 4738   2.390   2.352   2.577  0.1471  0.6880  1.8293
 1592TIP3   OH2 4739   5.725   3.485   0.107  0.2453 -0.1629  0.0946
 1592TIP3    H1 4740   5.806   3.463   0.061 -0.3967 -0.3755 -0.9733
 1592TIP3    H2 4741   5.722   3.580   0.106  0.2919 -0.1637 -0.2034
 1593TIP3   OH2 4742   0.474   5.114   1.965 -0.2208  0.0876  0.1490
 1593TIP3    H1 4743   0.410   5.043   1.959 -0.2421  0.0010  1.1991
 1593TIP3    H2 4744   0.553   5.079   1.925 -1.0149  0.4596 -1.8618
 1594TIP3   OH2 4745   2.061   3.746   1.102 -0.3628 -0.4896  0.6816
 1594TIP3    H1 4746   2.035   3.770   1.191  0.1340 -0.6784  0.8815
 1594TIP3    H2 4747   2.135   3.687   1.114 -0.9995 -1.4116  0.1698
 1595TIP3   OH2 4748   7.090   1.121   2.145  0.0533 -0.4995 -0.1118
 1595TIP3    H1 4749   7.157   1.172   2.099  0.9456 -1.4339  0.1092
 1595TIP3    H2 4750   7.044   1.185   2.199  1.6958 -0.0306  0.8016
 1596TIP3   OH2 4751   1.031   6.165   5.383 -0.0093 -0.6869 -0.0943
 1596TIP3    H1 4752   1.077   6.215   5.316  0.5603 -0.2170  0.6396
 1596TIP3    H2 4753   0.942   6.200   5.383  0.3555  0.2525  0.3390
 1597TIP3   OH2 4754   5.216   4.490   0.188 -0.3659 -0.1118  0.2330
 1597TIP3    H1 4755   5.236   4.477   0.280  0.9972  0.2051  0.0074
 1597TIP3    H2 4756   5.282   4.439   0.141  0.1406  1.2262 -0.5754
 1598TIP3   OH2 4757   5.296   6.361   0.097  0.1893  0.0522  0.3582
 1598TIP3    H1 4758   5.353   6.372   0.173 -1.0619  0.9788  1.2013
 1598TIP3    H2 4759   5.288   6.448   0.059 -0.2632 -0.1508 -0.0379
 1599TIP3   OH2 4760   1.953   5.377   3.582 -0.3852  0.0491  0.0564
 1599TIP3    H1 4761   1.980   5.332   3.662 -1.5497 -0.4140  0.2059
 1599TIP3    H2 4762   2.009   5.340   3.513  1.1912  1.0166  0.7418
 1600TIP3   OH2 4763   5.257   1.136   0.174 -0.2134 -0.7113 -0.2181
 1600TIP3    H1 4764   5.252   1.047   0.210  1.4258 -0.7499 -0.0256
 1600TIP3    H2 4765   5.321   1.181   0.230 -1.2350  0.6884 -0.1287
 1601TIP3   OH2 4766   2.558   2.220   5.051 -0.4824  0.1274 -0.0140
 1601TIP3    H1 4767   2.621   2.251   5.117  0.3963 -1.1756 -0.1933
 1601TIP3    H2 4768   2.549   2.293   4.991  0.7466  0.4209  0.1170
 1602TIP3   OH2 4769   3.268   2.602   3.818  0.1709  0.4803 -0.0913
 1602TIP3    H1 4770   3.252   2.629   3.908  1.7823 -0.1282  0.4064
 1602TIP3    H2 4771   3.273   2.507   3.822 -1.7295  0.2702 -1.1996
 1603TIP3   OH2 4772   7.015   4.753   5.220  0.0319  0.2908  0.1956
 1603TIP3    H1 4773   7.101   4.726   5.190  0.3147  0.9653  0.4015
 1603TIP3    H2 4774   6.990   4.825   5.162 -0.1141  0.5197  0.5411
 1604TIP3   OH2 4775   2.245   5.765   2.633  0.7394  0.0471  0.3641
 1604TIP3    H1 4776   2.332   5.752   2.595  0.2320  2.2485 -1.7675
 1604TIP3    H2 4777   2.246   5.854   2.667 -0.7267  0.1943  0.1012
 1605TIP3   OH2 4778   1.097   4.518   5.756  0.0764  0.2137  0.3924
 1605TIP3    H1 4779   1.024   4.532   5.695  0.1499 -0.4376  0.1467
 1605TIP3    H2 4780   1.060   4.539   5.842 -1.2638 -2.6828  0.6434
 1606TIP3   OH2 4781   1.471   2.024   2.379 -0.1066 -0.1885  0.1314
 1606TIP3    H1 4782   1.489   2.108   2.336 -1.6970  0.4459  0.6226
 1606TIP3    H2 4783   1.439   1.967   2.309  0.4405 -0.2139 -0.1016
 1607TIP3   OH2 4784   4.113   2.566   1.081  0.3280 -0.4148  0.8151
 1607TIP3    H1 4785   4.172   2.595   1.151  0.7479  0.6511  0.0495
 1607TIP3    H2 4786   4.026   2.596   1.109  0.9106  2.9652 -0.5669
 1608TIP3   OH2 4787   4.543   2.714   4.206 -0.6855  0.2167  0.4601
 1608TIP3    H1 4788   4.621   2.759   4.240 -1.3326  1.5370  0.2670
 1608TIP3    H2 4789   4.471   2.749   4.259 -1.2408 -0.4731  0.1718
 1609TIP3   OH2 4790   6.226   5.132   4.837  0.3655 -0.9472  0.8238
 1609TIP3    H1 4791   6.231   5.064   4.904 -0.4333 -1.0508  0.7903
 1609TIP3    H2 4792   6.133   5.155   4.833  0.5517 -0.2371  0.4522
 1610TIP3   OH2 4793   4.689   6.139   5.059  0.2100 -0.2114 -0.5550
 1610TIP3    H1 4794   4.732   6.188   5.129 -0.9133  0.9851 -0.6727
 1610TIP3    H2 4795   4.599   6.172   5.058  0.4638  0.6181 -3.2944
 1611TIP3   OH2 4796   1.808   1.720   5.605 -0.0172 -0.7325  0.1736
 1611TIP3    H1 4797   1.796   1.663   5.529 -1.9608 -1.0033  0.6325
 1611TIP3    H2 4798   1.793   1.808   5.571 -2.3280 -0.9594  0.4566
 1612TIP3   OH2 4799   6.759   5.334   5.034  0.5850 -0.2160  0.0761
 1612TIP3    H1 4800   6.720   5.251   5.063 -0.2887  0.1441 -0.0262
 1612TIP3    H2 4801   6.852   5.327   5.057  0.7012 -1.5718 -0.7299
 1613TIP3   OH2 4802   0.618   0.433   1.146  0.6536  0.1725 -0.2981
 1613TIP3    H1 4803   0.610   0.461   1.055  0.9814 -1.5809 -0.9022
 1613TIP3    H2 4804   0.695   0.480   1.179  0.0172  1.4929 -0.6322
 1614TIP3   OH2 4805   1.929   0.069   4.053  0.2387 -0.0681  0.0738
 1614TIP3    H1 4806   1.877   0.148   4.067  0.1814 -0.2735  1.1594
 1614TIP3    H2 4807   2.020   0.100   4.051  0.1826  0.0886 -0.0252
 1615TIP3   OH2 4808   7.225   4.564   3.271 -0.3697  0.0753  0.2377
 1615TIP3    H1 4809   7.131   4.556   3.289 -0.6526 -0.5485 -1.3151
 1615TIP3    H2 4810   7.246   4.486   3.220  1.2692 -0.3585  1.5146
 1616TIP3   OH2 4811   1.305   2.861   4.224 -0.0639  0.4985 -0.0347
 1616TIP3    H1 4812   1.324   2.868   4.318  0.2646  0.6678 -0.1146
 1616TIP3    H2 4813   1.320   2.949   4.190  0.2432  0.3330 -0.3284
 1617TIP3   OH2 4814   5.544   3.761   1.222 -0.2379 -0.4706 -0.0985
 1617TIP3    H1 4815   5.587   3.676   1.217  3.0932  1.0503 -0.3860
 1617TIP3    H2 4816   5.518   3.781   1.132  1.4271 -0.1287 -0.5422
 1618TIP3   OH2 4817   6.701   6.507   5.546  0.3069 -0.5573 -0.0802
 1618TIP3    H1 4818   6.761   6.554   5.604 -0.9393  2.0970 -0.7824
 1618TIP3    H2 4819   6.614   6.538   5.571 -0.4157 -0.8823 -2.0221
 1619TIP3   OH2 4820   0.577   0.543   2.161  0.5003 -0.0371 -0.0682
 1619TIP3    H1 4821   0.518   0.553   2.236  0.1417 -0.1364 -0.3339
 1619TIP3    H2 4822   0.566   0.624   2.111 -0.9858 -0.8924 -1.2179
 1620TIP3   OH2 4823   0.377   6.796   2.094 -0.3102  0.4524  0.2814
 1620TIP3    H1 4824   0.390   6.724   2.033  0.4425  1.0919 -0.3348
 1620TIP3    H2 4825   0.444   6.783   2.162 -0.2400  0.5082  0.2236
 1621TIP3   OH2 4826   0.778   4.095   0.983  0.1392 -0.5157  0.1166
 1621TIP3    H1 4827   0.789   4.015   1.034 -2.9781 -1.0655  0.1526
 1621TIP3    H2 4828   0.835   4.159   1.025  1.6235 -2.3045  0.9768
 1622TIP3   OH2 4829   5.722   4.316   4.329  0.3081  0.0574  0.0446
 1622TIP3    H1 4830   5.737   4.301   4.236  1.6256 -0.9532  0.3810
 1622TIP3    H2 4831   5.637   4.360   4.334  0.6863  1.0365 -1.6899
 1623TIP3   OH2 4832   0.106   3.169   3.678  0.0532 -0.1368  0.0808
 1623TIP3    H1 4833   0.155   3.108   3.733  0.5074 -0.5879 -0.8055
 1623TIP3    H2 4834   0.173   3.223   3.637 -0.3849  2.5111  2.5113
 1624TIP3   OH2 4835   6.345   6.773   5.039  0.9369 -0.1585 -0.1609
 1624TIP3    H1 4836   6.312   6.850   4.994  0.2160  0.5104  1.4243
 1624TIP3    H2 4837   6.267   6.733   5.079  1.5352 -0.6962  0.5142
 1625TIP3   OH2 4838   1.640   3.299   0.527  0.1890 -0.1257 -0.2907
 1625TIP3    H1 4839   1.548   3.297   0.499  0.3576  0.3611 -0.9062
 1625TIP3    H2 4840   1.689   3.311   0.446  0.9570 -2.4253 -0.2358
 1626TIP3   OH2 4841   0.892   4.471   4.518  0.2110 -0.2088  0.1204
 1626TIP3    H1 4842   0.849   4.520   4.448  1.9802  0.0987 -0.8071
 1626TIP3    H2 4843   0.900   4.382   4.483 -0.8823 -0.6307  0.8648
 1627TIP3   OH2 4844   4.383   5.042   0.734 -0.2740 -0.0694 -0.2926
 1627TIP3    H1 4845   4.450   4.977   0.754 -0.2606 -0.4583 -1.5185
 1627TIP3    H2 4846   4.339   5.059   0.817 -0.8229 -2.2588 -0.0988
 1628TIP3   OH2 4847   5.786   1.609   1.578  0.5846  0.4898  0.5361
 1628TIP3    H1 4848   5.813   1.675   1.514  3.1061 -1.4201 -0.5400
 1628TIP3    H2 4849   5.697   1.586   1.551  1.1481  0.5938 -1.6010
 1629TIP3   OH2 4850   4.153   3.950   4.891  0.1460  0.1077 -0.0951
 1629TIP3    H1 4851   4.145   3.922   4.982 -0.7973 -0.0724 -0.2173
 1629TIP3    H2 4852   4.097   3.889   4.843  0.1871  0.5506 -0.7190
 1630TIP3   OH2 4853   5.148   5.320   0.326 -0.2622 -0.6443 -0.0482
 1630TIP3    H1 4854   5.068   5.303   0.277 -0.3349 -1.4166  0.3222
 1630TIP3    H2 4855   5.119   5.367   0.405 -0.3903 -1.1899  0.2325
 1631TIP3   OH2 4856   0.268   6.031   1.550 -0.1214 -0.0305 -0.0405
 1631TIP3    H1 4857   0.197   6.071   1.600 -1.5501 -0.0073 -1.9989
 1631TIP3    H2 4858   0.325   6.105   1.527 -1.1405  0.4633 -1.0779
 1632TIP3   OH2 4859   1.562   0.547   2.861  0.0975 -0.3152  0.1095
 1632TIP3    H1 4860   1.473   0.517   2.841 -0.6922  0.8469  1.6302
 1632TIP3    H2 4861   1.619   0.493   2.806 -1.5664 -0.7501 -1.2743
 1633TIP3   OH2 4862   4.949   3.582   4.768 -0.2079 -0.3112  0.9202
 1633TIP3    H1 4863   4.982   3.564   4.856  1.1987  1.6820  0.8786
 1633TIP3    H2 4864   5.020   3.630   4.725 -0.9162 -1.0834 -1.2662
 1634TIP3   OH2 4865   4.381   3.032   3.601 -0.4322 -0.1946  0.2892
 1634TIP3    H1 4866   4.353   2.946   3.568  1.4949 -1.2755  1.2623
 1634TIP3    H2 4867   4.311   3.059   3.660 -1.5665 -0.5661 -0.8291
 1635TIP3   OH2 4868   1.556   5.035   5.271  0.5081 -0.1626  0.0782
 1635TIP3    H1 4869   1.603   5.110   5.232  1.6182 -0.2710  1.1392
 1635TIP3    H2 4870   1.612   4.960   5.253 -0.3086 -0.6567 -0.4551
 1636TIP3   OH2 4871   3.995   5.242   1.864 -0.0998  0.1416 -0.3328
 1636TIP3    H1 4872   3.924   5.298   1.895  0.2183 -0.6283  1.9886
 1636TIP3    H2 4873   4.070   5.266   1.919  0.4146 -1.5790 -0.2348
 1637TIP3   OH2 4874   6.707   6.289   5.725 -0.5741  0.2966 -0.4219
 1637TIP3    H1 4875   6.792   6.248   5.707 -0.4959 -0.6214  1.7285
 1637TIP3    H2 4876   6.689   6.341   5.647  0.4658 -1.9665 -2.3131
 1638TIP3   OH2 4877   1.471   4.184   4.771 -0.5072  0.1752 -0.4439
 1638TIP3    H1 4878   1.482   4.107   4.828  1.8878  0.7138 -0.0882
 1638TIP3    H2 4879   1.531   4.169   4.698 -0.4424  1.4368 -0.6734
 1639TIP3   OH2 4880   6.130   2.482   5.041 -0.1455  0.1641 -0.0094
 1639TIP3    H1 4881   6.057   2.453   4.986  0.1116 -0.9244  0.2134
 1639TIP3    H2 4882   6.192   2.522   4.980 -0.5924  0.4355 -0.2934
 1640TIP3   OH2 4883   3.861   1.877   4.668  0.2135  0.5632  0.3152
 1640TIP3    H1 4884   3.880   1.938   4.739  0.9939 -0.3075  0.8833
 1640TIP3    H2 4885   3.901   1.918   4.591  2.6477 -0.1785  1.0826
 1641TIP3   OH2 4886   6.102   6.765   5.633 -0.3626 -0.1001  0.0059
 1641TIP3    H1 4887   6.017   6.746   5.593 -1.0784 -0.2959  1.5418
 1641TIP3    H2 4888   6.164   6.761   5.560 -1.7451  0.7732 -1.2890
 1642TIP3   OH2 4889   2.318   5.605   2.971 -0.9615  0.1801 -0.2925
 1642TIP3    H1 4890   2.391   5.640   2.919 -0.8487 -0.1012 -0.3268
 1642TIP3    H2 4891   2.280   5.536   2.916  0.0876 -1.1465  0.5847
 1643TIP3   OH2 4892   0.843   1.706   5.436 -0.8938  0.3479 -0.1907
 1643TIP3    H1 4893   0.810   1.773   5.376  0.3847 -0.2845 -1.6672
 1643TIP3    H2 4894   0.816   1.623   5.396 -0.4548 -0.0798  0.3794
 1644TIP3   OH2 4895   0.132   4.516   2.023 -0.7856 -0.2497 -0.9188
 1644TIP3    H1 4896   0.161   4.447   1.963 -0.6438  0.8754 -2.1836
 1644TIP3    H2 4897   0.114   4.591   1.966 -0.8371  0.7952  0.4375
 1645TIP3   OH2 4898   3.781   4.115   3.273 -0.3710 -0.0734  0.3051
 1645TIP3    H1 4899   3.780   4.023   3.302 -2.1499 -0.3033 -0.3689
 1645TIP3    H2 4900   3.842   4.117   3.200 -0.9155 -0.9048 -0.1843
 1646TIP3   OH2 4901   4.533   3.110   0.362 -0.1063 -0.0234  0.2240
 1646TIP3    H1 4902   4.533   3.159   0.280 -0.8280 -1.6618 -0.7989
 1646TIP3    H2 4903   4.607   3.050   0.355  1.2135  1.3002  1.7703
 1647TIP3   OH2 4904   2.498   4.919   2.478 -0.1467  0.5847 -0.4513
 1647TIP3    H1 4905   2.425   4.961   2.434  1.0328 -0.2288 -3.4302
 1647TIP3    H2 4906   2.552   4.991   2.510  0.2119  1.3529 -2.6176
 1648TIP3   OH2 4907   3.592   1.474   2.682 -0.2449  0.1054 -0.0451
 1648TIP3    H1 4908   3.655   1.476   2.754 -1.3368  1.1267  0.9393
 1648TIP3    H2 4909   3.550   1.388   2.690 -0.7434  0.4165  0.9221
 1649TIP3   OH2 4910   7.167   0.298   1.771  0.4870 -0.0392  0.0325
 1649TIP3    H1 4911   7.175   0.321   1.863 -0.6739  1.7974 -0.2694
 1649TIP3    H2 4912   7.073   0.289   1.756  0.7373 -1.8932 -0.6486
 1650TIP3   OH2 4913   4.473   4.995   4.043  0.1962  0.1664 -0.3634
 1650TIP3    H1 4914   4.437   4.998   3.954  0.4283  0.6972 -0.4411
 1650TIP3    H2 4915   4.398   4.976   4.099 -0.3789  2.0763 -0.4312
 1651TIP3   OH2 4916   1.293   6.194   3.587 -0.0070  0.2458  0.6433
 1651TIP3    H1 4917   1.240   6.241   3.651  1.2475  0.4006  1.5933
 1651TIP3    H2 4918   1.373   6.170   3.634  0.8904  0.2351 -0.8233
 1652TIP3   OH2 4919   3.823   2.991   0.977  0.0054  0.0989  0.2714
 1652TIP3    H1 4920   3.858   3.072   0.939 -0.4370  0.3031  0.2991
 1652TIP3    H2 4921   3.755   2.964   0.916 -1.0704  0.7016  1.1605
 1653TIP3   OH2 4922   6.911   6.515   5.371  0.6457  0.0137 -0.5643
 1653TIP3    H1 4923   6.888   6.592   5.319 -0.5551  0.1638  0.1542
 1653TIP3    H2 4924   6.828   6.485   5.407  1.4681  0.1689  1.5989
 1654TIP3   OH2 4925   2.730   4.095   5.858 -0.4419  0.0290 -0.0203
 1654TIP3    H1 4926   2.796   4.163   5.846  1.3012 -1.4890  0.5955
 1654TIP3    H2 4927   2.660   4.118   5.797  0.0877  2.3502  0.1757
 1655TIP3   OH2 4928   4.489   2.935   1.341 -0.2178 -0.1682  0.0256
 1655TIP3    H1 4929   4.554   2.978   1.397 -1.9097  0.5951  1.5025
 1655TIP3    H2 4930   4.513   2.962   1.252  2.4748 -1.3148  0.3005
 1656TIP3   OH2 4931   3.137   2.579   5.780  0.0849  0.3961  0.3765
 1656TIP3    H1 4932   3.099   2.524   5.849  0.8394  0.9166  1.2239
 1656TIP3    H2 4933   3.101   2.666   5.797  0.7543  0.6502  0.4863
 1657TIP3   OH2 4934   4.041   5.433   2.740  0.6288 -0.3278 -0.0849
 1657TIP3    H1 4935   3.983   5.394   2.805  1.7191  0.7314  1.6281
 1657TIP3    H2 4936   4.095   5.361   2.709  0.3158 -0.8032  0.4510
 1658TIP3   OH2 4937   1.098   2.491   0.059  0.0968  0.1124  0.2855
 1658TIP3    H1 4938   1.164   2.488   0.129 -0.6627 -3.1256  1.0092
 1658TIP3    H2 4939   1.141   2.452  -0.017 -1.1731 -3.2610  1.1192
 1659TIP3   OH2 4940   3.469   5.378   0.382  0.4458 -0.0649  0.2173
 1659TIP3    H1 4941   3.449   5.301   0.434  2.1731 -0.7790 -0.1393
 1659TIP3    H2 4942   3.525   5.432   0.437 -2.3525  2.0350  1.2880
 1660TIP3   OH2 4943   1.275   2.332   1.294  0.1594 -0.0668  0.0075
 1660TIP3    H1 4944   1.294   2.353   1.386 -0.8462  1.3602 -0.0764
 1660TIP3    H2 4945   1.188   2.369   1.279 -0.0607 -1.0556 -1.2905
 1661TIP3   OH2 4946   1.749   4.236   3.252 -0.2828 -0.7736  0.4459
 1661TIP3    H1 4947   1.841   4.213   3.240 -0.3360 -0.0323 -1.7057
 1661TIP3    H2 4948   1.702   4.154   3.239 -0.0502 -0.7515 -0.5707
 1662TIP3   OH2 4949   1.210   5.139   1.657  0.5660  0.0263  0.2321
 1662TIP3    H1 4950   1.220   5.170   1.747  1.5265 -0.8573  0.4502
 1662TIP3    H2 4951   1.248   5.208   1.603 -1.2021  1.1746  0.3833
 1663TIP3   OH2 4952   4.885   1.266   2.225 -0.0281 -0.2370  0.1169
 1663TIP3    H1 4953   4.886   1.190   2.166 -0.5531 -1.5724  1.7551
 1663TIP3    H2 4954   4.971   1.305   2.215  0.0952 -0.7764 -1.1012
 1664TIP3   OH2 4955   5.433   2.638   4.978  0.1271 -0.0082 -0.2343
 1664TIP3    H1 4956   5.391   2.722   4.997  0.5437 -0.3035  2.5282
 1664TIP3    H2 4957   5.391   2.607   4.898 -0.4361  2.5416 -1.0236
 1665TIP3   OH2 4958   3.086   6.124   0.363 -0.0298 -0.2430 -0.1061
 1665TIP3    H1 4959   3.108   6.146   0.272  0.9596 -1.3330 -0.1560
 1665TIP3    H2 4960   2.992   6.111   0.362 -0.1060  0.2452 -0.8652
 1666TIP3   OH2 4961   7.101   2.750   0.044  0.1992  0.3890  0.0384
 1666TIP3    H1 4962   7.180   2.760   0.098  1.5842  2.0037 -2.1488
 1666TIP3    H2 4963   7.128   2.694  -0.029 -1.8415 -2.3718  1.2031
 1667TIP3   OH2 4964   5.977   6.449   5.734  0.0526  0.4644  0.0368
 1667TIP3    H1 4965   5.883   6.438   5.718 -0.0579  1.5215 -0.1396
 1667TIP3    H2 4966   5.994   6.397   5.813 -0.0133 -2.3018 -1.6544
 1668TIP3   OH2 4967   0.039   3.857   2.484 -0.0668 -0.4476 -0.6221
 1668TIP3    H1 4968   0.064   3.765   2.493  0.5284 -0.1953  0.5291
 1668TIP3    H2 4969  -0.056   3.857   2.496  0.2485 -0.5759  3.0293
 1669TIP3   OH2 4970   5.672   5.230   2.603  0.3494 -0.1698  0.2871
 1669TIP3    H1 4971   5.668   5.155   2.543 -4.5157  0.2366 -0.2890
 1669TIP3    H2 4972   5.649   5.193   2.688  0.9470  0.2707  0.6458
 1670TIP3   OH2 4973   3.049   6.728   0.450  0.3440 -0.0734  0.0912
 1670TIP3    H1 4974   3.125   6.674   0.427  0.7597  1.2612 -1.9282
 1670TIP3    H2 4975   2.987   6.713   0.378  1.0961  3.2100 -1.4082
 1671TIP3   OH2 4976   6.477   4.710   0.045 -0.1158 -0.1974 -0.7152
 1671TIP3    H1 4977   6.503   4.634  -0.008 -0.7346 -0.6311 -0.4037
 1671TIP3    H2 4978   6.526   4.700   0.126 -0.2096 -0.2695 -0.6678
 1672TIP3   OH2 4979   0.544   0.165   5.589  0.4238  0.1121  0.3041
 1672TIP3    H1 4980   0.614   0.102   5.606  0.3101 -0.0577  0.1593
 1672TIP3    H2 4981   0.488   0.120   5.525  0.1985  0.2556  0.4024
 1673TIP3   OH2 4982   4.935   4.355   4.323  0.4203 -0.0501 -0.2033
 1673TIP3    H1 4983   4.912   4.339   4.415 -0.6963  1.4833 -0.1703
 1673TIP3    H2 4984   4.879   4.294   4.275  2.2618 -2.1152  0.1408
 1674TIP3   OH2 4985   5.196   2.499   1.815 -0.8993 -0.9388  0.3488
 1674TIP3    H1 4986   5.105   2.523   1.798 -0.3443  0.8936 -0.2874
 1674TIP3    H2 4987   5.242   2.583   1.821  1.2481 -1.8065 -2.1116
 1675TIP3   OH2 4988   6.710   2.089   2.487 -0.2249 -0.8454 -0.1309
 1675TIP3    H1 4989   6.771   2.134   2.546 -1.2738  1.0345 -0.3917
 1675TIP3    H2 4990   6.714   2.140   2.406 -3.0665  0.2114  0.2660
 1676TIP3   OH2 4991   1.029   4.355   3.586 -0.3414  0.3616  0.2887
 1676TIP3    H1 4992   0.979   4.341   3.666 -0.6163  0.1041  0.0775
 1676TIP3    H2 4993   1.099   4.291   3.589 -1.0504 -0.4699 -0.2338
 1677TIP3   OH2 4994   2.617   5.281   2.748 -0.5712 -0.0873 -0.2713
 1677TIP3    H1 4995   2.666   5.337   2.808 -0.2582  0.5677 -1.1128
 1677TIP3    H2 4996   2.642   5.192   2.771  0.3462  0.2026 -0.1332
 1678TIP3   OH2 4997   0.612   3.092   1.942  0.2012 -0.0247 -0.0337
 1678TIP3    H1 4998   0.520   3.117   1.952  0.1094  0.2177 -1.3460
 1678TIP3    H2 4999   0.653   3.120   2.024 -0.9983 -0.6803  0.8238
 1679TIP3   OH2 5000   2.718   4.710   4.816 -0.0189 -0.6255  0.0875
 1679TIP3    H1 5001   2.643   4.674   4.769 -0.3082 -1.2147  0.9732
 1679TIP3    H2 5002   2.719   4.803   4.791 -0.9392 -0.6489 -0.0773
 1680TIP3   OH2 5003   1.799   0.881   1.611  0.1541  0.1613 -0.2005
 1680TIP3    H1 5004   1.724   0.828   1.583 -0.1275  0.5589 -0.2075
 1680TIP3    H2 5005   1.849   0.895   1.530  0.7975 -0.9701 -0.0187
 1681TIP3   OH2 5006   5.981   2.750   3.596  0.5809 -0.1881 -0.1230
 1681TIP3    H1 5007   5.976   2.654   3.596  0.8065 -0.2158  1.1040
 1681TIP3    H2 5008   5.975   2.774   3.689 -0.5890  1.0515 -0.4996
 1682TIP3   OH2 5009   1.900   4.726   5.049  0.0965  0.2511  0.4192
 1682TIP3    H1 5010   1.821   4.741   5.101 -0.2434  3.4737 -0.8282
 1682TIP3    H2 5011   1.966   4.702   5.114 -1.0715  1.0115  1.9650
 1683TIP3   OH2 5012   2.273   3.560   5.242 -0.1465  0.4166  0.0899
 1683TIP3    H1 5013   2.339   3.628   5.255 -1.0118  1.2630  0.1887
 1683TIP3    H2 5014   2.199   3.606   5.203 -0.6568 -0.5253 -0.0836
 1684TIP3   OH2 5015   2.052   2.785   5.395  0.2304 -0.1965  0.0636
 1684TIP3    H1 5016   2.137   2.823   5.374  0.3018 -0.3027  0.1576
 1684TIP3    H2 5017   2.029   2.732   5.319  0.7367 -1.0157  0.4704
 1685TIP3   OH2 5018   6.314   0.563   3.289  0.2423  0.0764  0.1977
 1685TIP3    H1 5019   6.405   0.574   3.263  0.0717 -1.1874 -1.0973
 1685TIP3    H2 5020   6.311   0.477   3.331 -0.4981 -0.3610 -0.6969
 1686TIP3   OH2 5021   6.573   1.835   3.728 -0.2741  0.0682  0.5827
 1686TIP3    H1 5022   6.525   1.767   3.775  2.4672 -1.9781  0.7153
 1686TIP3    H2 5023   6.654   1.846   3.779  0.6277  1.3214 -1.0213
 1687TIP3   OH2 5024   3.858   3.896   4.186  0.3268  0.6258 -0.3178
 1687TIP3    H1 5025   3.879   3.806   4.159  1.2509 -0.4761  3.4240
 1687TIP3    H2 5026   3.763   3.903   4.173  0.2404 -0.8666 -0.7729
 1688TIP3   OH2 5027   1.336   4.120   1.996 -0.1919  0.4822  0.0818
 1688TIP3    H1 5028   1.328   4.195   2.056  1.6124  1.0604 -0.3210
 1688TIP3    H2 5029   1.392   4.152   1.926 -0.3751 -0.9019 -0.7263
 1689TIP3   OH2 5030   3.796   6.530   4.329 -0.6325  0.1271 -0.0386
 1689TIP3    H1 5031   3.866   6.514   4.267 -0.6904 -0.0395 -0.0614
 1689TIP3    H2 5032   3.826   6.605   4.381 -0.7269  0.4804 -0.4803
 1690TIP3   OH2 5033   5.757   3.306   4.777 -0.3177  0.6287  0.1921
 1690TIP3    H1 5034   5.774   3.362   4.701  1.8404 -0.1520  0.0425
 1690TIP3    H2 5035   5.798   3.352   4.850  0.7964 -0.3280  0.2040
 1691TIP3   OH2 5036   4.258   1.839   2.813  0.0196 -0.2609  0.1759
 1691TIP3    H1 5037   4.276   1.746   2.821  0.4338 -0.2932 -0.9384
 1691TIP3    H2 5038   4.288   1.862   2.725  0.6959  1.1056  0.7323
 1692TIP3   OH2 5039   2.341   6.585   5.082  0.1475 -0.2674  0.5072
 1692TIP3    H1 5040   2.354   6.656   5.145  0.0418  0.8599 -0.6838
 1692TIP3    H2 5041   2.264   6.611   5.031  0.7953 -0.6231 -0.7191
 1693TIP3   OH2 5042   4.344   6.649   4.899 -0.1357 -0.3527  0.3157
 1693TIP3    H1 5043   4.299   6.588   4.957 -0.5044  1.1269  1.6820
 1693TIP3    H2 5044   4.437   6.637   4.918 -0.2138 -0.4353  0.6443
 1694TIP3   OH2 5045   2.918   4.956   2.651  0.4174  0.0459 -0.7108
 1694TIP3    H1 5046   2.988   4.954   2.585  1.3995  2.6122  0.1563
 1694TIP3    H2 5047   2.961   4.931   2.732 -0.1523 -0.3247 -0.5185
 1695TIP3   OH2 5048   6.248   6.645   1.716  0.1397 -0.0185 -0.5387
 1695TIP3    H1 5049   6.195   6.676   1.642 -1.3569 -0.7149  0.1949
 1695TIP3    H2 5050   6.200   6.675   1.793  0.6911 -0.8948  0.1556
 1696TIP3   OH2 5051   0.169   1.625   3.978  1.3005 -0.0089 -0.9766
 1696TIP3    H1 5052   0.115   1.559   3.935 -0.0901  0.1053  0.4991
 1696TIP3    H2 5053   0.245   1.577   4.012  0.2531 -0.9165  0.1706
 1697TIP3   OH2 5054   4.773   3.120   3.342 -0.0233  0.2828 -0.5362
 1697TIP3    H1 5055   4.680   3.097   3.341  0.0163  0.0938 -0.0601
 1697TIP3    H2 5056   4.774   3.214   3.361 -0.0575 -0.1608  2.0060
 1698TIP3   OH2 5057   4.305   2.818   3.463  0.3885 -0.3369 -0.0508
 1698TIP3    H1 5058   4.361   2.798   3.388  1.2063 -1.2876  0.7695
 1698TIP3    H2 5059   4.218   2.791   3.436 -0.0982  2.6357 -1.9538
 1699TIP3   OH2 5060   5.637   5.905   2.448 -0.4418 -0.4103 -0.2246
 1699TIP3    H1 5061   5.584   5.828   2.467  0.2921 -0.8915 -0.1064
 1699TIP3    H2 5062   5.704   5.906   2.517 -2.2291  2.0486  1.6589
 1700TIP3   OH2 5063   0.535   4.750   0.697  0.0155 -0.0464  0.5626
 1700TIP3    H1 5064   0.589   4.794   0.762  0.3041 -0.5589  0.6745
 1700TIP3    H2 5065   0.459   4.807   0.686  0.2649  0.3511  0.8861
 1701TIP3   OH2 5066   4.661   2.084   5.400  0.0154  0.0135  0.1888
 1701TIP3    H1 5067   4.666   2.179   5.407 -0.6497 -0.0953  2.9867
 1701TIP3    H2 5068   4.717   2.051   5.471 -0.3565 -1.6827 -0.2476
 1702TIP3   OH2 5069   1.375   6.376   1.348 -0.0163 -0.3252  0.2120
 1702TIP3    H1 5070   1.318   6.412   1.280  0.3986 -1.0382 -0.5383
 1702TIP3    H2 5071   1.423   6.306   1.304 -0.3419 -1.3674  1.4645
 1703TIP3   OH2 5072   6.147   0.652   3.502 -0.3240  0.2937  0.1298
 1703TIP3    H1 5073   6.203   0.639   3.425  0.4918 -1.0482  0.8949
 1703TIP3    H2 5074   6.096   0.730   3.482 -0.0849  0.0180 -1.7371
 1704TIP3   OH2 5075   2.528   4.261   3.000  0.0527 -0.2400  0.1370
 1704TIP3    H1 5076   2.458   4.327   3.005  2.4789  2.7467 -1.8134
 1704TIP3    H2 5077   2.519   4.224   2.912  0.1944 -0.7645  0.3417
 1705TIP3   OH2 5078   0.338   0.914   4.187  0.2566  0.0316 -0.0301
 1705TIP3    H1 5079   0.251   0.879   4.168  0.2154  0.2318 -0.2146
 1705TIP3    H2 5080   0.364   0.871   4.268 -0.7973  1.3296  1.0631
 1706TIP3   OH2 5081   4.607   2.508   2.778  0.1933  0.0852 -0.1696
 1706TIP3    H1 5082   4.543   2.579   2.783  0.5433  0.3552  0.5991
 1706TIP3    H2 5083   4.604   2.479   2.687  1.0360  1.9923 -0.8544
 1707TIP3   OH2 5084   1.304   2.810   0.974  0.9367 -0.1803  0.0613
 1707TIP3    H1 5085   1.378   2.774   0.925  1.5565  1.2411 -0.0927
 1707TIP3    H2 5086   1.342   2.839   1.056  0.2397 -0.8447  0.6325
 1708TIP3   OH2 5087   1.829   6.087   2.097 -0.0685 -0.1498  0.5520
 1708TIP3    H1 5088   1.898   6.098   2.031  1.0886 -1.2541  1.5354
 1708TIP3    H2 5089   1.783   6.007   2.071  0.8137 -0.9621  1.4112
 1709TIP3   OH2 5090   5.660   3.438   5.138 -0.2335  0.8271 -0.0884
 1709TIP3    H1 5091   5.638   3.447   5.045 -0.1699  2.6232  0.0336
 1709TIP3    H2 5092   5.727   3.370   5.141 -2.3400 -1.4430 -0.9956
 1710TIP3   OH2 5093   0.879   2.509   2.080  0.1749 -0.0622 -0.2231
 1710TIP3    H1 5094   0.813   2.578   2.072  0.4210  0.2234  0.1708
 1710TIP3    H2 5095   0.842   2.447   2.142  0.4775  0.3431  0.3722
 1711TIP3   OH2 5096   0.270   3.781   0.353  0.5157  0.6035  0.2789
 1711TIP3    H1 5097   0.293   3.870   0.378  0.6967  0.2797  1.3334
 1711TIP3    H2 5098   0.195   3.791   0.294  1.3149  1.5017 -0.6085
 1712TIP3   OH2 5099   2.401   0.175   2.481 -0.2870 -0.4853  0.2010
 1712TIP3    H1 5100   2.416   0.240   2.413 -0.4003  0.1073  0.7288
 1712TIP3    H2 5101   2.465   0.106   2.464 -1.3138 -1.1038 -1.4059
 1713TIP3   OH2 5102   4.261   1.812   2.537  0.8156 -0.0198 -0.0671
 1713TIP3    H1 5103   4.235   1.761   2.461  2.9339 -1.6320  0.2109
 1713TIP3    H2 5104   4.342   1.855   2.510  1.6225 -0.6595  1.2531
 1714TIP3   OH2 5105   4.371   4.414   0.895 -0.2617 -0.1110  0.9737
 1714TIP3    H1 5106   4.387   4.413   0.989 -0.4978 -0.6172  1.0129
 1714TIP3    H2 5107   4.430   4.348   0.860 -2.4960 -2.3986  1.1835
 1715TIP3   OH2 5108   5.379   5.390   2.269  0.4251 -0.6982  0.1573
 1715TIP3    H1 5109   5.420   5.317   2.315 -0.1152 -2.7384 -2.3901
 1715TIP3    H2 5110   5.289   5.390   2.299  0.0273 -2.1365 -0.9676
 1716TIP3   OH2 5111  -0.012   3.555   2.554  0.0058 -0.1400 -0.3508
 1716TIP3    H1 5112   0.076   3.526   2.529  0.1351 -0.5263  0.5203
 1716TIP3    H2 5113  -0.020   3.532   2.646 -1.4422 -1.1976 -0.6966
 1717TIP3   OH2 5114   6.589   1.197   0.303 -0.6512  0.4663  0.1613
 1717TIP3    H1 5115   6.573   1.283   0.265 -1.6820 -0.6282 -2.1197
 1717TIP3    H2 5116   6.521   1.186   0.369 -1.2601  0.9323 -0.3810
 1718TIP3   OH2 5117   5.581   5.051   1.246 -0.4062 -0.3961 -0.1378
 1718TIP3    H1 5118   5.641   5.018   1.179  1.2050  0.3634  0.8745
 1718TIP3    H2 5119   5.549   4.972   1.290  2.3136 -0.8342  1.3360
 1719TIP3   OH2 5120   0.192   5.120   0.752  0.1955  0.0445  0.5027
 1719TIP3    H1 5121   0.263   5.088   0.807  0.3235 -1.2563 -0.3863
 1719TIP3    H2 5122   0.231   5.191   0.701  0.2770  0.7447  1.5169
 1720TIP3   OH2 5123   2.748   4.174   4.708  0.6860  0.1465  0.4688
 1720TIP3    H1 5124   2.806   4.114   4.661  0.0607  0.4093 -0.6788
 1720TIP3    H2 5125   2.757   4.257   4.662 -1.7240 -0.1750 -0.7564
 1721TIP3   OH2 5126   1.551   1.464   1.602  0.2108 -0.2407  0.0678
 1721TIP3    H1 5127   1.555   1.386   1.548 -0.7828 -0.7195  0.6610
 1721TIP3    H2 5128   1.641   1.476   1.634 -0.1752 -3.1633  2.7264
 1722TIP3   OH2 5129   4.698   2.476   4.175 -0.0418  0.4388 -0.1082
 1722TIP3    H1 5130   4.725   2.489   4.084  0.8274  2.3091  0.3758
 1722TIP3    H2 5131   4.617   2.526   4.183 -0.4327 -0.2025  0.0129
 1723TIP3   OH2 5132   2.800   4.529   5.750 -0.1151  0.1503 -0.3916
 1723TIP3    H1 5133   2.840   4.512   5.835  0.2990  3.3967  0.1840
 1723TIP3    H2 5134   2.826   4.454   5.696  2.1152 -0.5483  1.4862
 1724TIP3   OH2 5135   5.711   2.010   4.189 -0.4544  0.2631  0.0207
 1724TIP3    H1 5136   5.636   1.970   4.145  0.5501 -0.1031 -1.4289
 1724TIP3    H2 5137   5.672   2.074   4.249 -1.9649 -0.9510  0.3818
 1725TIP3   OH2 5138   2.891   0.076   4.112 -0.1592  0.6947  0.3799
 1725TIP3    H1 5139   2.974   0.098   4.068  0.1446  1.6511  1.4020
 1725TIP3    H2 5140   2.917   0.050   4.200 -0.9151  0.5231  0.5553
 1726TIP3   OH2 5141   5.803   5.224   4.441 -0.2444 -0.1596  0.3085
 1726TIP3    H1 5142   5.787   5.252   4.531  0.7848  0.3314  0.3539
 1726TIP3    H2 5143   5.800   5.305   4.390  0.9463 -0.1776  0.1769
 1727TIP3   OH2 5144   3.262   6.406   4.864  0.0124 -0.7251  0.0074
 1727TIP3    H1 5145   3.167   6.407   4.854  0.0518  1.5581 -0.5838
 1727TIP3    H2 5146   3.296   6.375   4.780 -0.1822  0.8414 -0.6845
 1728TIP3   OH2 5147   3.391   1.823   0.390  0.5502  0.3350  0.9842
 1728TIP3    H1 5148   3.361   1.848   0.303  3.8753  3.5743  0.4999
 1728TIP3    H2 5149   3.433   1.738   0.379 -0.1344  0.1501 -0.2786
 1729TIP3   OH2 5150   0.793   3.733   3.577  0.2118 -0.1169  0.4782
 1729TIP3    H1 5151   0.887   3.740   3.593 -0.0584  0.7302  1.9343
 1729TIP3    H2 5152   0.785   3.678   3.499  2.0112  1.9918 -1.3295
 1730TIP3   OH2 5153   1.411   2.119   3.425  0.3416 -0.1883 -0.8027
 1730TIP3    H1 5154   1.340   2.078   3.475 -0.0988  0.0151 -1.2452
 1730TIP3    H2 5155   1.489   2.105   3.478 -0.3313  1.3360  0.7027
 1731TIP3   OH2 5156   3.897   0.269   5.849  0.3272 -0.5883 -0.2792
 1731TIP3    H1 5157   3.855   0.294   5.931  0.9573  2.2596 -0.7257
 1731TIP3    H2 5158   3.832   0.216   5.803 -1.5512  0.9958  0.4213
 1732TIP3   OH2 5159   6.221   1.043   2.484  0.2292  0.5612  0.3058
 1732TIP3    H1 5160   6.179   1.116   2.439 -0.9606 -0.4434 -0.2633
 1732TIP3    H2 5161   6.226   0.973   2.418  0.7224 -0.1112  1.0321
 1733TIP3   OH2 5162   2.153   1.745   3.245  0.8172  0.6836 -0.8258
 1733TIP3    H1 5163   2.226   1.713   3.192  1.9982  0.3134  0.9681
 1733TIP3    H2 5164   2.173   1.837   3.262  0.1900  0.9376 -1.3824
 1734TIP3   OH2 5165   0.423   5.405   1.995 -0.4561  0.2197 -0.2324
 1734TIP3    H1 5166   0.439   5.310   1.997 -0.0378  0.2358 -1.7553
 1734TIP3    H2 5167   0.346   5.417   2.051 -0.7366 -1.0641 -0.3029
 1735TIP3   OH2 5168   4.500   4.258   3.664 -0.1729 -0.1836  0.3887
 1735TIP3    H1 5169   4.580   4.223   3.704  0.9557  1.2780 -0.5020
 1735TIP3    H2 5170   4.518   4.255   3.570 -2.3312 -2.5139 -0.0595
 1736TIP3   OH2 5171   6.692   2.307   4.446 -0.0695 -0.0723  0.2846
 1736TIP3    H1 5172   6.699   2.212   4.452  2.1108  0.0484  0.4010
 1736TIP3    H2 5173   6.755   2.340   4.509  0.0777  1.4547 -0.6005
 1737TIP3   OH2 5174   6.611   6.729   3.837 -0.1211 -0.1414 -0.1577
 1737TIP3    H1 5175   6.553   6.666   3.879  0.0170 -0.6144 -0.6610
 1737TIP3    H2 5176   6.621   6.799   3.901 -2.7307  0.8759 -0.7518
 1738TIP3   OH2 5177   2.217   1.261   2.348 -0.0656  0.3015  0.2192
 1738TIP3    H1 5178   2.296   1.207   2.336 -0.0834  0.5670 -1.2352
 1738TIP3    H2 5179   2.221   1.288   2.440  1.0656 -0.4267  0.4123
 1739TIP3   OH2 5180   1.046   0.649   4.543 -0.3853  0.4298 -0.4611
 1739TIP3    H1 5181   1.030   0.641   4.449 -1.4371  2.4873 -0.5193
 1739TIP3    H2 5182   1.137   0.621   4.555 -0.0169  0.8010 -2.1913
 1740TIP3   OH2 5183   3.985   0.391   0.336  0.3558  0.4654 -0.5775
 1740TIP3    H1 5184   4.065   0.384   0.285  1.1259  1.4307  0.4541
 1740TIP3    H2 5185   3.935   0.313   0.313  2.7942 -1.6818  0.7963
 1741TIP3   OH2 5186   2.744   1.280   2.738  0.3550 -0.3540  1.1379
 1741TIP3    H1 5187   2.699   1.196   2.724 -2.0060  1.0120 -0.0524
 1741TIP3    H2 5188   2.766   1.310   2.650  1.0454  0.3538  1.5432
 1742TIP3   OH2 5189   0.618   1.480   5.726  0.0234 -0.1255  0.8612
 1742TIP3    H1 5190   0.606   1.390   5.754  0.7778 -0.0440  1.4631
 1742TIP3    H2 5191   0.536   1.524   5.751 -0.2296 -0.5645  0.8221
 1743TIP3   OH2 5192   1.276   3.289   5.833  0.5710  0.2204  0.4347
 1743TIP3    H1 5193   1.197   3.287   5.887  0.1998  0.0042 -0.0982
 1743TIP3    H2 5194   1.292   3.197   5.812  0.7641  0.2953  0.2547
 1744TIP3   OH2 5195   1.357   2.101   0.143  0.2698  0.0392  0.7639
 1744TIP3    H1 5196   1.382   2.176   0.089 -0.6219  0.1276  0.4444
 1744TIP3    H2 5197   1.439   2.066   0.175  0.7778  0.4178 -0.0831
 1745TIP3   OH2 5198   4.503   1.340   4.343  0.2773 -0.2748  0.0099
 1745TIP3    H1 5199   4.430   1.283   4.365  0.6214 -0.8359 -0.2855
 1745TIP3    H2 5200   4.527   1.316   4.254  0.7626 -0.0340  0.0701
 1746TIP3   OH2 5201   3.550   2.312   2.439  0.1276 -0.3839 -0.2221
 1746TIP3    H1 5202   3.636   2.327   2.399  1.0755 -2.5132  0.8458
 1746TIP3    H2 5203   3.569   2.299   2.532 -1.8589  3.1883  0.8489
 1747TIP3   OH2 5204   7.009   6.106   3.476  0.0733  0.4041 -0.0450
 1747TIP3    H1 5205   7.093   6.064   3.461 -0.7687 -0.6265 -2.1312
 1747TIP3    H2 5206   7.002   6.111   3.572  1.8137 -0.8469  0.1907
 1748TIP3   OH2 5207   6.726   6.201   0.310 -0.1147  0.0107  0.9619
 1748TIP3    H1 5208   6.669   6.187   0.234  1.1291  0.1555 -0.0492
 1748TIP3    H2 5209   6.671   6.245   0.375 -0.9293  0.9354 -0.3042
 1749TIP3   OH2 5210   6.652   6.210   3.082  0.4220  0.2317  0.2827
 1749TIP3    H1 5211   6.716   6.169   3.140  1.6349  1.8631  0.1925
 1749TIP3    H2 5212   6.568   6.196   3.125  0.9142 -1.2618  0.8260
 1750TIP3   OH2 5213   2.069   2.805   4.385  0.4228 -0.0780  0.3551
 1750TIP3    H1 5214   1.989   2.857   4.389 -0.1700 -0.9315 -0.1582
 1750TIP3    H2 5215   2.135   2.867   4.352 -0.0025  0.6455  0.8322
 1751TIP3   OH2 5216   4.030   6.392   1.105 -0.0221  0.1690 -0.0903
 1751TIP3    H1 5217   3.959   6.332   1.082 -1.7247  1.9911  0.1482
 1751TIP3    H2 5218   4.068   6.419   1.022 -0.3230 -0.0049 -0.2837
 1752TIP3   OH2 5219   3.685   0.931   5.580 -0.4469 -0.5356  0.6438
 1752TIP3    H1 5220   3.655   1.014   5.542 -0.5492 -1.0378 -0.4135
 1752TIP3    H2 5221   3.778   0.945   5.599 -0.2629 -0.4279 -0.2824
 1753TIP3   OH2 5222   1.851   5.627   0.805  0.5954 -0.0091  0.2963
 1753TIP3    H1 5223   1.786   5.561   0.780  0.5262 -0.1484  0.8475
 1753TIP3    H2 5224   1.856   5.684   0.728 -1.3489  0.9328  0.8012
 1754TIP3   OH2 5225   6.583   6.761   1.187  0.3383 -0.0166 -0.3718
 1754TIP3    H1 5226   6.663   6.803   1.220 -0.4457  1.5817 -0.4017
 1754TIP3    H2 5227   6.535   6.736   1.267 -0.0622  0.9064 -0.3084
 1755TIP3   OH2 5228   0.835   0.206   0.249 -0.0699 -0.2222 -0.1390
 1755TIP3    H1 5229   0.771   0.141   0.218 -0.4087  0.4381 -0.8676
 1755TIP3    H2 5230   0.799   0.238   0.331  0.2007 -1.0928  0.3309
 1756TIP3   OH2 5231   6.141   0.536   3.740  0.0893 -0.1673 -0.1310
 1756TIP3    H1 5232   6.159   0.619   3.783 -1.1499 -1.2110  2.6377
 1756TIP3    H2 5233   6.150   0.554   3.647 -0.7267  3.2144  0.3326
 1757TIP3   OH2 5234   2.069   2.820   0.252  0.2208  0.4979 -0.3259
 1757TIP3    H1 5235   2.108   2.737   0.225  0.4277  0.0126  1.3393
 1757TIP3    H2 5236   2.137   2.885   0.233  0.4819  0.1333 -0.6540
 1758TIP3   OH2 5237   1.804   3.643   1.073 -0.6194 -0.4343 -0.1975
 1758TIP3    H1 5238   1.873   3.702   1.042 -1.5930 -0.9081 -3.7885
 1758TIP3    H2 5239   1.850   3.561   1.092  0.6835  1.0931  4.4441
 1759TIP3   OH2 5240   3.332   4.548   3.847  0.2581 -0.1033  0.3538
 1759TIP3    H1 5241   3.266   4.589   3.902 -0.3159 -0.2596 -0.2168
 1759TIP3    H2 5242   3.411   4.600   3.862 -0.0129  0.1434  0.9567
 1760TIP3   OH2 5243   7.115   1.988   5.635 -0.0213  0.1732  0.4175
 1760TIP3    H1 5244   7.182   2.039   5.680  1.5242 -0.7577 -0.7436
 1760TIP3    H2 5245   7.144   1.897   5.644 -0.8908 -0.2070 -0.4817
 1761TIP3   OH2 5246   1.052   6.452   1.420  0.5596  0.9966 -0.1086
 1761TIP3    H1 5247   1.029   6.451   1.328  0.1867  1.6191 -0.0262
 1761TIP3    H2 5248   1.147   6.460   1.421  0.8037 -1.1470 -0.4479
 1762TIP3   OH2 5249   4.521   3.383   2.310  0.1837 -0.0694  0.7085
 1762TIP3    H1 5250   4.555   3.405   2.224  0.7055  0.6899  1.1037
 1762TIP3    H2 5251   4.458   3.312   2.293 -1.2592  1.4176 -0.5642
 1763TIP3   OH2 5252   4.422   1.166   1.433  0.1988 -0.3863  0.2894
 1763TIP3    H1 5253   4.482   1.111   1.382  0.2704  0.7270 -0.8882
 1763TIP3    H2 5254   4.480   1.224   1.483  0.1095 -0.8057  0.8972
 1764TIP3   OH2 5255   6.305   1.803   5.044 -0.2037  0.1934 -0.0844
 1764TIP3    H1 5256   6.370   1.827   4.979 -0.4963  0.2189 -0.3713
 1764TIP3    H2 5257   6.352   1.749   5.107 -0.2453 -1.1246 -1.1340
 1765TIP3   OH2 5258   3.829   4.644   0.132 -0.2889 -0.1025 -0.0490
 1765TIP3    H1 5259   3.863   4.560   0.163 -0.2032  0.3107  1.0273
 1765TIP3    H2 5260   3.794   4.625   0.045 -1.5611 -1.5856  0.7247
 1766TIP3   OH2 5261   1.762   3.504   1.967  0.7387 -0.4297 -0.3447
 1766TIP3    H1 5262   1.697   3.566   2.001  0.0652 -0.9469 -0.6800
 1766TIP3    H2 5263   1.719   3.419   1.971  1.0407 -0.6441 -1.4845
 1767TIP3   OH2 5264   3.382   0.538   2.115  0.0499  0.2956  0.8583
 1767TIP3    H1 5265   3.419   0.505   2.197 -0.3844 -2.5118  0.0346
 1767TIP3    H2 5266   3.291   0.506   2.116  0.3065 -0.6041 -1.0970
 1768TIP3   OH2 5267   1.383   6.310   2.429  0.0739  0.2196  0.1855
 1768TIP3    H1 5268   1.347   6.345   2.347  1.2827  0.2038 -0.3843
 1768TIP3    H2 5269   1.418   6.224   2.405 -1.4058 -0.7134  1.2152
 1769TIP3   OH2 5270   3.540   3.204   0.221 -0.4558  0.1453  0.4907
 1769TIP3    H1 5271   3.559   3.111   0.206  0.9442  0.6134 -0.9931
 1769TIP3    H2 5272   3.602   3.250   0.164 -1.7079  1.9837  0.5346
 1770TIP3   OH2 5273   0.255   3.751   2.033  0.5782  0.4042  0.2196
 1770TIP3    H1 5274   0.350   3.752   2.031  0.5988  2.1861  0.2142
 1770TIP3    H2 5275   0.233   3.762   2.126  0.3309 -1.6997  0.4534
 1771TIP3   OH2 5276   4.399   0.967   3.399 -0.3391 -0.1818  0.3008
 1771TIP3    H1 5277   4.316   1.011   3.384 -0.2699  0.8262  2.4594
 1771TIP3    H2 5278   4.376   0.888   3.448  0.0314  1.0646  2.6375
 1772TIP3   OH2 5279   4.051   6.503   3.281  0.1669 -0.5940  0.2402
 1772TIP3    H1 5280   4.068   6.432   3.343  1.1870 -0.7599 -0.2097
 1772TIP3    H2 5281   3.978   6.471   3.228  1.2306 -1.7476 -0.5848
 1773TIP3   OH2 5282   4.087   2.129   1.888 -0.1783 -0.3919 -0.1312
 1773TIP3    H1 5283   4.031   2.093   1.956 -1.0011 -1.6687 -1.4304
 1773TIP3    H2 5284   4.040   2.207   1.857  0.1503  0.1343  0.6587
 1774TIP3   OH2 5285   5.296   6.501   4.301  0.5754 -0.6072 -0.1999
 1774TIP3    H1 5286   5.225   6.443   4.329 -0.7612  0.9260 -0.2549
 1774TIP3    H2 5287   5.312   6.477   4.210 -0.6383 -0.2546 -0.5210
 1775TIP3   OH2 5288   6.604   3.656   0.325 -0.0624  0.0868  0.3226
 1775TIP3    H1 5289   6.567   3.584   0.275  1.7424  0.2177 -1.3225
 1775TIP3    H2 5290   6.630   3.617   0.409 -0.7161 -0.7543  0.1376
 1776TIP3   OH2 5291   4.812   3.065   5.657 -0.0958 -0.1954 -0.0425
 1776TIP3    H1 5292   4.763   3.034   5.581  0.1827  0.0657 -0.3322
 1776TIP3    H2 5293   4.814   3.161   5.647  0.5488 -0.2068 -0.0851
 1777TIP3   OH2 5294   0.943   3.513   1.374  0.8123 -0.1282 -0.3395
 1777TIP3    H1 5295   0.934   3.439   1.315  0.8928 -1.5586  1.3538
 1777TIP3    H2 5296   0.923   3.477   1.460 -0.6455  2.1729  0.3632
 1778TIP3   OH2 5297   0.781   6.329   0.771 -0.0844  0.6153  0.0334
 1778TIP3    H1 5298   0.742   6.405   0.814 -1.3250  1.2870 -2.1164
 1778TIP3    H2 5299   0.723   6.311   0.696  1.0220 -1.5009 -0.4028
 1779TIP3   OH2 5300   1.022   2.995   4.171  0.8334 -0.0928 -0.3107
 1779TIP3    H1 5301   1.080   3.021   4.099  0.2806  0.1790 -0.6652
 1779TIP3    H2 5302   1.063   3.032   4.249  1.6427 -0.7055 -0.4242
 1780TIP3   OH2 5303   0.533   3.744   3.666  0.0481 -0.1491 -0.0328
 1780TIP3    H1 5304   0.532   3.740   3.761  2.3125 -0.8200  0.0305
 1780TIP3    H2 5305   0.626   3.739   3.643 -0.4414 -0.0400 -2.2809
 1781TIP3   OH2 5306   3.199   4.462   0.691  0.3616 -0.0499 -0.5077
 1781TIP3    H1 5307   3.230   4.484   0.778  1.0947  0.0927 -0.8034
 1781TIP3    H2 5308   3.273   4.418   0.648 -0.7790 -2.4834 -0.1921
 1782TIP3   OH2 5309   2.123   3.138   3.655 -0.3633 -0.7473 -0.2353
 1782TIP3    H1 5310   2.084   3.151   3.741 -0.4052  2.1377 -0.6044
 1782TIP3    H2 5311   2.050   3.144   3.594 -0.0009 -0.1861 -0.6243
 1783TIP3   OH2 5312   6.505   5.208   5.441  0.3732 -0.4553 -0.5227
 1783TIP3    H1 5313   6.580   5.149   5.441  1.8727  1.3650 -1.2500
 1783TIP3    H2 5314   6.532   5.282   5.387 -1.1688  1.2126  0.8629
 1784TIP3   OH2 5315   3.776   6.338   3.196 -0.5448 -0.1364  0.0492
 1784TIP3    H1 5316   3.732   6.390   3.128 -1.7113 -1.0043  0.1109
 1784TIP3    H2 5317   3.796   6.255   3.153 -0.6393 -0.4213  0.5544
 1785TIP3   OH2 5318   4.587   5.866   3.668  0.6186 -0.1250 -0.4571
 1785TIP3    H1 5319   4.630   5.940   3.710  1.1201 -0.5093 -0.2752
 1785TIP3    H2 5320   4.646   5.842   3.596 -0.1019  0.3617 -1.2212
 1786TIP3   OH2 5321   5.009   5.789   1.785 -0.1114 -0.1483 -0.7436
 1786TIP3    H1 5322   4.985   5.859   1.724 -0.2574  1.7307  1.3369
 1786TIP3    H2 5323   4.928   5.769   1.831  0.4310 -0.0004  0.2924
 1787TIP3   OH2 5324   2.655   3.180   2.060 -0.8148 -0.0622 -0.0470
 1787TIP3    H1 5325   2.565   3.170   2.091 -1.1232 -1.2472 -1.1904
 1787TIP3    H2 5326   2.651   3.253   1.998 -0.9892 -0.1058 -0.0882
 1788TIP3   OH2 5327   5.860   1.335   3.857 -0.6847 -0.0343 -0.3583
 1788TIP3    H1 5328   5.808   1.409   3.886 -0.1000 -0.0776  0.8715
 1788TIP3    H2 5329   5.942   1.373   3.827  0.2938 -0.2559  1.8635
 1789TIP3   OH2 5330   1.521   4.817   2.878  0.1833  0.2311 -0.4802
 1789TIP3    H1 5331   1.538   4.840   2.786  0.3325  0.1745 -0.4672
 1789TIP3    H2 5332   1.527   4.900   2.925  0.6849  0.1756 -0.4392
 1790TIP3   OH2 5333   5.242   0.271   4.378  0.4750  0.3699 -0.4189
 1790TIP3    H1 5334   5.314   0.321   4.417  1.7047 -1.2557 -0.4960
 1790TIP3    H2 5335   5.262   0.271   4.284 -1.5705  2.8443 -0.9783
 1791TIP3   OH2 5336   2.682   6.048   0.192  0.1485 -0.9787  0.1423
 1791TIP3    H1 5337   2.708   6.066   0.283 -1.0865  3.3254 -0.1265
 1791TIP3    H2 5338   2.618   5.977   0.199  0.3023 -0.9528  2.6057
 1792TIP3   OH2 5339   0.320   2.595   4.271  0.2646  0.1495 -0.3302
 1792TIP3    H1 5340   0.342   2.566   4.183  0.9791  1.6884 -0.6984
 1792TIP3    H2 5341   0.336   2.690   4.270 -0.8240  0.3967  1.1133
 1793TIP3   OH2 5342   0.318   5.727   2.363 -0.5238  0.2472  0.2597
 1793TIP3    H1 5343   0.254   5.796   2.342 -0.4413  0.2455  0.0067
 1793TIP3    H2 5344   0.348   5.695   2.278  0.0975  0.5047  0.3776
 1794TIP3   OH2 5345   4.717   4.374   2.400 -0.1126  0.3393 -0.0616
 1794TIP3    H1 5346   4.755   4.461   2.411  1.3275 -0.4335  1.4639
 1794TIP3    H2 5347   4.758   4.340   2.320  0.4377  0.4994  0.1499
 1795TIP3   OH2 5348   2.399   4.061   5.343  0.7715 -0.3930 -0.0109
 1795TIP3    H1 5349   2.326   4.109   5.303  0.9109 -1.1771 -1.2535
 1795TIP3    H2 5350   2.373   4.051   5.435 -0.8595 -0.9404 -0.4975
 1796TIP3   OH2 5351   2.001   4.765   2.703 -0.5582  0.2913 -0.1022
 1796TIP3    H1 5352   2.003   4.674   2.674 -0.6325 -0.1215  1.1382
 1796TIP3    H2 5353   2.033   4.815   2.628 -0.5903 -0.7466 -0.8196
 1797TIP3   OH2 5354   6.660   1.257   4.332  0.5062 -0.2117  0.4374
 1797TIP3    H1 5355   6.755   1.250   4.323  0.5224  0.8318 -0.5598
 1797TIP3    H2 5356   6.630   1.168   4.350  1.4733 -1.0077 -1.5267
 1798TIP3   OH2 5357   0.478   6.126   0.975 -0.3206 -0.1897 -0.2478
 1798TIP3    H1 5358   0.531   6.113   1.054 -1.2786 -0.1838  0.4187
 1798TIP3    H2 5359   0.531   6.091   0.904  1.3380  1.4164  0.1242
 1799TIP3   OH2 5360   7.174   5.741   3.716 -0.6077  0.2391 -0.0281
 1799TIP3    H1 5361   7.250   5.758   3.659 -1.2486 -0.8312 -1.2534
 1799TIP3    H2 5362   7.174   5.814   3.778  0.8106  0.8180 -0.6627
 1800TIP3   OH2 5363   1.274   4.851   1.525 -0.3332  0.0214 -0.2530
 1800TIP3    H1 5364   1.333   4.888   1.460 -1.9491  0.7147 -1.3988
 1800TIP3    H2 5365   1.227   4.927   1.560 -1.8637 -0.6604 -0.7455
 1801TIP3   OH2 5366   2.346   2.756   0.900  0.2887 -0.5321 -0.0891
 1801TIP3    H1 5367   2.428   2.800   0.923  0.0671 -0.4314  0.5323
 1801TIP3    H2 5368   2.373   2.672   0.864  0.6401 -1.6354  2.5401
 1802TIP3   OH2 5369   1.801   3.469   2.798  0.1997  0.1368 -0.3964
 1802TIP3    H1 5370   1.751   3.389   2.783 -1.3446  1.1852 -1.1533
 1802TIP3    H2 5371   1.887   3.452   2.762 -0.0282 -1.2636 -0.3184
 1803TIP3   OH2 5372   5.825   6.044   1.425 -0.5528 -0.5720 -0.1292
 1803TIP3    H1 5373   5.776   6.055   1.507 -0.9271  0.1476 -0.4441
 1803TIP3    H2 5374   5.888   6.116   1.425  0.2638 -1.2749  0.0925
 1804TIP3   OH2 5375   0.238   5.452   0.948 -0.2563 -0.3519  0.2775
 1804TIP3    H1 5376   0.163   5.460   1.006 -0.2560  0.8501  0.1242
 1804TIP3    H2 5377   0.313   5.445   1.007 -0.3458 -0.0919  0.4217
 1805TIP3   OH2 5378   3.714   5.876   1.157 -0.3711  0.1160  0.1021
 1805TIP3    H1 5379   3.710   5.781   1.169  0.5908  0.0078 -0.3819
 1805TIP3    H2 5380   3.680   5.911   1.239 -0.1333 -0.6494  0.5405
 1806TIP3   OH2 5381   1.143   2.781   2.563 -0.5132 -0.5072  0.0600
 1806TIP3    H1 5382   1.214   2.743   2.511  1.3170  0.6226  1.5955
 1806TIP3    H2 5383   1.074   2.798   2.500  1.9367  1.7274 -2.2717
 1807TIP3   OH2 5384   4.784   5.744   5.340 -0.2155  0.4239  0.6136
 1807TIP3    H1 5385   4.693   5.721   5.322 -0.2567 -1.2994  2.6153
 1807TIP3    H2 5386   4.783   5.778   5.429  1.1235  0.0519  0.7934
 1808TIP3   OH2 5387   2.390   4.235   5.065  0.6975  0.6409  0.2295
 1808TIP3    H1 5388   2.392   4.146   5.100  1.4286  0.7133  0.3960
 1808TIP3    H2 5389   2.358   4.226   4.975 -3.6010  0.6945  1.5354
 1809TIP3   OH2 5390   4.248   3.466   2.503  0.1749 -0.5154 -0.5354
 1809TIP3    H1 5391   4.310   3.536   2.483 -0.7730  0.3310 -0.5758
 1809TIP3    H2 5392   4.189   3.463   2.428 -0.1135 -0.9975 -0.2981
 1810TIP3   OH2 5393   5.930   6.030   4.280  0.4338  0.4941 -0.5061
 1810TIP3    H1 5394   5.978   6.079   4.347  1.1728  0.3205 -0.8975
 1810TIP3    H2 5395   5.841   6.067   4.282  0.0787 -0.3355  1.4061
 1811TIP3   OH2 5396   1.395   3.746   1.958 -0.4916  0.0391 -0.1153
 1811TIP3    H1 5397   1.299   3.742   1.967 -0.5055  0.0760 -0.2497
 1811TIP3    H2 5398   1.427   3.676   2.015 -0.5562  0.6451  0.6938
 1812TIP3   OH2 5399   0.479   2.050   0.373 -0.2373 -0.1514 -0.0631
 1812TIP3    H1 5400   0.436   1.985   0.428  0.1342  0.2002  0.6454
 1812TIP3    H2 5401   0.481   2.130   0.426  1.0786 -0.0930 -0.1581
 1813TIP3   OH2 5402   4.919   2.165   2.954  0.2937  0.4580 -0.4438
 1813TIP3    H1 5403   4.876   2.212   3.026 -0.3306  1.3071 -1.3435
 1813TIP3    H2 5404   4.991   2.223   2.928  1.0434 -0.2370  0.0322
 1814TIP3   OH2 5405   2.030   0.657   0.831 -0.4898 -0.5500  0.0372
 1814TIP3    H1 5406   1.994   0.657   0.743 -0.0637 -1.9504 -0.1678
 1814TIP3    H2 5407   1.959   0.687   0.887 -0.6400  0.7312 -0.8129
 1815TIP3   OH2 5408   3.399   2.014   0.973  0.2635 -0.4123  0.0317
 1815TIP3    H1 5409   3.431   1.942   1.027 -0.7438 -1.0285 -0.1524
 1815TIP3    H2 5410   3.318   1.980   0.935 -0.1719  0.7970 -0.1419
 1816TIP3   OH2 5411   6.823   4.628   0.907  0.4150  0.1250  0.6662
 1816TIP3    H1 5412   6.861   4.705   0.948  0.8776 -0.5047  1.4606
 1816TIP3    H2 5413   6.897   4.580   0.870  0.3379 -0.7391  1.5809
 1817TIP3   OH2 5414   6.712   1.451   0.684  0.5152 -0.3076  0.1045
 1817TIP3    H1 5415   6.735   1.473   0.774  0.4048 -1.5348  0.4568
 1817TIP3    H2 5416   6.797   1.437   0.641  0.5821  0.6579 -0.0984
 1818TIP3   OH2 5417   5.548   3.166   5.880  0.8944 -0.4190  0.0823
 1818TIP3    H1 5418   5.460   3.130   5.892  0.1223  1.6293  1.0350
 1818TIP3    H2 5419   5.562   3.165   5.785 -1.5469  2.1437 -0.4376
 1819TIP3   OH2 5420   7.039   2.955   1.229  0.1972  0.2287  0.3091
 1819TIP3    H1 5421   7.046   2.863   1.201 -0.2475 -0.1477  1.3953
 1819TIP3    H2 5422   6.950   2.963   1.263  1.0668  0.3053  2.7874
 1820TIP3   OH2 5423   1.424   6.485   0.986 -0.4269  0.0010 -0.9931
 1820TIP3    H1 5424   1.340   6.516   0.954 -0.7077  0.0860 -0.1964
 1820TIP3    H2 5425   1.405   6.401   1.028 -0.2377  0.3259 -0.2325
 1821TIP3   OH2 5426   0.579   2.810   2.632 -0.5948 -0.3079 -0.3157
 1821TIP3    H1 5427   0.611   2.847   2.550 -0.8825  0.4412 -0.0964
 1821TIP3    H2 5428   0.615   2.868   2.700 -0.5603 -0.7795  0.0728
 1822TIP3   OH2 5429   5.056   4.779   5.298 -0.1801  0.0875 -0.4090
 1822TIP3    H1 5430   5.135   4.731   5.321 -0.2678  0.4640  0.7757
 1822TIP3    H2 5431   4.988   4.712   5.293 -0.1497 -0.0184  0.4588
 1823TIP3   OH2 5432   4.580   3.119   0.637 -0.4340 -0.3266  0.2169
 1823TIP3    H1 5433   4.579   3.140   0.544  1.6227 -0.5299  0.1117
 1823TIP3    H2 5434   4.636   3.041   0.644 -2.5424 -1.8578  1.3537
 1824TIP3   OH2 5435   6.089   2.992   1.088  0.2949 -0.0113  0.4664
 1824TIP3    H1 5436   6.094   2.911   1.138 -0.5615  0.3171  1.1027
 1824TIP3    H2 5437   5.996   3.006   1.073  0.2337  1.9270  2.1824
 1825TIP3   OH2 5438   4.158   0.151   5.855 -0.0699 -0.0673  0.4558
 1825TIP3    H1 5439   4.211   0.230   5.849 -1.5157  0.9727  1.0715
 1825TIP3    H2 5440   4.070   0.178   5.829 -0.4176 -1.6742 -0.1746
 1826TIP3   OH2 5441   5.066   1.743   2.152  0.2467  0.7685 -0.2467
 1826TIP3    H1 5442   5.112   1.724   2.233 -0.6264 -0.6621 -0.0494
 1826TIP3    H2 5443   4.974   1.750   2.177 -0.1115 -0.2784 -1.1543
 1827TIP3   OH2 5444   3.755   6.697   3.067  0.3905 -0.2991  0.0102
 1827TIP3    H1 5445   3.819   6.702   2.997  2.4117 -0.1056  1.7585
 1827TIP3    H2 5446   3.697   6.625   3.042  1.2125 -0.4212 -1.6878
 1828TIP3   OH2 5447   0.812   1.656   1.643  0.0661 -0.4647  0.3365
 1828TIP3    H1 5448   0.796   1.603   1.565 -1.8727 -0.5380  0.7200
 1828TIP3    H2 5449   0.898   1.630   1.673  0.1782 -1.6013 -0.8786
 1829TIP3   OH2 5450   3.766   3.227   3.910  0.9047  0.5975  0.2359
 1829TIP3    H1 5451   3.691   3.178   3.945  0.5163  0.9916 -0.0426
 1829TIP3    H2 5452   3.839   3.166   3.918  0.3575 -0.1759 -0.4527
 1830TIP3   OH2 5453   4.022   2.046   0.679  0.1733  0.1456  0.4038
 1830TIP3    H1 5454   3.940   2.018   0.720 -0.5365 -1.3801 -1.8824
 1830TIP3    H2 5455   3.995   2.101   0.606  1.3833  2.3467  1.4990
 1831TIP3   OH2 5456   2.240   6.507   3.141  0.2150  0.1023 -0.2493
 1831TIP3    H1 5457   2.330   6.533   3.156  0.9296 -1.8295 -0.8322
 1831TIP3    H2 5458   2.220   6.445   3.211  0.0787 -1.0760 -1.2961
 1832TIP3   OH2 5459   6.755   2.119   3.094  0.2661  0.5571 -0.6873
 1832TIP3    H1 5460   6.812   2.072   3.155  0.3509  1.7847  0.1957
 1832TIP3    H2 5461   6.728   2.051   3.031  0.8810 -0.5339  0.1768
 1833TIP3   OH2 5462   4.059   0.606   4.828 -0.3532  0.1632 -0.2451
 1833TIP3    H1 5463   4.125   0.559   4.777  0.8483  1.0651  0.4291
 1833TIP3    H2 5464   4.099   0.618   4.914 -1.8827 -0.2985  0.5648
 1834TIP3   OH2 5465   4.090   0.820   3.652 -1.0373 -0.1210 -0.1901
 1834TIP3    H1 5466   4.116   0.909   3.676  0.7173 -0.4956 -0.5556
 1834TIP3    H2 5467   3.999   0.813   3.681 -1.0168  1.5746  0.4071
 1835TIP3   OH2 5468   3.131   0.373   4.716 -0.1424  0.4842  0.2550
 1835TIP3    H1 5469   3.159   0.317   4.789  3.0838  0.0330 -1.1422
 1835TIP3    H2 5470   3.109   0.312   4.646  0.6877  0.8801 -0.3786
 1836TIP3   OH2 5471   3.872   0.336   4.041  0.5109 -0.0814  0.3183
 1836TIP3    H1 5472   3.876   0.374   4.129 -2.0732 -3.2064  2.0242
 1836TIP3    H2 5473   3.908   0.248   4.052 -0.8215 -0.9127 -1.4663
 1837TIP3   OH2 5474   2.201   6.390   3.372  0.2834  0.3504  1.0178
 1837TIP3    H1 5475   2.283   6.358   3.409  0.8068  1.4359  0.8332
 1837TIP3    H2 5476   2.172   6.458   3.434  0.5287  1.3159  0.0943
 1838TIP3   OH2 5477   2.659   6.624   4.655 -0.1899  0.4799 -0.8191
 1838TIP3    H1 5478   2.685   6.689   4.591  0.5648 -0.6956 -1.7430
 1838TIP3    H2 5479   2.727   6.557   4.651  0.0387  0.5034  1.4227
 1839TIP3   OH2 5480   1.263   5.138   3.018 -0.2634 -0.4595 -0.1530
 1839TIP3    H1 5481   1.215   5.063   3.055  0.6760 -0.6335  0.7594
 1839TIP3    H2 5482   1.314   5.101   2.946 -0.6799 -0.4755 -0.4407
 1840TIP3   OH2 5483   1.777   4.187   4.062  0.2130 -0.4373  0.1614
 1840TIP3    H1 5484   1.858   4.139   4.076  0.7486  0.2975 -0.3570
 1840TIP3    H2 5485   1.795   4.275   4.094 -0.2700 -0.1810 -0.2609
 1841TIP3   OH2 5486   5.149   4.973   0.725  0.1210 -0.4999  0.0717
 1841TIP3    H1 5487   5.179   4.972   0.816 -1.1600  0.2121  0.5241
 1841TIP3    H2 5488   5.147   5.065   0.701 -0.5751 -0.6097 -0.3193
 1842TIP3   OH2 5489   3.385   5.220   4.334  0.2116 -0.2152 -0.3482
 1842TIP3    H1 5490   3.294   5.233   4.364  0.0502 -3.8140  1.3012
 1842TIP3    H2 5491   3.434   5.292   4.375 -1.6038  0.6993  0.3391
 1843TIP3   OH2 5492   1.201   0.553   3.783 -0.7380 -0.0648 -0.6103
 1843TIP3    H1 5493   1.233   0.602   3.707  2.0574  1.3145  1.2646
 1843TIP3    H2 5494   1.253   0.472   3.782  0.7341  0.8036  0.7685
 1844TIP3   OH2 5495   5.114   4.747   0.983  0.7970 -0.0437  0.3173
 1844TIP3    H1 5496   5.127   4.833   1.023  0.5815  0.2059 -0.1440
 1844TIP3    H2 5497   5.193   4.733   0.930 -0.5983  1.3812 -2.3171
 1845TIP3   OH2 5498   3.354   1.013   2.457 -0.0178  0.0898 -0.1178
 1845TIP3    H1 5499   3.362   1.038   2.365 -0.9232 -0.4424 -0.3568
 1845TIP3    H2 5500   3.275   0.960   2.460  0.6784 -0.9488  0.7413
 1846TIP3   OH2 5501   0.570   4.307   2.972  0.1446  0.2542 -0.0704
 1846TIP3    H1 5502   0.588   4.227   3.022  2.1773  1.6937  1.6688
 1846TIP3    H2 5503   0.494   4.346   3.015  0.6768  0.4795  0.6881
 1847TIP3   OH2 5504   3.243   0.430   2.794 -0.8291 -0.1654  0.7634
 1847TIP3    H1 5505   3.190   0.453   2.871 -0.8827 -1.6502  1.2079
 1847TIP3    H2 5506   3.332   0.420   2.829 -0.8509 -0.8294  0.6331
 1848TIP3   OH2 5507   6.679   2.412   5.216  0.3480  0.5695 -0.6757
 1848TIP3    H1 5508   6.709   2.498   5.188 -1.5180  0.9841 -1.6080
 1848TIP3    H2 5509   6.692   2.356   5.140 -1.3843  0.8401 -1.2329
 1849TIP3   OH2 5510   4.028   6.679   3.939 -0.0301  0.0581 -1.2776
 1849TIP3    H1 5511   3.954   6.620   3.952  0.7864 -0.8508 -0.5509
 1849TIP3    H2 5512   4.080   6.670   4.019 -0.1665  2.2269 -0.8833
 1850TIP3   OH2 5513   5.821   3.224   5.039  0.4692 -0.4343 -0.2182
 1850TIP3    H1 5514   5.901   3.277   5.041  0.5398 -0.4249 -1.8927
 1850TIP3    H2 5515   5.841   3.154   4.977 -0.5324 -0.9366  0.0055
 1851TIP3   OH2 5516   3.638   5.248   3.805  0.1451 -0.2787  0.1646
 1851TIP3    H1 5517   3.560   5.303   3.815 -0.1488 -0.7321  0.4042
 1851TIP3    H2 5518   3.637   5.192   3.883  1.2798  0.4085  0.6951
 1852TIP3   OH2 5519   4.742   4.317   5.827  0.7707 -0.3523 -0.5182
 1852TIP3    H1 5520   4.815   4.268   5.789  0.3415 -0.5338 -1.1197
 1852TIP3    H2 5521   4.742   4.399   5.778  0.1978 -0.5985 -0.9366
 1853TIP3   OH2 5522   6.619   1.623   0.429 -0.2098 -0.2367  0.0240
 1853TIP3    H1 5523   6.680   1.571   0.480  0.5744  0.4970 -0.1284
 1853TIP3    H2 5524   6.576   1.680   0.493 -0.5767 -0.5938  0.1004
 1854TIP3   OH2 5525   2.770   2.879   4.098 -0.2285  0.2078 -0.4416
 1854TIP3    H1 5526   2.719   2.815   4.048 -1.0401  0.5214 -0.0362
 1854TIP3    H2 5527   2.748   2.861   4.190  0.5055  0.2605 -0.2451
 1855TIP3   OH2 5528   6.698   6.441   1.124 -0.1680 -0.1358 -0.1722
 1855TIP3    H1 5529   6.737   6.372   1.178  1.5664 -0.0004 -1.1728
 1855TIP3    H2 5530   6.725   6.522   1.166 -3.2155  0.0667  1.7138
 1856TIP3   OH2 5531   6.617   4.265   5.551  0.0405  0.0714 -0.0354
 1856TIP3    H1 5532   6.619   4.251   5.457 -1.2662 -1.5648  0.1222
 1856TIP3    H2 5533   6.644   4.356   5.563 -1.5749  0.9095 -2.1438
 1857TIP3   OH2 5534   7.202   0.299   4.106 -0.3605  0.1042 -0.3545
 1857TIP3    H1 5535   7.157   0.219   4.131  1.3463 -1.4426 -1.9387
 1857TIP3    H2 5536   7.153   0.332   4.031 -0.2800 -0.2361 -0.5588
 1858TIP3   OH2 5537   6.635   5.517   1.395 -0.3636 -0.2821  0.0908
 1858TIP3    H1 5538   6.723   5.483   1.409  0.2663  1.9074  2.0271
 1858TIP3    H2 5539   6.644   5.580   1.323 -0.4963 -0.5150 -0.1332
 1859TIP3   OH2 5540   0.818   1.258   1.080  0.1394  0.1796 -0.6811
 1859TIP3    H1 5541   0.861   1.229   1.000  0.7384 -0.8913 -0.0067
 1859TIP3    H2 5542   0.877   1.228   1.150 -1.0402 -0.1369  0.2066
 1860TIP3   OH2 5543   2.235   6.599   0.578  0.2547 -0.3781  0.4625
 1860TIP3    H1 5544   2.301   6.577   0.644  1.2620 -1.7701 -0.9194
 1860TIP3    H2 5545   2.193   6.678   0.611  0.0887 -1.4841  3.1845
 1861TIP3   OH2 5546   4.398   2.695   5.160 -0.7328  0.0134 -0.4109
 1861TIP3    H1 5547   4.483   2.682   5.118 -1.3662 -0.3370 -1.6042
 1861TIP3    H2 5548   4.387   2.617   5.215 -0.4938 -0.1539 -0.5975
 1862TIP3   OH2 5549   7.019   1.907   4.875 -0.0630  0.4020  0.5018
 1862TIP3    H1 5550   7.015   1.959   4.795 -1.0921  1.3150  1.1298
 1862TIP3    H2 5551   6.985   1.964   4.944  0.5695 -0.4475  1.5581
 1863TIP3   OH2 5552   0.369   4.848   5.265  0.0932  0.3734  0.5375
 1863TIP3    H1 5553   0.443   4.890   5.220 -0.7899  1.1548 -0.2325
 1863TIP3    H2 5554   0.365   4.760   5.227 -0.0543  0.7086 -0.2500
 1864TIP3   OH2 5555   2.471   1.863   1.098  0.7831  0.0528 -0.0784
 1864TIP3    H1 5556   2.545   1.857   1.157  0.3251 -0.1442  0.4871
 1864TIP3    H2 5557   2.476   1.952   1.062  1.6585 -0.1805 -0.5495
 1865TIP3   OH2 5558   4.646   3.375   0.061  0.6050 -0.0714 -0.2734
 1865TIP3    H1 5559   4.555   3.355   0.080  0.8562 -0.6371  0.3599
 1865TIP3    H2 5560   4.691   3.290   0.065  1.2363  0.2614 -0.1266
 1866TIP3   OH2 5561   5.104   3.397   0.469  0.3230  0.0503  0.1020
 1866TIP3    H1 5562   5.123   3.320   0.522 -1.6629 -0.2444  0.4549
 1866TIP3    H2 5563   5.074   3.362   0.385  2.0264  0.5026 -0.7350
 1867TIP3   OH2 5564   3.496   6.631   0.150  0.6253  0.1934  0.0238
 1867TIP3    H1 5565   3.557   6.562   0.176  0.1084 -0.9396 -1.6098
 1867TIP3    H2 5566   3.410   6.596   0.173  0.3496  0.2219 -0.9363
 1868TIP3   OH2 5567   1.578   1.584   1.223 -0.0369 -0.1356  0.3843
 1868TIP3    H1 5568   1.670   1.611   1.222 -0.3478  1.1036 -1.6481
 1868TIP3    H2 5569   1.580   1.494   1.190  0.5254 -0.6652  1.7596
 1869TIP3   OH2 5570   1.020   3.194   0.836  0.1439  0.1196  0.3773
 1869TIP3    H1 5571   1.001   3.189   0.742  1.0283  0.5061  0.1713
 1869TIP3    H2 5572   1.094   3.134   0.848  0.0645  0.1105  0.8163
 1870TIP3   OH2 5573   4.419   5.315   5.040 -0.2365 -0.1681  0.0130
 1870TIP3    H1 5574   4.332   5.278   5.024 -0.2027  0.0008 -0.5986
 1870TIP3    H2 5575   4.476   5.268   4.979  0.0653 -0.1249  0.2588
 1871TIP3   OH2 5576   4.789   5.359   1.891  0.5196  0.1435 -0.0792
 1871TIP3    H1 5577   4.812   5.270   1.917 -0.9400 -0.2218  0.0824
 1871TIP3    H2 5578   4.862   5.413   1.921  1.8771 -1.1082 -1.0281
 1872TIP3   OH2 5579   6.021   0.118   4.252 -0.0676  0.5110  0.7444
 1872TIP3    H1 5580   6.111   0.150   4.252 -0.5437  2.1054 -1.4847
 1872TIP3    H2 5581   5.995   0.118   4.160 -2.5062  0.5619  1.3491
 1873TIP3   OH2 5582   1.841   3.318   4.740  0.1133 -0.2270  0.2851
 1873TIP3    H1 5583   1.815   3.404   4.708 -1.1213  0.2833  2.4222
 1873TIP3    H2 5584   1.779   3.257   4.700  1.6602 -0.3476 -2.0959
 1874TIP3   OH2 5585   4.819   0.352   3.539  0.2924 -0.3961  0.4598
 1874TIP3    H1 5586   4.804   0.395   3.455 -0.8066 -2.6380 -0.5671
 1874TIP3    H2 5587   4.747   0.289   3.547 -0.4548  0.6805  3.7648
 1875TIP3   OH2 5588   0.881   5.541   0.532 -0.2907 -0.3911 -0.2500
 1875TIP3    H1 5589   0.929   5.529   0.450  0.2816  0.4553 -0.0468
 1875TIP3    H2 5590   0.816   5.470   0.532  0.9769 -1.5931 -0.5071
 1876TIP3   OH2 5591   3.771   2.106   1.664  0.1741 -0.4762  0.2498
 1876TIP3    H1 5592   3.717   2.143   1.734  0.7694 -0.0506  0.4916
 1876TIP3    H2 5593   3.846   2.164   1.659  0.6170 -1.0694 -0.0731
 1877TIP3   OH2 5594   4.153   1.094   3.383 -0.1165  0.0578 -0.0425
 1877TIP3    H1 5595   4.156   1.180   3.424 -0.2935 -0.3120  0.7842
 1877TIP3    H2 5596   4.063   1.085   3.352 -0.6938 -0.6164  1.6984
 1878TIP3   OH2 5597   2.123   6.164   3.225  0.1276 -0.4986  0.1644
 1878TIP3    H1 5598   2.108   6.251   3.260  0.8458 -0.3145  0.0284
 1878TIP3    H2 5599   2.144   6.110   3.301  1.2477 -0.1963  0.0932
 1879TIP3   OH2 5600   6.826   2.415   1.952  0.4812 -0.0367 -0.4313
 1879TIP3    H1 5601   6.878   2.358   2.007  0.5485 -0.1980 -0.6599
 1879TIP3    H2 5602   6.757   2.448   2.009  1.0261  0.4427 -0.0375
 1880TIP3   OH2 5603   4.167  -0.007   2.592  1.1316  0.4605 -0.1901
 1880TIP3    H1 5604   4.109   0.055   2.548 -0.8417  0.4375  2.1584
 1880TIP3    H2 5605   4.217   0.048   2.653  1.6263  0.1234 -0.2902
 1881TIP3   OH2 5606   4.394   3.284   0.130 -0.4227  0.1316  0.0012
 1881TIP3    H1 5607   4.367   3.302   0.220  2.3653  0.5271  0.8282
 1881TIP3    H2 5608   4.313   3.293   0.079 -1.7804  1.4036  2.2239
 1882TIP3   OH2 5609   3.979   5.729   2.007 -0.1547 -0.0759  0.2516
 1882TIP3    H1 5610   3.948   5.801   1.952  1.5214  0.2258 -0.3745
 1882TIP3    H2 5611   3.919   5.728   2.082 -2.6344 -0.6577 -1.6321
 1883TIP3   OH2 5612   5.293   0.399   0.650  0.1436  0.6535  0.0413
 1883TIP3    H1 5613   5.201   0.425   0.643  0.2326  0.8828 -0.3170
 1883TIP3    H2 5614   5.326   0.447   0.725 -0.0030  0.6571  0.1030
 1884TIP3   OH2 5615   4.205   6.249   3.346 -0.5967 -0.6361 -0.0046
 1884TIP3    H1 5616   4.152   6.267   3.423 -0.4357 -1.1177  0.2239
 1884TIP3    H2 5617   4.190   6.156   3.327 -0.8628 -0.4573 -0.7310
 1885TIP3   OH2 5618   1.331   2.005   2.607 -0.2862 -0.0268  0.1002
 1885TIP3    H1 5619   1.362   2.095   2.621 -0.8015  0.0818  0.5425
 1885TIP3    H2 5620   1.379   1.976   2.529 -1.1781  1.1407 -0.9374
 1886TIP3   OH2 5621   3.313   6.262   1.806 -0.3892 -0.1016  0.3411
 1886TIP3    H1 5622   3.381   6.197   1.794 -0.1610  0.1241  0.4035
 1886TIP3    H2 5623   3.341   6.337   1.754  0.2287  0.5931  1.6169
 1887TIP3   OH2 5624   3.657   6.340   4.597 -0.0241 -0.1078 -0.4712
 1887TIP3    H1 5625   3.702   6.265   4.561  0.8527  0.4426 -0.5431
 1887TIP3    H2 5626   3.725   6.407   4.608 -0.5881  0.3329  0.5342
 1888TIP3   OH2 5627   1.235   3.622   0.936  0.0968 -0.0870 -0.1629
 1888TIP3    H1 5628   1.180   3.628   1.015  0.6344 -2.6331  0.4724
 1888TIP3    H2 5629   1.243   3.529   0.919  0.0899  0.3605 -3.2365
 1889TIP3   OH2 5630   3.827   4.686   0.966 -0.2762  0.0378 -0.1882
 1889TIP3    H1 5631   3.750   4.661   1.017 -1.0682  1.4555 -0.6394
 1889TIP3    H2 5632   3.833   4.620   0.897 -0.7072 -0.4461  0.2303
 1890TIP3   OH2 5633   3.312   0.812   5.729  1.0313 -0.0392 -0.3138
 1890TIP3    H1 5634   3.263   0.766   5.797  1.3278 -1.7712 -1.2096
 1890TIP3    H2 5635   3.371   0.870   5.777 -1.3456  1.6240  0.8071
 1891TIP3   OH2 5636   7.052   5.498   0.614 -0.3080 -0.2080  0.9456
 1891TIP3    H1 5637   7.145   5.478   0.600 -0.2833  0.2192  0.4448
 1891TIP3    H2 5638   7.006   5.442   0.552 -0.3269  0.1948  0.5882
 1892TIP3   OH2 5639   1.999   1.330   5.407 -0.5964 -0.4888 -0.3311
 1892TIP3    H1 5640   1.987   1.376   5.324  0.8867  0.3979 -0.1063
 1892TIP3    H2 5641   1.910   1.314   5.439 -1.2924  3.4647  0.2094
 1893TIP3   OH2 5642   0.500   5.167   4.325 -0.1283  0.2159  0.0296
 1893TIP3    H1 5643   0.416   5.214   4.320 -0.9018 -1.1908 -2.5223
 1893TIP3    H2 5644   0.484   5.097   4.387 -0.0752  1.2624  1.2582
 1894TIP3   OH2 5645   3.288   2.831   1.608  0.2245  0.8121 -0.5526
 1894TIP3    H1 5646   3.371   2.785   1.623 -0.6954 -0.8470 -0.2897
 1894TIP3    H2 5647   3.299   2.872   1.523  1.3755  0.7885 -0.4444
 1895TIP3   OH2 5648   0.739   4.759   3.453  0.1910 -0.4697  0.1374
 1895TIP3    H1 5649   0.794   4.702   3.506  0.5135  0.0924  0.4127
 1895TIP3    H2 5650   0.667   4.703   3.424  1.1035 -1.3054 -0.5496
 1896TIP3   OH2 5651   1.289   4.133   5.115  0.1045 -0.2391  0.1579
 1896TIP3    H1 5652   1.381   4.137   5.088  0.8848  2.0743  2.6654
 1896TIP3    H2 5653   1.290   4.074   5.191 -0.4252 -0.0063  0.3485
 1897TIP3   OH2 5654   3.556   5.292   2.404 -0.3690 -0.4851 -0.1121
 1897TIP3    H1 5655   3.465   5.282   2.434  0.1541 -0.6584  1.5056
 1897TIP3    H2 5656   3.597   5.208   2.423 -0.1190 -0.7991 -1.8697
 1898TIP3   OH2 5657   3.791   4.901   1.660  0.1661  0.2091  0.4281
 1898TIP3    H1 5658   3.724   4.966   1.640  1.2335  1.5337  1.0404
 1898TIP3    H2 5659   3.821   4.923   1.748  0.5358 -1.1401  0.6712
 1899TIP3   OH2 5660   6.542   1.914   3.463 -0.1439  0.3496  0.4530
 1899TIP3    H1 5661   6.534   1.889   3.555  1.4243  0.2121  0.5670
 1899TIP3    H2 5662   6.629   1.953   3.455  0.4509 -1.1645 -1.3089
 1900TIP3   OH2 5663   1.847   5.845   1.353  0.4343 -0.5242  0.5696
 1900TIP3    H1 5664   1.800   5.779   1.302 -0.2610 -0.1388  0.6869
 1900TIP3    H2 5665   1.934   5.808   1.368  0.7935 -0.4890 -1.2264
 1901TIP3   OH2 5666   6.009   4.132   4.077  0.2218  0.4686 -0.3391
 1901TIP3    H1 5667   6.069   4.072   4.031 -0.0539 -0.0860  0.0111
 1901TIP3    H2 5668   5.922   4.093   4.063  0.3313 -1.1753  2.7527
 1902TIP3   OH2 5669   6.455   3.108   1.758 -0.2986  0.8875  0.3519
 1902TIP3    H1 5670   6.544   3.102   1.791 -0.5564 -1.8491  0.7680
 1902TIP3    H2 5671   6.465   3.109   1.662  0.1918  2.0959  0.3988
 1903TIP3   OH2 5672   4.001   5.014   0.800  0.2474  0.6704  0.0393
 1903TIP3    H1 5673   3.978   5.092   0.749 -1.8898  0.2969  0.3309
 1903TIP3    H2 5674   3.935   5.011   0.870 -0.1977 -1.7578 -0.3837
 1904TIP3   OH2 5675   4.109   1.460   2.446 -0.2306  0.6419 -0.7550
 1904TIP3    H1 5676   4.015   1.473   2.430 -0.3618  0.4465 -0.1432
 1904TIP3    H2 5677   4.122   1.487   2.537  0.1637 -0.0607 -0.5996
 1905TIP3   OH2 5678   1.935   6.156   3.767 -0.1803 -0.3277  0.2944
 1905TIP3    H1 5679   1.927   6.196   3.853  0.3992 -0.2296  0.3055
 1905TIP3    H2 5680   1.952   6.063   3.785  1.4266 -0.0583  0.3276
 1906TIP3   OH2 5681   6.537   1.250   0.625 -0.1717  0.2055  0.1815
 1906TIP3    H1 5682   6.585   1.330   0.644  0.1144  0.0159  0.2663
 1906TIP3    H2 5683   6.520   1.211   0.710 -0.4422  0.2498  0.1495
 1907TIP3   OH2 5684   1.941   6.152   5.337 -0.5944  0.0099 -0.5837
 1907TIP3    H1 5685   2.036   6.156   5.334 -0.6210  3.3529 -0.7022
 1907TIP3    H2 5686   1.921   6.108   5.420  0.9020 -2.9165 -1.6138
 1908TIP3   OH2 5687   5.888   2.497   1.711 -0.2414 -0.2093  0.3590
 1908TIP3    H1 5688   5.813   2.472   1.765  0.4174 -0.7721  1.0450
 1908TIP3    H2 5689   5.957   2.517   1.774  0.9845 -2.2371 -0.2421
 1909TIP3   OH2 5690   5.399   3.314  -0.005  0.9584 -0.3010 -0.2621
 1909TIP3    H1 5691   5.421   3.341   0.085  2.0066  0.1096 -0.6273
 1909TIP3    H2 5692   5.450   3.373  -0.060 -1.1784  0.7656 -1.1879
 1910TIP3   OH2 5693   6.801   2.904   2.097  0.1073 -0.5236 -0.5599
 1910TIP3    H1 5694   6.811   2.838   2.166 -0.0173  0.7163  0.6819
 1910TIP3    H2 5695   6.784   2.985   2.143  1.2815  0.6093 -1.9969
 1911TIP3   OH2 5696   5.034   5.789   4.849  0.8030  0.6054 -0.2388
 1911TIP3    H1 5697   4.994   5.822   4.930 -2.1809 -0.3040 -1.1885
 1911TIP3    H2 5698   5.051   5.867   4.797  0.9414  1.0856  0.5038
 1912TIP3   OH2 5699   0.855   3.307   2.004  0.0408  0.1200  0.4309
 1912TIP3    H1 5700   0.895   3.391   2.025  1.1166 -0.6674  1.7734
 1912TIP3    H2 5701   0.770   3.329   1.967  0.7020  1.8065 -0.2016
 1913TIP3   OH2 5702   2.762   5.832   1.600  0.4645 -0.4623  0.0725
 1913TIP3    H1 5703   2.727   5.765   1.659 -1.9010  1.4750  1.0760
 1913TIP3    H2 5704   2.753   5.793   1.513 -2.0643 -1.0766  0.5042
 1914TIP3   OH2 5705   2.058   1.455   5.159  0.3572 -0.2313  0.3592
 1914TIP3    H1 5706   2.115   1.497   5.094  0.6429 -1.0270  0.0809
 1914TIP3    H2 5707   2.000   1.400   5.106  0.0569 -0.2627  0.7253
 1915TIP3   OH2 5708   3.244   4.547   0.958 -0.2920  0.3505  0.6098
 1915TIP3    H1 5709   3.331   4.567   0.922 -0.0017 -0.0702  1.0510
 1915TIP3    H2 5710   3.215   4.630   0.997 -0.7876  0.9194 -0.8994
 1916TIP3   OH2 5711   0.959   2.298   2.612  0.5165 -0.3293  0.0276
 1916TIP3    H1 5712   0.991   2.222   2.661  1.3546 -0.5841 -0.8799
 1916TIP3    H2 5713   0.918   2.260   2.534  1.1785  0.1492 -0.5623
 1917TIP3   OH2 5714   5.799   4.386   3.539  0.8743 -0.7308  0.2004
 1917TIP3    H1 5715   5.859   4.381   3.464  1.8499 -1.2690  1.0022
 1917TIP3    H2 5716   5.752   4.469   3.526  1.7978 -0.2865 -0.4334
 1918TIP3   OH2 5717   0.097   3.057   2.024 -0.1737  0.1945  0.2363
 1918TIP3    H1 5718   0.013   3.050   1.977 -0.4098 -2.3257  0.8657
 1918TIP3    H2 5719   0.077   3.110   2.101 -0.7893  0.9123 -0.4006
 1919TIP3   OH2 5720   7.026   2.521   0.539  0.4056  0.1209 -0.1448
 1919TIP3    H1 5721   7.056   2.433   0.563  3.2680  1.1930  0.6171
 1919TIP3    H2 5722   6.963   2.544   0.607  0.0726 -1.0849 -0.0134
 1920TIP3   OH2 5723   0.074   3.330   3.394  0.2288  0.6236  0.1849
 1920TIP3    H1 5724  -0.006   3.278   3.390  0.9049 -0.4081 -0.3761
 1920TIP3    H2 5725   0.044   3.420   3.403 -0.9801  0.1171  1.6870
 1921TIP3   OH2 5726   1.558   1.333   3.463 -0.1925  0.1683  0.2321
 1921TIP3    H1 5727   1.567   1.262   3.527  0.6316  0.8417  0.8886
 1921TIP3    H2 5728   1.578   1.292   3.379  3.1034  0.1321  0.8950
 1922TIP3   OH2 5729   6.516   0.958   3.100  0.3551  0.0114  0.3130
 1922TIP3    H1 5730   6.594   0.909   3.128  2.2958  1.6148 -1.8725
 1922TIP3    H2 5731   6.550   1.022   3.037 -2.6789  1.2542 -0.2027
 1923TIP3   OH2 5732   6.969   1.127   2.493  0.1922  0.5616 -0.0379
 1923TIP3    H1 5733   7.011   1.184   2.557  0.0294  0.5812  0.0506
 1923TIP3    H2 5734   6.987   1.170   2.409  2.1971 -0.5344 -0.2344
 1924TIP3   OH2 5735   6.572   5.010   1.244 -0.2686  0.2891  0.2101
 1924TIP3    H1 5736   6.503   4.951   1.214  0.9538 -0.8184 -0.4971
 1924TIP3    H2 5737   6.530   5.096   1.247 -1.2990 -0.1144 -1.5576
 1925TIP3   OH2 5738   6.585   6.575   0.750 -0.4119  0.6841  0.0122
 1925TIP3    H1 5739   6.662   6.621   0.783 -0.2760  0.6031 -0.1894
 1925TIP3    H2 5740   6.562   6.622   0.669  0.3244 -0.2019 -0.7363
 1926TIP3   OH2 5741   0.005   0.768   1.134  0.2331  0.1481 -0.1429
 1926TIP3    H1 5742   0.080   0.713   1.113 -0.4532 -0.5220 -0.9344
 1926TIP3    H2 5743   0.034   0.857   1.117  1.1179 -0.0241  0.4117
 1927TIP3   OH2 5744   1.142   2.769   0.751 -0.0874 -0.1509  0.2399
 1927TIP3    H1 5745   1.231   2.801   0.737  2.0959 -5.0428  0.8506
 1927TIP3    H2 5746   1.131   2.768   0.846 -0.1231 -1.0260  0.2335
 1928TIP3   OH2 5747   5.432   5.561   0.504 -0.0427 -0.6904  0.2179
 1928TIP3    H1 5748   5.467   5.507   0.575 -0.7475 -1.1438  0.2323
 1928TIP3    H2 5749   5.384   5.499   0.448  1.5926 -0.5781 -1.3933
 1929TIP3   OH2 5750   2.933   2.819   3.606  0.3562 -0.4624  0.4387
 1929TIP3    H1 5751   2.880   2.739   3.608  0.1167 -0.2907  1.6209
 1929TIP3    H2 5752   3.023   2.788   3.604  0.2709 -0.7651  1.2905
 1930TIP3   OH2 5753   5.615   5.917   3.204  0.3174 -0.0094 -0.1654
 1930TIP3    H1 5754   5.656   5.889   3.122 -1.3182 -0.6165 -0.8152
 1930TIP3    H2 5755   5.641   5.850   3.268 -1.4415 -1.6763 -1.1058
 1931TIP3   OH2 5756   1.000   1.748   0.106 -0.0488  0.5140  0.6374
 1931TIP3    H1 5757   0.999   1.653   0.105  0.5729  0.4901 -1.4123
 1931TIP3    H2 5758   1.091   1.770   0.126 -0.4722  0.7324  2.5055
 1932TIP3   OH2 5759   4.879   1.198   0.683 -0.2317 -0.1850  0.2950
 1932TIP3    H1 5760   4.929   1.164   0.609  0.7589  2.4598 -0.3635
 1932TIP3    H2 5761   4.802   1.238   0.643 -0.5548 -0.2213  0.8642
 1933TIP3   OH2 5762   1.292   0.779   5.627  0.0032  0.3139 -0.1938
 1933TIP3    H1 5763   1.276   0.685   5.622 -0.5591  0.4279 -0.6564
 1933TIP3    H2 5764   1.307   0.805   5.537  1.1875  0.5019  0.0440
 1934TIP3   OH2 5765   2.542   3.950   2.614 -0.7097 -0.1653  0.5241
 1934TIP3    H1 5766   2.596   3.975   2.538 -0.5428 -1.0841  0.3293
 1934TIP3    H2 5767   2.526   4.033   2.659 -0.1424  0.2927 -0.0769
 1935TIP3   OH2 5768   3.356   2.900   3.618  0.5761 -0.7616 -0.2807
 1935TIP3    H1 5769   3.435   2.943   3.586  0.3636 -0.1755 -0.0201
 1935TIP3    H2 5770   3.346   2.931   3.708 -0.2641 -0.3872 -0.4900
 1936TIP3   OH2 5771   4.672   1.379   3.250 -0.2882  0.0043 -0.1270
 1936TIP3    H1 5772   4.604   1.312   3.259  0.7475 -1.1572 -0.6871
 1936TIP3    H2 5773   4.646   1.430   3.174  0.3302 -1.5145 -1.3978
 1937TIP3   OH2 5774   4.088   4.438   2.548  0.4990 -0.2850 -0.0129
 1937TIP3    H1 5775   4.045   4.380   2.484 -1.1729  1.0098 -0.1351
 1937TIP3    H2 5776   4.033   4.516   2.550  2.1669  0.9269  0.8502
 1938TIP3   OH2 5777   3.292   5.468   0.966  0.1428  0.3442  0.6350
 1938TIP3    H1 5778   3.225   5.526   1.004 -1.7835 -0.0083 -1.9821
 1938TIP3    H2 5779   3.243   5.397   0.927  2.2179 -0.8701  0.0993
 1939TIP3   OH2 5780   0.455   0.775   3.695  0.2013  0.2424  0.2309
 1939TIP3    H1 5781   0.439   0.771   3.789  0.8597  0.5450  0.3617
 1939TIP3    H2 5782   0.433   0.687   3.663 -0.1661  0.1835  0.6419
 1940TIP3   OH2 5783   1.057   5.315   1.065 -0.1174  0.0431  0.6300
 1940TIP3    H1 5784   1.038   5.369   0.988  2.6534  0.4222  0.1382
 1940TIP3    H2 5785   1.044   5.374   1.139 -0.5239  0.3360  0.3349
 1941TIP3   OH2 5786   1.441   3.916   2.189 -0.2414 -0.3214 -0.0779
 1941TIP3    H1 5787   1.426   3.837   2.137 -2.8581 -0.1437  0.2584
 1941TIP3    H2 5788   1.405   3.987   2.135  0.7974  0.4569  0.2265
 1942TIP3   OH2 5789   0.175   5.686   3.034 -0.1900  0.4750  0.0105
 1942TIP3    H1 5790   0.161   5.639   2.951 -0.4670 -0.3824  0.5311
 1942TIP3    H2 5791   0.237   5.632   3.082 -2.9676 -1.2006  2.0089
 1943TIP3   OH2 5792   0.999   4.357   0.804 -0.1478  0.3268  0.0286
 1943TIP3    H1 5793   1.083   4.311   0.816  0.0389  0.8149  0.6203
 1943TIP3    H2 5794   0.948   4.299   0.747  0.6438  0.0893 -0.4606
 1944TIP3   OH2 5795   5.445   0.940   1.472  0.6078  0.3940 -0.0393
 1944TIP3    H1 5796   5.469   1.026   1.506  0.5246  0.4504 -0.1210
 1944TIP3    H2 5797   5.377   0.958   1.407  2.1589  0.5118 -1.7384
 1945TIP3   OH2 5798   5.013   0.498   0.148  0.4584 -0.0179  0.7782
 1945TIP3    H1 5799   5.021   0.490   0.053  0.2635  1.0557  0.6545
 1945TIP3    H2 5800   4.959   0.423   0.174  2.2495 -1.5345  0.3360
 1946TIP3   OH2 5801   5.493   1.675   3.348  0.0996 -0.2315  0.2141
 1946TIP3    H1 5802   5.433   1.738   3.308  1.1604  2.7158  2.8818
 1946TIP3    H2 5803   5.557   1.656   3.280 -1.9745 -1.0383 -1.6657
 1947TIP3   OH2 5804   5.057   6.533   0.594  0.4232  0.2467 -0.1709
 1947TIP3    H1 5805   5.147   6.529   0.626  0.6266 -3.2815 -0.7844
 1947TIP3    H2 5806   5.065   6.529   0.499 -0.3912  0.8469 -0.2729
 1948TIP3   OH2 5807   0.173   4.512   1.336 -0.3192  0.5887 -0.4421
 1948TIP3    H1 5808   0.195   4.599   1.368 -1.1535  1.4432 -2.0306
 1948TIP3    H2 5809   0.153   4.461   1.415 -0.6995  2.0903  0.4697
 1949TIP3   OH2 5810   6.275   2.189   2.174  0.7729 -0.3288  0.4913
 1949TIP3    H1 5811   6.348   2.141   2.214 -0.5118 -1.8041  1.1826
 1949TIP3    H2 5812   6.197   2.144   2.205 -0.4337  0.9020 -0.6168
 1950TIP3   OH2 5813   4.982   3.879   4.533  0.5065  0.3693 -0.7790
 1950TIP3    H1 5814   5.014   3.876   4.623 -0.9367  2.8705 -0.0663
 1950TIP3    H2 5815   5.055   3.914   4.482  0.5532  1.3197 -0.0852
 1951TIP3   OH2 5816   0.431   6.757   3.757 -0.3685  0.4547 -0.3576
 1951TIP3    H1 5817   0.346   6.780   3.793 -1.3674  2.4834 -3.5460
 1951TIP3    H2 5818   0.447   6.667   3.786 -3.3909  0.1443  0.6395
 1952TIP3   OH2 5819   2.722   2.700  -0.026  0.1900  0.2176 -0.3192
 1952TIP3    H1 5820   2.668   2.647   0.033  1.4763 -0.7784  0.0316
 1952TIP3    H2 5821   2.796   2.728   0.029  0.6315  0.5517 -1.0751
 1953TIP3   OH2 5822   5.218   2.966   4.747 -0.2292  0.8625  0.2670
 1953TIP3    H1 5823   5.196   3.038   4.806  0.9971  1.6520 -0.2069
 1953TIP3    H2 5824   5.277   3.005   4.682  2.2028 -0.9896  1.2051
 1954TIP3   OH2 5825   4.359   2.241   1.888 -0.1475 -0.1638  0.2652
 1954TIP3    H1 5826   4.273   2.203   1.905 -0.3455 -0.1670 -0.6619
 1954TIP3    H2 5827   4.349   2.285   1.803  1.0858 -1.1837 -0.4406
 1955TIP3   OH2 5828   5.078   1.893   4.535  0.1662  0.2996  0.1580
 1955TIP3    H1 5829   5.114   1.971   4.493  0.4537 -0.0803 -0.3129
 1955TIP3    H2 5830   4.984   1.898   4.517  0.5385 -1.1820 -2.8834
 1956TIP3   OH2 5831   6.206   4.272   1.325  0.4922  0.2244 -0.6698
 1956TIP3    H1 5832   6.215   4.225   1.408  1.1658 -0.4871 -1.1301
 1956TIP3    H2 5833   6.231   4.362   1.345 -0.3809  0.3056  0.1235
 1957TIP3   OH2 5834   4.073   0.905   1.145 -0.7561 -0.2252 -0.3241
 1957TIP3    H1 5835   3.987   0.942   1.127 -1.2866 -1.2825 -0.0649
 1957TIP3    H2 5836   4.058   0.845   1.218  0.5523  0.9059  0.9328
 1958TIP3   OH2 5837   1.592   1.906   5.813  0.0552 -0.5662 -0.5040
 1958TIP3    H1 5838   1.621   1.856   5.736  0.2520 -0.5517 -0.4385
 1958TIP3    H2 5839   1.526   1.851   5.854  0.5690 -0.9617 -0.1979
 1959TIP3   OH2 5840   4.171   6.439   1.726  0.0578 -0.0658 -0.6205
 1959TIP3    H1 5841   4.263   6.418   1.711 -0.5131 -3.3133 -0.2953
 1959TIP3    H2 5842   4.125   6.398   1.653 -1.2296  0.5320 -0.1739
 1960TIP3   OH2 5843   3.852   2.282   5.277 -0.2698  0.0819  0.4512
 1960TIP3    H1 5844   3.926   2.222   5.276 -1.0714 -0.9243 -0.3030
 1960TIP3    H2 5845   3.888   2.364   5.311  1.6317  0.1899 -1.5759
 1961TIP3   OH2 5846   3.250   2.808   5.232 -0.6842 -0.5137 -0.0123
 1961TIP3    H1 5847   3.169   2.828   5.279 -1.0906 -0.8485 -0.5495
 1961TIP3    H2 5848   3.229   2.728   5.182  0.4070 -1.4079  0.9083
 1962TIP3   OH2 5849   4.969   0.677   3.056  0.7915 -0.7731 -0.0749
 1962TIP3    H1 5850   5.057   0.646   3.078  0.3189 -1.6481  0.6804
 1962TIP3    H2 5851   4.965   0.765   3.093  1.0277 -1.0909  0.7262
 1963TIP3   OH2 5852   5.136   0.114   3.465  0.5475 -0.1222 -0.2560
 1963TIP3    H1 5853   5.082   0.115   3.386  1.8463  0.3426 -1.1684
 1963TIP3    H2 5854   5.138   0.205   3.494  1.2127 -0.0512 -0.5043
 1964TIP3   OH2 5855   2.519   6.535   3.074 -0.0229 -0.8754  0.0863
 1964TIP3    H1 5856   2.565   6.477   3.134  0.6263 -1.0615 -0.5653
 1964TIP3    H2 5857   2.576   6.539   2.997 -0.3285  0.1801 -0.1042
 1965TIP3   OH2 5858   0.888   1.596   1.378  0.0971 -0.0984 -0.1730
 1965TIP3    H1 5859   0.923   1.539   1.309 -0.2956 -0.6958  0.1104
 1965TIP3    H2 5860   0.956   1.661   1.392  0.0602  0.2176 -1.3415
 1966TIP3   OH2 5861   4.358   0.518   3.781 -0.4940  0.2262  0.2853
 1966TIP3    H1 5862   4.309   0.436   3.790  2.1032 -1.4827  0.2649
 1966TIP3    H2 5863   4.412   0.505   3.703  0.7177  1.5383  0.8549
 1967TIP3   OH2 5864   1.179   5.327   2.613  0.0512  0.6150 -0.7570
 1967TIP3    H1 5865   1.167   5.295   2.702 -0.9740  0.8702 -0.7921
 1967TIP3    H2 5866   1.092   5.320   2.573  0.3911  0.9719 -1.5790
 1968TIP3   OH2 5867   3.714   6.543   5.727  0.1635  0.1858  0.2233
 1968TIP3    H1 5868   3.648   6.578   5.787 -0.2576 -0.4337  0.1292
 1968TIP3    H2 5869   3.694   6.450   5.721  1.0634 -0.0131  0.2079
 1969TIP3   OH2 5870   5.735   0.275   3.860  0.0644  0.3745 -0.2395
 1969TIP3    H1 5871   5.754   0.336   3.790  0.4275  1.0742  0.4546
 1969TIP3    H2 5872   5.820   0.252   3.896 -0.0150 -1.0213 -0.8755
 1970TIP3   OH2 5873   7.187   3.571   2.091  0.2100 -0.0920 -0.2562
 1970TIP3    H1 5874   7.262   3.565   2.031  1.4079 -1.3897  1.2425
 1970TIP3    H2 5875   7.123   3.509   2.056  0.5335 -0.2030 -0.6586
 1971TIP3   OH2 5876   5.163   0.114   2.435  0.1816 -0.4176  0.6435
 1971TIP3    H1 5877   5.155   0.141   2.526  0.5397 -0.5921  0.7271
 1971TIP3    H2 5878   5.110   0.178   2.386  0.4040 -0.0181  0.9198
 1972TIP3   OH2 5879   6.213   3.633   0.687  0.0908  0.0136  0.0965
 1972TIP3    H1 5880   6.151   3.681   0.742 -0.8428  0.8778 -1.6408
 1972TIP3    H2 5881   6.287   3.615   0.745 -0.6971  1.1853  1.5364
 1973TIP3   OH2 5882   6.268   6.161   0.665  0.9631 -0.1297  0.0822
 1973TIP3    H1 5883   6.359   6.131   0.665  0.9869 -0.1201 -1.0332
 1973TIP3    H2 5884   6.272   6.252   0.692  1.5643  0.5082 -1.9479
 1974TIP3   OH2 5885   2.741   6.217   5.214  0.1492 -0.2531  0.6573
 1974TIP3    H1 5886   2.788   6.276   5.273 -0.4754  0.8320  0.1150
 1974TIP3    H2 5887   2.744   6.261   5.129  0.8704 -1.6966 -0.0981
 1975TIP3   OH2 5888   2.869   1.987   1.507  0.0188 -0.6259  0.5640
 1975TIP3    H1 5889   2.822   2.063   1.473 -0.3902 -0.2043  2.0178
 1975TIP3    H2 5890   2.917   1.953   1.431  1.2214  1.8031  0.1295
 1976TIP3   OH2 5891   6.618   0.438   0.361 -0.1712  0.0411 -0.5799
 1976TIP3    H1 5892   6.686   0.463   0.423  0.8372 -2.3618 -0.5931
 1976TIP3    H2 5893   6.538   0.435   0.414  0.0531  1.1088 -0.1515
 1977TIP3   OH2 5894   4.789   1.137   2.457  0.2609 -0.4763 -0.3002
 1977TIP3    H1 5895   4.851   1.068   2.479  3.6486  2.3218 -0.1741
 1977TIP3    H2 5896   4.823   1.176   2.377 -1.0980  1.4642 -0.0188
 1978TIP3   OH2 5897   5.684   6.460   3.490  0.0081 -0.1376  0.1685
 1978TIP3    H1 5898   5.591   6.439   3.482 -0.2998  0.5511  1.6220
 1978TIP3    H2 5899   5.706   6.502   3.408 -1.6501  2.0915  0.7665
 1979TIP3   OH2 5900   5.923   6.730   3.008  0.5426 -0.3593  0.0377
 1979TIP3    H1 5901   5.901   6.767   3.093 -2.2612  2.4982 -1.7018
 1979TIP3    H2 5902   5.864   6.656   2.998  0.4331 -0.3136  0.3369
 1980TIP3   OH2 5903   0.871   2.870   5.286 -0.0743 -0.1949 -0.1980
 1980TIP3    H1 5904   0.816   2.801   5.322 -0.7817 -0.2581 -1.3414
 1980TIP3    H2 5905   0.872   2.938   5.353 -0.0799 -0.9434  0.5804
 1981TIP3   OH2 5906   4.197   1.811   4.499 -0.2664 -0.3764 -0.3790
 1981TIP3    H1 5907   4.233   1.736   4.451  3.8357  2.6250 -2.5707
 1981TIP3    H2 5908   4.160   1.867   4.431 -0.0671  1.1545  0.7324
 1982TIP3   OH2 5909   1.021   2.754   4.310 -0.2809 -0.1448 -0.0736
 1982TIP3    H1 5910   0.983   2.832   4.269 -0.7642 -0.3707 -0.0537
 1982TIP3    H2 5911   0.995   2.759   4.402  0.6775  0.2825  0.1857
 1983TIP3   OH2 5912   0.411   1.491   0.181  0.1335 -0.1786 -0.3376
 1983TIP3    H1 5913   0.334   1.534   0.144  0.2855  1.5655  1.2518
 1983TIP3    H2 5914   0.404   1.400   0.151 -1.5243  0.3602 -1.7585
 1984TIP3   OH2 5915   0.519   0.518   0.573 -0.1314  0.3725 -0.4639
 1984TIP3    H1 5916   0.573   0.590   0.606  0.4632  0.7906 -2.2220
 1984TIP3    H2 5917   0.429   0.547   0.587  0.0694  2.1946 -2.4754
 1985TIP3   OH2 5918   3.727   0.887   0.264 -0.0854 -0.3206 -0.2648
 1985TIP3    H1 5919   3.665   0.815   0.254 -2.3730  1.7414 -2.5091
 1985TIP3    H2 5920   3.707   0.924   0.350 -1.2625 -0.3772 -0.4898
 1986TIP3   OH2 5921   2.886   2.937   3.852 -0.0983 -0.3994 -0.0902
 1986TIP3    H1 5922   2.907   2.891   3.770 -1.6715  0.4081 -1.0079
 1986TIP3    H2 5923   2.805   2.984   3.832 -0.3663  0.0459  1.8697
 1987TIP3   OH2 5924   3.332   2.739   4.437  0.4266  0.5216  0.4505
 1987TIP3    H1 5925   3.426   2.745   4.454  0.6755  3.3818 -1.1942
 1987TIP3    H2 5926   3.324   2.752   4.342 -1.5583 -1.5483  0.2704
 1988TIP3   OH2 5927   2.900   4.014   4.525  0.0755  0.4831 -0.2994
 1988TIP3    H1 5928   2.899   3.919   4.535 -0.3685  0.4814 -0.3322
 1988TIP3    H2 5929   2.978   4.032   4.473 -0.9686 -0.0458 -2.1461
 1989TIP3   OH2 5930   5.662   3.130   4.273 -0.4749 -0.0746 -0.1625
 1989TIP3    H1 5931   5.743   3.160   4.234 -0.9569  1.4300 -0.0496
 1989TIP3    H2 5932   5.686   3.100   4.361 -0.3114  2.1619  0.5989
 1990TIP3   OH2 5933   2.316   3.903   4.863 -0.3231  0.0005 -0.1726
 1990TIP3    H1 5934   2.272   3.902   4.948  0.2074 -0.0540  0.1118
 1990TIP3    H2 5935   2.329   3.995   4.843  1.5589  0.0195  0.8990
 1991TIP3   OH2 5936   3.649   2.434   0.697 -0.4282  0.2882 -0.3887
 1991TIP3    H1 5937   3.609   2.351   0.670  1.1169 -0.9415  0.8842
 1991TIP3    H2 5938   3.617   2.447   0.786  1.4248 -0.4103  0.4301
 1992TIP3   OH2 5939   6.557   5.258   4.188  0.0463  0.0313  0.5911
 1992TIP3    H1 5940   6.552   5.178   4.135  1.4821 -0.4010  1.0621
 1992TIP3    H2 5941   6.591   5.324   4.127  0.0153 -0.0215  0.5148
 1993TIP3   OH2 5942   0.120   3.267   0.658 -0.8312 -0.5523  0.1950
 1993TIP3    H1 5943   0.149   3.345   0.706  0.5478 -1.5553  1.0550
 1993TIP3    H2 5944   0.161   3.276   0.572 -2.4328  0.7071 -0.5022
 1994TIP3   OH2 5945   4.651   0.326   5.746 -0.5283 -0.5114 -0.1928
 1994TIP3    H1 5946   4.586   0.394   5.729 -0.5376 -0.8692 -1.7522
 1994TIP3    H2 5947   4.633   0.298   5.835 -0.8444  1.1716  0.3229
 1995TIP3   OH2 5948   3.719   4.314   1.670  0.0208 -0.7618  0.5818
 1995TIP3    H1 5949   3.648   4.297   1.732  0.3427 -2.0237  0.6416
 1995TIP3    H2 5950   3.698   4.259   1.594 -0.7576  1.3170 -0.7740
 1996TIP3   OH2 5951   2.200   6.194   4.159 -0.4084 -0.0095  0.5519
 1996TIP3    H1 5952   2.171   6.243   4.236  0.2549  1.9118 -0.3593
 1996TIP3    H2 5953   2.296   6.192   4.166 -0.3982 -0.7276  0.2991
 1997TIP3   OH2 5954   2.852   3.518   3.042  0.7986 -0.8669  0.7774
 1997TIP3    H1 5955   2.820   3.582   3.106  2.4764 -0.2829  1.0774
 1997TIP3    H2 5956   2.880   3.443   3.096  1.1449 -0.8421  0.6342
 1998TIP3   OH2 5957   0.530   1.876   1.363 -0.6148 -0.2953 -0.1068
 1998TIP3    H1 5958   0.568   1.848   1.447 -0.5504 -0.6615 -0.2544
 1998TIP3    H2 5959   0.451   1.822   1.354  1.5313 -3.4232 -2.2632
 1999TIP3   OH2 5960   4.941   2.880   3.726 -0.0506  0.9596  0.4146
 1999TIP3    H1 5961   5.035   2.864   3.725 -0.2588 -0.3413 -0.3589
 1999TIP3    H2 5962   4.931   2.967   3.688  0.7801  0.6479 -0.5671
 2000TIP3   OH2 5963   7.005   1.459   3.511  0.3555 -0.0346 -0.0485
 2000TIP3    H1 5964   6.914   1.478   3.534  0.2317 -0.2011 -0.3912
 2000TIP3    H2 5965   7.002   1.437   3.417  0.8361  0.5228 -0.1971
 2001TIP3   OH2 5966   0.126   5.036   2.784  0.3694 -0.6318  0.1823
 2001TIP3    H1 5967   0.173   5.094   2.723  2.4748 -1.5507  0.8145
 2001TIP3    H2 5968   0.067   4.985   2.729 -0.8438  1.3924 -0.5116
 2002TIP3   OH2 5969   4.815   2.575   0.821 -0.7946  0.4028  0.0608
 2002TIP3    H1 5970   4.839   2.544   0.734 -0.4843 -0.5419  0.4643
 2002TIP3    H2 5971   4.887   2.634   0.846 -0.3431 -0.1570  0.1004
 2003TIP3   OH2 5972   5.343   4.117   1.155  0.2145  0.2011 -0.3738
 2003TIP3    H1 5973   5.408   4.187   1.142 -0.1182  0.5935  0.0826
 2003TIP3    H2 5974   5.350   4.065   1.075  0.3575  0.8404 -0.7930
 2004TIP3   OH2 5975   3.676   3.693   1.328  0.3280 -0.4749 -0.0801
 2004TIP3    H1 5976   3.631   3.776   1.347  2.6145  0.6793  0.6209
 2004TIP3    H2 5977   3.606   3.627   1.332 -1.4803  1.3153 -0.1343
 2005TIP3   OH2 5978   1.120   4.955   0.865  0.3750  0.1929  0.9083
 2005TIP3    H1 5979   1.045   5.006   0.897 -0.7719  1.2857 -2.9847
 2005TIP3    H2 5980   1.081   4.881   0.818  1.8257 -0.3182  0.4364
 2006TIP3   OH2 5981   5.456   4.381   4.277 -0.1841  0.2189  0.2225
 2006TIP3    H1 5982   5.454   4.395   4.372 -0.2855 -2.0226  0.6117
 2006TIP3    H2 5983   5.365   4.361   4.255 -0.1121  0.4748 -0.3201
 2007TIP3   OH2 5984   5.480   6.227   5.663 -0.7915 -0.5824  0.3504
 2007TIP3    H1 5985   5.443   6.275   5.590  0.3214  0.0902  0.2121
 2007TIP3    H2 5986   5.559   6.276   5.687  0.5099 -2.4163  0.0699
 2008TIP3   OH2 5987   0.762   0.583   1.736  0.4434  0.3686  0.2787
 2008TIP3    H1 5988   0.837   0.634   1.705 -1.2970  3.0152  0.1491
 2008TIP3    H2 5989   0.685   0.630   1.705 -1.3514 -0.8884  2.4431
 2009TIP3   OH2 5990   3.388   2.191   3.650  0.1059 -0.4033 -0.1617
 2009TIP3    H1 5991   3.385   2.098   3.672 -0.7779 -0.2754  0.3203
 2009TIP3    H2 5992   3.377   2.236   3.734 -2.8329  0.0905 -0.7114
 2010TIP3   OH2 5993   3.268   0.420   1.712 -0.3705  0.1241 -0.1607
 2010TIP3    H1 5994   3.281   0.342   1.766  1.4540 -0.8364 -1.8872
 2010TIP3    H2 5995   3.276   0.493   1.774 -0.8986 -0.9768  1.2760
 2011TIP3   OH2 5996   6.767   1.052   3.723  0.5642 -0.0848  0.3870
 2011TIP3    H1 5997   6.778   1.034   3.630  0.1462  1.1511  0.0802
 2011TIP3    H2 5998   6.851   1.030   3.762  0.2423 -2.2429  0.0188
 2012TIP3   OH2 5999   5.576   0.633   0.163  0.1065  1.5361 -0.1170
 2012TIP3    H1 6000   5.663   0.656   0.196  1.4588 -2.0722 -0.6855
 2012TIP3    H2 6001   5.550   0.557   0.215 -2.0771  1.6544 -0.9295
 2013TIP3   OH2 6002   4.790   4.818   1.121  0.7228 -0.6944  0.1176
 2013TIP3    H1 6003   4.810   4.814   1.028  1.1734 -0.8496  0.2192
 2013TIP3    H2 6004   4.793   4.726   1.149  0.3046 -0.6768  0.2272
 2014TIP3   OH2 6005   0.847   4.002   4.450 -0.2935 -0.2967 -0.8458
 2014TIP3    H1 6006   0.791   4.043   4.384 -0.7036  0.7154  0.1016
 2014TIP3    H2 6007   0.794   4.000   4.529  1.1284  1.0995  0.1955
 2015TIP3   OH2 6008   1.900   2.158   0.484  0.0992 -0.0018  0.4923
 2015TIP3    H1 6009   1.806   2.159   0.500  0.4462 -1.3722  3.0100
 2015TIP3    H2 6010   1.909   2.187   0.393 -2.8096 -0.9899 -0.2041
 2016TIP3   OH2 6011   1.253   3.346   0.866 -0.3718 -0.4640  0.2951
 2016TIP3    H1 6012   1.188   3.285   0.899  0.8231 -1.6177  0.6070
 2016TIP3    H2 6013   1.242   3.344   0.771  0.2749 -1.9615  0.2121
 2017TIP3   OH2 6014   1.999   1.213   0.751  0.3351 -0.3618  0.1182
 2017TIP3    H1 6015   2.054   1.135   0.745 -1.4446 -1.8273  1.6612
 2017TIP3    H2 6016   1.909   1.179   0.752 -0.5138  1.7353  0.5705
 2018TIP3   OH2 6017   6.782   0.726   2.421 -0.2373  0.3985  0.3316
 2018TIP3    H1 6018   6.766   0.820   2.426  1.2219  0.7698 -1.1234
 2018TIP3    H2 6019   6.836   0.715   2.343  0.8561 -1.4796  1.2785
 2019TIP3   OH2 6020   1.907   3.603   4.211  0.0286  0.1802 -0.4671
 2019TIP3    H1 6021   1.872   3.570   4.294 -0.2500  1.1024 -0.2065
 2019TIP3    H2 6022   1.893   3.697   4.215  0.5039  0.2970 -1.3386
 2020TIP3   OH2 6023   1.279   5.637   1.049  0.4591  0.4515  0.1472
 2020TIP3    H1 6024   1.192   5.636   1.009 -0.5906 -0.0725  2.2869
 2020TIP3    H2 6025   1.284   5.721   1.095  1.4049  0.8021 -0.5612
 2021TIP3   OH2 6026   4.274   1.258   3.705 -0.0244 -0.2504 -0.0025
 2021TIP3    H1 6027   4.369   1.251   3.698 -0.1145 -0.4102 -1.2315
 2021TIP3    H2 6028   4.247   1.299   3.623 -0.9206  0.8088  0.8012
 2022TIP3   OH2 6029   1.446   0.295   0.734  0.1199 -0.1918  0.3541
 2022TIP3    H1 6030   1.530   0.321   0.695  0.1085  1.1699  1.1679
 2022TIP3    H2 6031   1.385   0.362   0.703 -0.3782 -0.4179  0.8463
 2023TIP3   OH2 6032   5.501   1.897   4.025 -0.6037  0.0777  0.4130
 2023TIP3    H1 6033   5.462   1.846   4.096  0.4913  1.1684  1.8389
 2023TIP3    H2 6034   5.492   1.840   3.948 -1.6018 -1.2341  1.4387
 2024TIP3   OH2 6035   1.178   4.884   3.166 -0.0707 -0.1520 -0.3352
 2024TIP3    H1 6036   1.221   4.802   3.188 -0.2948 -1.1559 -3.2634
 2024TIP3    H2 6037   1.093   4.880   3.211  0.8818 -0.3262  1.5421
 2025TIP3   OH2 6038   6.421   6.383   4.858 -0.2882  0.4719  0.0216
 2025TIP3    H1 6039   6.451   6.305   4.905  2.1280  1.1669 -0.2439
 2025TIP3    H2 6040   6.476   6.387   4.780 -2.6878  0.5990 -1.7806
 2026TIP3   OH2 6041   0.507   4.662   0.025  0.3400  0.1905  0.3524
 2026TIP3    H1 6042   0.472   4.611  -0.048  0.2501 -1.5067  1.5310
 2026TIP3    H2 6043   0.597   4.631   0.035  0.5806  0.9202  0.5450
 2027TIP3   OH2 6044   1.629   0.497   0.983 -0.0320  0.2348 -0.1855
 2027TIP3    H1 6045   1.720   0.502   1.011 -0.4128 -0.5068  1.3147
 2027TIP3    H2 6046   1.596   0.417   1.024 -1.5910  0.9570  0.0315
 2028TIP3   OH2 6047   1.021   3.872   1.641 -0.3556  0.3041  0.0895
 2028TIP3    H1 6048   1.046   3.931   1.570 -0.5188  1.5063  0.9961
 2028TIP3    H2 6049   1.101   3.863   1.694 -0.1396 -0.8566 -0.4209
 2029TIP3   OH2 6050   3.763   4.610   3.475 -0.0078 -0.0719 -0.0444
 2029TIP3    H1 6051   3.679   4.581   3.439  1.7012 -1.8953 -2.8733
 2029TIP3    H2 6052   3.770   4.565   3.559 -1.9505  0.4056  0.4277
 2030TIP3   OH2 6053   1.129   3.767   2.002  0.1504 -0.0395 -0.0182
 2030TIP3    H1 6054   1.048   3.758   2.052  0.1688  1.3335  0.2986
 2030TIP3    H2 6055   1.130   3.859   1.975 -0.1824 -0.8105 -3.0976
 2031TIP3   OH2 6056   5.772   0.808   2.838 -0.4058  0.2939 -0.0183
 2031TIP3    H1 6057   5.867   0.815   2.839 -0.3208 -0.6518  0.0220
 2031TIP3    H2 6058   5.752   0.755   2.916 -1.0707  1.5232  0.6820
 2032TIP3   OH2 6059   4.331   0.735   3.551  0.7181  0.0253 -0.1370
 2032TIP3    H1 6060   4.245   0.765   3.578 -0.4066 -0.4709 -2.8646
 2032TIP3    H2 6061   4.377   0.715   3.633 -1.3018  1.4362  1.4117
 2033TIP3   OH2 6062   2.415   4.404   5.443  1.2401 -0.7575  0.1298
 2033TIP3    H1 6063   2.336   4.360   5.474  0.6409  0.2318  0.0664
 2033TIP3    H2 6064   2.400   4.417   5.349  2.5381 -2.6966 -0.3999
 2034TIP3   OH2 6065   0.223   3.305   0.416 -0.1872  0.0246  0.1702
 2034TIP3    H1 6066   0.253   3.393   0.440 -2.2675  0.6981  0.5082
 2034TIP3    H2 6067   0.275   3.282   0.339  0.2366  1.6641 -0.0739
 2035TIP3   OH2 6068   1.243   5.363   1.948 -0.3314  0.4294 -0.3090
 2035TIP3    H1 6069   1.245   5.398   2.037  1.3622 -0.2770 -0.0443
 2035TIP3    H2 6070   1.252   5.440   1.892  0.1857  0.7239  0.1712
 2036TIP3   OH2 6071   4.560   5.468   2.462 -0.1422  0.4176 -0.6180
 2036TIP3    H1 6072   4.540   5.466   2.556  1.3547 -0.0505 -0.2891
 2036TIP3    H2 6073   4.633   5.529   2.454 -0.0809  0.2499 -1.4522
 2037TIP3   OH2 6074   4.906   1.579   5.325 -0.5450  0.4198 -0.0928
 2037TIP3    H1 6075   4.920   1.658   5.377 -0.9103 -0.3145  1.1484
 2037TIP3    H2 6076   4.964   1.590   5.250  2.5836  0.0105  2.0981
 2038TIP3   OH2 6077   5.729   4.137   3.486  0.2891  0.1524  0.4592
 2038TIP3    H1 6078   5.809   4.085   3.488  0.5342  0.5320  0.9459
 2038TIP3    H2 6079   5.759   4.227   3.479 -0.1535  0.2001 -1.1067
 2039TIP3   OH2 6080   2.925   4.301   1.473 -0.4487  0.3490 -0.0746
 2039TIP3    H1 6081   2.835   4.330   1.493 -1.5742 -2.5238 -0.4449
 2039TIP3    H2 6082   2.967   4.296   1.559 -2.0504 -2.1936  0.6941
 2040TIP3   OH2 6083   6.588   4.456   2.979  0.1436  0.5813 -0.3853
 2040TIP3    H1 6084   6.672   4.473   3.021  1.6322 -2.0432 -2.0137
 2040TIP3    H2 6085   6.586   4.515   2.904 -0.0966  1.5505  0.3654
 2041TIP3   OH2 6086   2.594   2.822   3.570  0.3870  0.0060  0.0158
 2041TIP3    H1 6087   2.559   2.769   3.498  1.7991  0.1090 -0.7975
 2041TIP3    H2 6088   2.662   2.766   3.609  0.3220  0.3470  0.6267
 2042TIP3   OH2 6089   7.064   0.600   0.092 -0.3674 -0.2100 -0.2060
 2042TIP3    H1 6090   7.108   0.683   0.074 -2.3421  0.4530 -2.5175
 2042TIP3    H2 6091   7.126   0.533   0.064  0.6620  0.5124  0.2774
 2043TIP3   OH2 6092   7.147   1.953   0.525  0.5849 -0.2610 -0.1305
 2043TIP3    H1 6093   7.087   2.028   0.518  1.1794  0.4070  1.4907
 2043TIP3    H2 6094   7.097   1.887   0.573 -0.2272 -1.2841 -2.2400
 2044TIP3   OH2 6095   2.668   3.393   1.075 -0.0530  0.1201 -0.6260
 2044TIP3    H1 6096   2.639   3.389   0.984 -2.6224  1.4401  0.0258
 2044TIP3    H2 6097   2.591   3.365   1.125  2.1360 -3.5187  1.1719
 2045TIP3   OH2 6098   5.551   2.743   0.306 -0.1235 -0.3456  0.3221
 2045TIP3    H1 6099   5.549   2.815   0.369 -1.0151 -2.0908  2.4128
 2045TIP3    H2 6100   5.625   2.689   0.333  1.4199  0.4207 -2.0786
 2046TIP3   OH2 6101   4.027   1.986   4.962 -0.1403 -0.1204  0.0325
 2046TIP3    H1 6102   4.056   1.911   4.910  0.5356  0.0464  0.1704
 2046TIP3    H2 6103   4.084   1.987   5.038 -0.2913  0.4035  0.1439
 2047TIP3   OH2 6104   6.919   4.035   1.983 -0.1422  0.0033 -0.1572
 2047TIP3    H1 6105   6.990   4.099   1.981 -0.2549  0.1811  0.9632
 2047TIP3    H2 6106   6.961   3.952   2.003 -0.1225 -0.1017 -0.6137
 2048TIP3   OH2 6107   3.445   5.069   3.644  0.3312  0.6709 -0.4096
 2048TIP3    H1 6108   3.437   5.155   3.685 -0.0252 -0.1223  1.2625
 2048TIP3    H2 6109   3.529   5.071   3.599  1.1627  1.3159  1.0955
 2049TIP3   OH2 6110   3.769   2.397   2.307  0.5428  0.4468  0.0953
 2049TIP3    H1 6111   3.864   2.403   2.301  0.5742  0.9489  0.9708
 2049TIP3    H2 6112   3.738   2.431   2.223  1.1732 -2.2130 -1.3400
 2050TIP3   OH2 6113   0.124   0.987   3.076  0.2781  0.6556 -0.1338
 2050TIP3    H1 6114   0.143   0.997   3.169 -2.7125  2.6052  0.3864
 2050TIP3    H2 6115   0.119   0.892   3.063 -0.9678  0.3538  2.1265
 2051TIP3   OH2 6116   5.930   4.829   5.595  0.6347  0.0356  0.0103
 2051TIP3    H1 6117   5.895   4.758   5.542 -1.5964  1.5817 -0.6988
 2051TIP3    H2 6118   5.858   4.856   5.651  2.2619 -0.0311  2.2628
 2052TIP3   OH2 6119   0.484   0.384   4.001 -0.5006 -0.3409 -0.2591
 2052TIP3    H1 6120   0.404   0.353   4.042  0.4830 -0.2850  1.8509
 2052TIP3    H2 6121   0.496   0.473   4.035 -0.8614  0.6796 -2.5982
 2053TIP3   OH2 6122   5.668   1.627   0.748  0.1626 -0.1121 -0.1014
 2053TIP3    H1 6123   5.624   1.596   0.827 -0.4543  0.9272 -0.0173
 2053TIP3    H2 6124   5.613   1.594   0.676 -0.0406  0.0984 -0.0437
 2054TIP3   OH2 6125   3.928   1.742   5.414 -0.3657  0.0296 -0.2991
 2054TIP3    H1 6126   3.891   1.826   5.439 -0.2370  0.0933 -0.3236
 2054TIP3    H2 6127   3.864   1.704   5.354 -1.1102 -0.5147  0.8017
 2055TIP3   OH2 6128   5.849   5.852   5.757  0.2503 -0.5102 -0.3005
 2055TIP3    H1 6129   5.903   5.788   5.804  1.0102  0.3721  0.0514
 2055TIP3    H2 6130   5.906   5.928   5.746 -0.9092  0.4417  0.0689
 2056TIP3   OH2 6131   4.345   6.166   5.390  0.6863  0.2296 -0.2011
 2056TIP3    H1 6132   4.413   6.226   5.358 -0.5682  1.9924  0.2768
 2056TIP3    H2 6133   4.263   6.212   5.373 -0.5251 -2.3078 -1.7721
 2057TIP3   OH2 6134   3.930   5.481   4.392  0.1082 -0.1814 -0.4345
 2057TIP3    H1 6135   4.000   5.536   4.425  1.6583 -2.4358  0.2858
 2057TIP3    H2 6136   3.950   5.394   4.426 -2.6948 -1.0640 -0.7542
 2058TIP3   OH2 6137   3.038   6.557   3.828  0.0813  0.2804 -0.0458
 2058TIP3    H1 6138   3.014   6.645   3.857  1.5047  0.6924 -0.0605
 2058TIP3    H2 6139   3.012   6.554   3.736  1.6173  1.3456 -0.5550
 2059TIP3   OH2 6140   4.403   4.982   5.282 -0.1990 -0.4384 -0.4920
 2059TIP3    H1 6141   4.404   4.895   5.243  0.8204  0.5714 -2.8698
 2059TIP3    H2 6142   4.315   5.016   5.263 -0.5686 -0.8799  0.3658
 2060TIP3   OH2 6143   1.204   1.093   4.668 -0.0852  0.1770 -0.2727
 2060TIP3    H1 6144   1.298   1.098   4.656  0.2329  1.6764  2.1290
 2060TIP3    H2 6145   1.182   1.001   4.652  1.9254 -0.3969  0.0263
 2061TIP3   OH2 6146   5.483   6.407   4.466 -0.3631  0.4718 -0.0544
 2061TIP3    H1 6147   5.414   6.433   4.405 -0.8919 -1.6226 -0.3973
 2061TIP3    H2 6148   5.435   6.376   4.543  0.2342  0.1346  0.1837
 2062TIP3   OH2 6149   6.790   5.318   1.986 -0.3304 -0.1106  0.7595
 2062TIP3    H1 6150   6.773   5.274   1.902  0.7904  1.7517 -0.5029
 2062TIP3    H2 6151   6.712   5.371   2.001 -0.4083 -0.2232  0.7568
 2063TIP3   OH2 6152   0.781   0.154   3.010  0.4639 -0.4061 -0.2963
 2063TIP3    H1 6153   0.768   0.247   3.031  1.8008 -0.2396 -0.1352
 2063TIP3    H2 6154   0.756   0.108   3.090 -0.7506 -0.2442 -0.5614
 2064TIP3   OH2 6155   2.263   2.556   2.816  0.5564 -0.0085  0.1105
 2064TIP3    H1 6156   2.199   2.558   2.745 -0.1874  1.9410  0.7894
 2064TIP3    H2 6157   2.338   2.604   2.781 -0.2739  2.0289  1.0138
 2065TIP3   OH2 6158   2.817   3.869   0.405  0.5056 -0.5827  0.7738
 2065TIP3    H1 6159   2.850   3.779   0.402  4.1494  0.6523 -1.4462
 2065TIP3    H2 6160   2.879   3.916   0.460  0.1594  1.0894 -0.1992
 2066TIP3   OH2 6161   2.590   0.500   3.775 -0.2112  0.3785 -0.1082
 2066TIP3    H1 6162   2.522   0.434   3.760  0.1866 -0.6477  2.1701
 2066TIP3    H2 6163   2.670   0.448   3.789  1.2345  1.5448 -3.0695
 2067TIP3   OH2 6164   5.866   4.673   2.080 -0.3055  0.0415 -0.1148
 2067TIP3    H1 6165   5.930   4.733   2.119 -0.1793 -1.1490  1.6111
 2067TIP3    H2 6166   5.797   4.665   2.145 -0.8704 -0.8073 -0.7933
 2068TIP3   OH2 6167   5.872   5.604   1.975 -0.4368  0.0969 -0.4032
 2068TIP3    H1 6168   5.843   5.517   2.004 -0.2487  0.4164  0.7837
 2068TIP3    H2 6169   5.845   5.663   2.045 -1.0080  1.0832 -1.4265
 2069TIP3   OH2 6170   4.501   5.870   0.555  0.4993 -0.5556  0.2624
 2069TIP3    H1 6171   4.526   5.819   0.478 -1.3989  0.1564 -0.9017
 2069TIP3    H2 6172   4.494   5.960   0.523  1.0877  0.0048  1.6195
 2070TIP3   OH2 6173   1.746   3.760   4.620  0.3395 -0.1678 -0.2639
 2070TIP3    H1 6174   1.790   3.823   4.678  0.8291 -0.4662 -0.3108
 2070TIP3    H2 6175   1.816   3.703   4.589  0.2842  0.6657 -2.0458
 2071TIP3   OH2 6176   3.806   6.266   0.997 -0.2946  0.7336 -0.8737
 2071TIP3    H1 6177   3.752   6.327   0.947 -2.8474 -1.1596 -0.6346
 2071TIP3    H2 6178   3.762   6.181   0.987  1.3558 -0.4850  1.2956
 2072TIP3   OH2 6179   2.586   4.276   1.233  0.2281  0.3393  0.3427
 2072TIP3    H1 6180   2.672   4.239   1.215 -0.0261  0.2167 -0.6963
 2072TIP3    H2 6181   2.598   4.327   1.313  1.1517 -0.0525  0.4627
 2073TIP3   OH2 6182   4.468   0.115   0.093  0.1192 -0.0592 -0.8394
 2073TIP3    H1 6183   4.472   0.020   0.103 -0.6032 -0.5859 -4.3246
 2073TIP3    H2 6184   4.558   0.144   0.108 -0.0993 -0.8277  2.8446
 2074TIP3   OH2 6185   6.608   5.326   3.295  0.3911 -0.0051 -0.4063
 2074TIP3    H1 6186   6.570   5.412   3.280  1.8176  0.7440  0.1080
 2074TIP3    H2 6187   6.579   5.302   3.383  1.5761  0.8503  0.2428
 2075TIP3   OH2 6188   2.253   1.894   5.572  0.1984  0.2953 -0.3080
 2075TIP3    H1 6189   2.199   1.966   5.538  0.8322 -0.2993 -2.7309
 2075TIP3    H2 6190   2.195   1.848   5.632 -1.3843  0.7952 -1.3831
 2076TIP3   OH2 6191   6.972   6.718   4.559  0.3497 -0.0139  0.3114
 2076TIP3    H1 6192   6.989   6.710   4.465  0.2593  1.4122  0.1484
 2076TIP3    H2 6193   6.877   6.714   4.566  0.0037  3.7822 -0.1802
 2077TIP3   OH2 6194   0.775   5.303   3.573 -0.2996  0.0733 -0.2050
 2077TIP3    H1 6195   0.706   5.367   3.557  0.9191  1.6032  0.3731
 2077TIP3    H2 6196   0.852   5.356   3.594  0.5038 -1.6106  1.3410
 2078TIP3   OH2 6197   5.647   2.499   5.632  0.5088 -0.4083  0.0174
 2078TIP3    H1 6198   5.654   2.593   5.653  1.5031 -0.5302  0.2991
 2078TIP3    H2 6199   5.682   2.492   5.543 -0.2639 -0.4112 -0.2893
 2079TIP3   OH2 6200   1.568   3.872   2.698  0.6205 -0.0659  0.0133
 2079TIP3    H1 6201   1.540   3.854   2.608  1.2112 -0.7718 -0.0412
 2079TIP3    H2 6202   1.523   3.953   2.721 -0.4430 -0.4777 -0.5121
 2080TIP3   OH2 6203   3.924   0.049   1.789  0.0188 -0.2459 -0.2067
 2080TIP3    H1 6204   3.928   0.044   1.693  0.6287 -1.5883 -0.1398
 2080TIP3    H2 6205   3.894  -0.038   1.815 -0.9307  0.3650  0.7944
 2081TIP3   OH2 6206   0.623   1.547   1.399  0.6834 -0.1808  0.5272
 2081TIP3    H1 6207   0.656   1.457   1.405 -1.4046 -1.1772 -1.4876
 2081TIP3    H2 6208   0.702   1.601   1.399  1.9921 -1.9264  2.3032
 2082TIP3   OH2 6209   1.508   5.765   4.850 -0.1326  0.1668  0.4987
 2082TIP3    H1 6210   1.460   5.695   4.806  0.2506 -0.7248  1.4531
 2082TIP3    H2 6211   1.595   5.765   4.808  0.3949 -1.0035  1.5294
 2083TIP3   OH2 6212   4.985   5.269   0.991  0.0969 -0.1459  0.0052
 2083TIP3    H1 6213   4.932   5.345   1.017  0.0148  0.1409 -0.9411
 2083TIP3    H2 6214   4.923   5.214   0.943 -0.0512 -1.2270  1.3871
 2084TIP3   OH2 6215   3.592   5.380   0.791 -0.0316 -0.2385  0.7053
 2084TIP3    H1 6216   3.589   5.424   0.876 -0.6204  0.0295  0.5512
 2084TIP3    H2 6217   3.636   5.441   0.733 -0.6055  0.0373  0.5571
 2085TIP3   OH2 6218   4.388   3.526   3.073  0.1860  0.3030  0.5849
 2085TIP3    H1 6219   4.439   3.605   3.093 -0.1833  0.4191  1.1096
 2085TIP3    H2 6220   4.443   3.454   3.104  0.5373  0.3508  0.0799
 2086TIP3   OH2 6221   6.076   2.026   4.934 -0.3148  0.2438 -0.9567
 2086TIP3    H1 6222   6.131   1.979   4.871  2.9382  1.4756  0.7261
 2086TIP3    H2 6223   6.030   2.092   4.882 -0.0720 -0.7206 -2.4338
 2087TIP3   OH2 6224   6.975   5.666   4.764  0.3402  0.4256  0.2149
 2087TIP3    H1 6225   6.946   5.585   4.721  0.6391  0.7815 -0.6789
 2087TIP3    H2 6226   6.895   5.719   4.771 -0.1466 -0.4524  2.0391
 2088TIP3   OH2 6227   3.164   2.092   1.209 -0.0711  0.3627  0.6154
 2088TIP3    H1 6228   3.195   2.122   1.294 -2.3322  0.5938  1.4190
 2088TIP3    H2 6229   3.132   2.171   1.166 -0.1141  0.0499  0.0685
 2089TIP3   OH2 6230   3.829   1.328   5.100  0.1183 -0.3998  0.0571
 2089TIP3    H1 6231   3.782   1.404   5.134  1.2206  0.0215  0.6946
 2089TIP3    H2 6232   3.846   1.349   5.008  0.2964  0.0688  0.1960
 2090TIP3   OH2 6233   2.260   6.121   3.676  0.2084  0.4392 -0.6518
 2090TIP3    H1 6234   2.216   6.196   3.716  0.0986  0.2733 -0.4556
 2090TIP3    H2 6235   2.347   6.152   3.654  0.5084  0.3429  0.3424
 2091TIP3   OH2 6236   5.906   0.623   0.494 -0.2565 -0.0094 -0.2687
 2091TIP3    H1 6237   5.848   0.551   0.520  0.0232 -0.2908 -0.4192
 2091TIP3    H2 6238   5.882   0.642   0.403 -1.6053  1.3339  0.3142
 2092TIP3   OH2 6239   6.473   2.238   1.945 -0.3507  0.0011 -0.1484
 2092TIP3    H1 6240   6.425   2.296   2.004  0.1829  0.5820 -0.2748
 2092TIP3    H2 6241   6.471   2.282   1.860  0.1661 -0.0957 -0.2183
 2093TIP3   OH2 6242   0.395   6.544   4.053 -0.6480 -0.3342 -0.2639
 2093TIP3    H1 6243   0.344   6.605   4.000  0.7197  0.7534 -0.3538
 2093TIP3    H2 6244   0.344   6.535   4.133 -1.0031  0.7230 -0.3530
 2094TIP3   OH2 6245   2.358   0.151   1.757 -0.3956  0.2401  0.4721
 2094TIP3    H1 6246   2.286   0.088   1.756 -1.2053  1.0932  1.8550
 2094TIP3    H2 6247   2.420   0.115   1.820 -0.9222  0.8638  1.3667
 2095TIP3   OH2 6248   4.966   4.136   4.807 -0.0028  0.4177  0.3304
 2095TIP3    H1 6249   5.022   4.110   4.881  0.9165  1.2839 -0.0367
 2095TIP3    H2 6250   4.878   4.137   4.843  0.3103 -0.1639  1.1526
 2096TIP3   OH2 6251   3.640   4.536   2.377  0.3298 -0.4130  0.4221
 2096TIP3    H1 6252   3.706   4.604   2.360 -0.2706  0.5993  1.9169
 2096TIP3    H2 6253   3.623   4.497   2.291  2.6765 -0.5434 -0.0369
 2097TIP3   OH2 6254   2.566   2.765   1.272  0.0509 -0.0463 -0.4923
 2097TIP3    H1 6255   2.480   2.770   1.314  0.0032  0.0208 -0.5967
 2097TIP3    H2 6256   2.625   2.806   1.335 -0.4367  2.6047 -1.5938
 2098TIP3   OH2 6257   3.393   1.219   3.179  0.1680  0.1330 -0.5638
 2098TIP3    H1 6258   3.406   1.155   3.109  1.3088  1.5594 -1.7317
 2098TIP3    H2 6259   3.447   1.294   3.153  0.1224  0.9644  1.5384
 2099TIP3   OH2 6260   5.197   4.307   5.183 -0.4813  0.3236  0.3803
 2099TIP3    H1 6261   5.114   4.283   5.142 -0.7547  1.2436  0.3817
 2099TIP3    H2 6262   5.256   4.324   5.110 -1.2414  2.9439  0.2612
 2100TIP3   OH2 6263   1.035   4.136   0.422 -0.2692 -0.1096 -0.3853
 2100TIP3    H1 6264   1.081   4.063   0.463 -0.6450  0.0836  0.3962
 2100TIP3    H2 6265   0.993   4.097   0.345  2.2333 -0.0232 -1.9145
 2101TIP3   OH2 6266   0.431   5.151   3.283 -0.1398  0.2009  0.0886
 2101TIP3    H1 6267   0.514   5.110   3.307  0.1616  1.0116  0.4718
 2101TIP3    H2 6268   0.453   5.210   3.212 -0.0103  1.7829  1.3763
 2102TIP3   OH2 6269   3.049   0.801   0.466  0.2194 -0.1480  0.0697
 2102TIP3    H1 6270   3.050   0.841   0.380 -0.2026  0.9521  0.5564
 2102TIP3    H2 6271   3.085   0.868   0.524  1.4401 -1.2245  0.6151
 2103TIP3   OH2 6272   0.459   5.218   0.367 -0.4118  0.7828 -0.3992
 2103TIP3    H1 6273   0.487   5.135   0.329  0.6257 -0.2149  2.3120
 2103TIP3    H2 6274   0.488   5.284   0.304  0.3111 -0.7918 -1.7843
 2104TIP3   OH2 6275   5.104   2.163   1.989 -0.1289  0.5816  0.3701
 2104TIP3    H1 6276   5.132   2.112   1.913  0.6518  3.2520 -1.2867
 2104TIP3    H2 6277   5.180   2.163   2.047  0.2968  0.8343 -0.1799
 2105TIP3   OH2 6278   0.848   2.546   0.676 -0.0095 -0.2604 -0.0910
 2105TIP3    H1 6279   0.896   2.468   0.647  0.3830  0.4664 -1.4655
 2105TIP3    H2 6280   0.756   2.519   0.677  0.0955 -0.6793 -0.8154
 2106TIP3   OH2 6281   1.935   1.691   4.021  0.7180  0.4727 -0.1415
 2106TIP3    H1 6282   2.028   1.711   4.035  0.3728  0.3807  2.9617
 2106TIP3    H2 6283   1.893   1.776   4.017  0.9339  0.5530 -2.4680
 2107TIP3   OH2 6284   0.422   5.274   4.748  0.5265 -0.4455 -0.1723
 2107TIP3    H1 6285   0.488   5.205   4.747  2.0111  0.9013 -0.0273
 2107TIP3    H2 6286   0.452   5.336   4.681  0.2558  0.9283  0.9252
 2108TIP3   OH2 6287   4.239   6.654   5.514 -0.3180  0.1231  0.3424
 2108TIP3    H1 6288   4.174   6.592   5.546  1.0658 -1.0250  1.0137
 2108TIP3    H2 6289   4.312   6.601   5.485  1.1880  1.4238  1.5532
 2109TIP3   OH2 6290   5.559   0.168   1.378 -0.5558  0.5836  0.5663
 2109TIP3    H1 6291   5.505   0.090   1.393 -0.9468  0.3935 -1.4812
 2109TIP3    H2 6292   5.495   0.238   1.361 -0.2189  0.6081 -0.7399
 2110TIP3   OH2 6293   2.542   4.792   5.295 -0.1096 -0.6485 -0.1399
 2110TIP3    H1 6294   2.499   4.755   5.372 -1.6787  0.4343 -0.4426
 2110TIP3    H2 6295   2.477   4.851   5.257  0.9978 -0.3687 -1.7205
 2111TIP3   OH2 6296   1.860   3.440   3.602  0.0255 -0.3712  0.1913
 2111TIP3    H1 6297   1.864   3.368   3.666 -0.8474  0.3371  1.0863
 2111TIP3    H2 6298   1.783   3.491   3.629  1.3107  1.5967  0.3478
 2112TIP3   OH2 6299   6.124   6.710   5.898 -0.2075 -0.4763  0.0825
 2112TIP3    H1 6300   6.098   6.713   5.806 -0.7050  0.4372  0.2425
 2112TIP3    H2 6301   6.195   6.645   5.901  1.6551  1.3287 -1.4290
 2113TIP3   OH2 6302   3.665   2.114   3.550 -0.3420  0.2401  0.5321
 2113TIP3    H1 6303   3.579   2.156   3.552 -1.2962 -1.5609 -0.5346
 2113TIP3    H2 6304   3.646   2.020   3.552  1.5878 -0.2032 -0.1399
 2114TIP3   OH2 6305   0.129   0.801   1.858  0.6547  0.1276 -0.2491
 2114TIP3    H1 6306   0.145   0.896   1.859  2.2284 -0.0536 -2.0689
 2114TIP3    H2 6307   0.107   0.782   1.767  0.0347 -1.2220  0.1683
 2115TIP3   OH2 6308   3.116   1.920   0.841 -0.0932  0.2531 -0.5946
 2115TIP3    H1 6309   3.034   1.969   0.843  0.1651  0.7054 -0.9286
 2115TIP3    H2 6310   3.139   1.916   0.748 -1.0352 -2.0714 -0.7823
 2116TIP3   OH2 6311   6.845   1.929   3.475  0.2595 -0.0941 -0.0274
 2116TIP3    H1 6312   6.903   1.911   3.549  1.0656  0.5627 -0.4742
 2116TIP3    H2 6313   6.827   1.843   3.437  0.4264 -0.3672  0.4999
 2117TIP3   OH2 6314   1.608   0.473   3.368  0.2195 -0.7327  0.0383
 2117TIP3    H1 6315   1.677   0.449   3.430  0.3046 -2.4314 -0.6682
 2117TIP3    H2 6316   1.528   0.473   3.421  0.7316  1.6723  0.9631
 2118TIP3   OH2 6317   3.660   1.751   1.428 -0.3533  0.1336 -0.3432
 2118TIP3    H1 6318   3.582   1.722   1.476 -2.1700  0.5370 -2.8067
 2118TIP3    H2 6319   3.682   1.677   1.371 -0.2341  0.7715 -1.1415
 2119TIP3   OH2 6320   6.162   0.101   2.229  0.4835 -0.1970 -0.0658
 2119TIP3    H1 6321   6.164   0.100   2.325  0.5440 -0.5207 -0.0702
 2119TIP3    H2 6322   6.250   0.129   2.204  0.8183 -1.1916 -0.0424
 2120TIP3   OH2 6323   6.919   5.399   2.833 -0.1751  0.0782  0.1295
 2120TIP3    H1 6324   6.902   5.305   2.839  0.7323 -0.0457  0.9578
 2120TIP3    H2 6325   6.995   5.406   2.776  0.4877  0.2116  1.0064
 2121TIP3   OH2 6326   4.662   6.410   3.763 -0.8237 -0.2923 -0.2031
 2121TIP3    H1 6327   4.590   6.350   3.744 -0.7193  0.0097 -1.7266
 2121TIP3    H2 6328   4.680   6.452   3.679  1.1117 -0.3367  0.1480
 2122TIP3   OH2 6329   3.611   6.204   3.451 -0.2345  0.7651  0.3969
 2122TIP3    H1 6330   3.637   6.198   3.543  2.7890  0.7007 -0.3810
 2122TIP3    H2 6331   3.623   6.297   3.429 -1.8863  0.9760  0.2750
 2123TIP3   OH2 6332   6.034   5.311   0.545  0.0592 -0.0376 -0.3912
 2123TIP3    H1 6333   6.051   5.247   0.475  1.8515  0.5789 -0.5658
 2123TIP3    H2 6334   6.019   5.258   0.623  2.2014 -0.7144 -0.3838
 2124TIP3   OH2 6335   5.866   2.658   0.181  0.4111 -0.1214  0.1901
 2124TIP3    H1 6336   5.845   2.566   0.165 -0.3951  0.3276 -1.5468
 2124TIP3    H2 6337   5.901   2.659   0.270 -0.8289 -1.9013  0.7583
 2125TIP3   OH2 6338   1.580   6.313   2.842 -0.6648  0.3354 -0.1865
 2125TIP3    H1 6339   1.609   6.223   2.855 -1.6144  0.3324  2.6774
 2125TIP3    H2 6340   1.646   6.366   2.887 -1.5031  0.8274  0.4998
 2126TIP3   OH2 6341   2.146   5.643   5.160 -0.5041 -0.9694  0.1174
 2126TIP3    H1 6342   2.161   5.555   5.196  0.0650 -0.3241  1.5629
 2126TIP3    H2 6343   2.123   5.696   5.237  2.2401  0.8256 -0.1642
 2127TIP3   OH2 6344   3.367   1.250   3.450  0.0011  0.1457 -0.4227
 2127TIP3    H1 6345   3.385   1.235   3.357  0.4193 -0.3453 -0.2699
 2127TIP3    H2 6346   3.311   1.327   3.452  0.7944  0.7551 -1.0212
 2128TIP3   OH2 6347   6.608   2.465   3.884 -0.1655  0.3240 -0.6676
 2128TIP3    H1 6348   6.685   2.408   3.892 -1.5530 -1.4568  1.3135
 2128TIP3    H2 6349   6.621   2.533   3.950  0.4801  1.0760 -1.5437
 2129TIP3   OH2 6350   3.038   1.118   1.217  0.2048 -0.3916 -0.0158
 2129TIP3    H1 6351   3.090   1.038   1.206  1.6171  0.6508 -1.4798
 2129TIP3    H2 6352   3.007   1.138   1.129 -1.9223 -0.4340  0.6829
 2130TIP3   OH2 6353   2.649   3.106   4.256  0.3394  0.1994 -0.0397
 2130TIP3    H1 6354   2.595   3.135   4.329  0.5001  1.1576 -0.2789
 2130TIP3    H2 6355   2.721   3.057   4.296  1.0261  1.6282  0.5620
 2131TIP3   OH2 6356   2.154   0.927   1.980  0.2706 -0.3019 -0.0489
 2131TIP3    H1 6357   2.122   0.969   1.900  1.7904  0.2677 -0.3720
 2131TIP3    H2 6358   2.088   0.950   2.046  0.2958  1.3513 -0.5514
 2132TIP3   OH2 6359   1.660   0.215   3.243  0.3117  0.1585  0.1220
 2132TIP3    H1 6360   1.639   0.303   3.275  0.0871 -0.1370  0.7910
 2132TIP3    H2 6361   1.576   0.171   3.237  0.5344 -0.3974  0.9412
 2133TIP3   OH2 6362   3.970   3.090   2.460 -0.1285 -0.2289  0.1147
 2133TIP3    H1 6363   4.060   3.123   2.454  0.3331 -1.2709  1.0994
 2133TIP3    H2 6364   3.965   3.050   2.546 -1.5427 -0.2196  0.0478
 2134TIP3   OH2 6365   5.281   6.240   3.765  0.1746 -0.4886  0.0191
 2134TIP3    H1 6366   5.315   6.303   3.829  0.5552  0.7695 -1.3776
 2134TIP3    H2 6367   5.339   6.248   3.690 -1.3560 -0.5969 -1.2127
 2135TIP3   OH2 6368   0.216   5.045   2.222 -0.7870 -0.3641  0.3318
 2135TIP3    H1 6369   0.172   4.980   2.167 -0.2288 -0.3645 -0.1192
 2135TIP3    H2 6370   0.171   5.127   2.203 -0.1510 -0.2326 -0.6447
 2136TIP3   OH2 6371   3.105   5.449   2.618  0.1886 -0.1515  0.6892
 2136TIP3    H1 6372   3.027   5.495   2.647 -1.3874  0.2879 -3.5963
 2136TIP3    H2 6373   3.075   5.360   2.599  1.4454 -0.8002  1.5291
 2137TIP3   OH2 6374   0.638   1.668   2.895 -0.0411 -0.3263 -0.1087
 2137TIP3    H1 6375   0.728   1.681   2.926  0.4289  2.2156 -2.2145
 2137TIP3    H2 6376   0.647   1.650   2.802 -1.6785 -2.1879  0.0176
 2138TIP3   OH2 6377   2.162   4.832   3.960  0.1068 -0.2627  0.1573
 2138TIP3    H1 6378   2.201   4.842   3.873 -0.8923  2.0177 -0.1024
 2138TIP3    H2 6379   2.235   4.842   4.021  0.3135  2.0361 -0.3645
 2139TIP3   OH2 6380   7.137   4.265   3.578  0.4333  0.0568 -0.1270
 2139TIP3    H1 6381   7.212   4.237   3.525 -0.3904 -1.8896 -0.3380
 2139TIP3    H2 6382   7.066   4.276   3.516  0.0392 -0.0012  0.3118
 2140TIP3   OH2 6383   6.148   0.096   0.569 -0.5591  0.0639 -0.6154
 2140TIP3    H1 6384   6.077   0.124   0.511 -1.0005  1.1238  0.3976
 2140TIP3    H2 6385   6.127   0.136   0.653  0.6632 -0.5180 -0.0133
 2141TIP3   OH2 6386   5.735   3.442   4.330  0.3771  0.3148 -0.0744
 2141TIP3    H1 6387   5.806   3.391   4.292  0.2352  0.6339 -0.7710
 2141TIP3    H2 6388   5.710   3.505   4.262 -0.1996  0.5753  0.3641
 2142TIP3   OH2 6389   7.155   1.652   4.914 -0.7331  0.4375  0.0671
 2142TIP3    H1 6390   7.211   1.729   4.920 -1.1508  0.8855 -1.2749
 2142TIP3    H2 6391   7.099   1.669   4.838 -0.5120 -1.3976 -0.5636
 2143TIP3   OH2 6392   6.224   6.009   4.887 -0.0221 -0.3309  0.5455
 2143TIP3    H1 6393   6.136   5.972   4.874 -0.4777  0.6611  0.7448
 2143TIP3    H2 6394   6.280   5.932   4.901 -0.5099 -1.0957 -1.4638
 2144TIP3   OH2 6395   2.397   1.993   3.428  0.3645  0.1923 -0.1308
 2144TIP3    H1 6396   2.479   2.011   3.382  0.4812  1.2011  0.4374
 2144TIP3    H2 6397   2.329   2.017   3.365  0.5157  2.7382  0.5506
 2145TIP3   OH2 6398   1.610   2.002   3.607 -1.1806 -0.6218  0.0153
 2145TIP3    H1 6399   1.671   1.936   3.639  0.5290  0.5807 -0.6556
 2145TIP3    H2 6400   1.536   1.997   3.668  0.6286 -0.4462  2.4078
 2146TIP3   OH2 6401   7.117   4.155   5.439  0.7289  0.5752 -0.3318
 2146TIP3    H1 6402   7.133   4.073   5.487 -0.9379  0.2558 -0.2386
 2146TIP3    H2 6403   7.135   4.224   5.503 -1.7746  0.1495  0.9561
 2147TIP3   OH2 6404   0.159   4.135   5.325 -0.2147 -0.0053  0.4129
 2147TIP3    H1 6405   0.151   4.039   5.321 -1.8019  0.0908  0.6185
 2147TIP3    H2 6406   0.070   4.165   5.340 -0.0230  1.6071 -1.3189
 2148TIP3   OH2 6407   5.992   6.635   4.240  0.4102 -0.3550  0.1999
 2148TIP3    H1 6408   5.920   6.679   4.284  0.3080 -0.6913  0.3709
 2148TIP3    H2 6409   6.056   6.618   4.310  0.1424 -1.1057  0.2669
 2149TIP3   OH2 6410   1.956   3.103   1.595  0.0844  0.1001 -0.0194
 2149TIP3    H1 6411   1.916   3.088   1.681  0.7749 -0.1380  0.2598
 2149TIP3    H2 6412   1.881   3.115   1.536 -0.4069  2.0139  0.9018
 2150TIP3   OH2 6413   6.195   5.205   4.234  0.2690 -0.1393  0.4063
 2150TIP3    H1 6414   6.144   5.255   4.298  1.2666  0.3009  0.8831
 2150TIP3    H2 6415   6.263   5.162   4.286  1.0196  0.1331 -0.3340
 2151TIP3   OH2 6416   0.216   0.632   4.226 -0.1221  0.1119  0.3553
 2151TIP3    H1 6417   0.137   0.659   4.273  0.2915 -0.6053  1.5019
 2151TIP3    H2 6418   0.288   0.665   4.279  0.3628 -0.3328 -0.0100
 2152TIP3   OH2 6419   3.033   6.703   4.390 -0.3054 -0.1970  0.0649
 2152TIP3    H1 6420   2.951   6.706   4.441 -0.7562 -2.3695 -0.4284
 2152TIP3    H2 6421   3.005   6.678   4.302  0.8091  0.0220 -0.3594
 2153TIP3   OH2 6422   1.580   2.841   0.499  0.3960 -0.5269  0.4887
 2153TIP3    H1 6423   1.488   2.842   0.475  0.4807 -1.7801  0.0365
 2153TIP3    H2 6424   1.606   2.933   0.502 -0.7438 -0.1896  0.1467
 2154TIP3   OH2 6425   7.166   5.592   2.744 -0.1391  0.2919 -0.1651
 2154TIP3    H1 6426   7.186   5.527   2.811  1.6385 -0.3715 -1.2548
 2154TIP3    H2 6427   7.194   5.551   2.662  0.7794  2.3028 -0.9232
 2155TIP3   OH2 6428   5.741   6.352   1.989  0.1644  0.1719  0.3957
 2155TIP3    H1 6429   5.722   6.352   2.083 -0.6468  1.9394  0.2752
 2155TIP3    H2 6430   5.799   6.427   1.975  3.2974 -2.1644 -0.0475
 2156TIP3   OH2 6431   2.236   3.630   2.592 -0.1312 -0.0231  0.1585
 2156TIP3    H1 6432   2.302   3.577   2.637 -0.4001 -3.0129 -2.6299
 2156TIP3    H2 6433   2.286   3.689   2.537  0.1863 -0.0781  0.3842
 2157TIP3   OH2 6434   6.976   5.047   3.418 -0.1433 -0.1818  0.4009
 2157TIP3    H1 6435   6.932   5.120   3.374 -1.0989 -0.1789  1.3077
 2157TIP3    H2 6436   7.059   5.037   3.371 -0.2362  1.1229 -0.0923
 2158TIP3   OH2 6437   6.460   3.395   0.217  0.3906 -0.3622 -0.2971
 2158TIP3    H1 6438   6.462   3.431   0.128  1.1409  0.1267 -0.0911
 2158TIP3    H2 6439   6.367   3.388   0.237  0.2095 -0.5963 -1.1686
 2159TIP3   OH2 6440   4.205   2.682   0.397 -0.0972  0.2486 -0.3687
 2159TIP3    H1 6441   4.115   2.694   0.426  0.0898  0.6961  0.0595
 2159TIP3    H2 6442   4.242   2.771   0.397  0.7860 -0.0886  0.9662
 2160TIP3   OH2 6443   3.720   2.158   5.034 -0.0666  0.2341 -0.0409
 2160TIP3    H1 6444   3.766   2.216   5.095  2.7957 -1.0723 -0.7863
 2160TIP3    H2 6445   3.775   2.157   4.955 -1.8078 -0.8638 -1.3263
 2161TIP3   OH2 6446   2.386   3.218   1.560 -0.0332  0.2344 -0.1481
 2161TIP3    H1 6447   2.409   3.145   1.502 -1.3141 -1.3368  1.2190
 2161TIP3    H2 6448   2.326   3.272   1.508 -1.4823 -1.3627 -0.2016
 2162TIP3   OH2 6449   1.886   2.784   1.777 -0.0023 -0.1387 -0.1567
 2162TIP3    H1 6450   1.800   2.806   1.813  0.1659  0.1228  0.0861
 2162TIP3    H2 6451   1.875   2.696   1.742  0.4004 -1.3023  2.4430
 2163TIP3   OH2 6452   6.194   5.406   1.591 -0.5370 -0.7569  0.2204
 2163TIP3    H1 6453   6.168   5.429   1.680 -0.8726 -0.8096  0.1378
 2163TIP3    H2 6454   6.288   5.423   1.588 -0.4579 -1.1040  0.6934
 2164TIP3   OH2 6455   0.321   3.283   3.289 -0.1753  0.8127 -0.1708
 2164TIP3    H1 6456   0.240   3.272   3.340 -0.0485 -0.2501 -0.1792
 2164TIP3    H2 6457   0.294   3.266   3.199  0.3652 -1.1550  0.0156
 2165TIP3   OH2 6458   3.336   4.609   1.777  0.6941 -0.1999 -0.0320
 2165TIP3    H1 6459   3.421   4.651   1.769  0.1651  0.6790 -1.2714
 2165TIP3    H2 6460   3.313   4.618   1.870  2.0401 -0.6730  0.3685
 2166TIP3   OH2 6461   5.562   6.140   3.942 -0.3180 -0.1848 -0.2543
 2166TIP3    H1 6462   5.588   6.169   3.854 -0.8725 -0.5182 -0.5368
 2166TIP3    H2 6463   5.523   6.217   3.982  1.4865  0.4669  0.3589
 2167TIP3   OH2 6464   1.454   4.533   2.478  0.4712  0.1042 -0.1014
 2167TIP3    H1 6465   1.481   4.494   2.561 -1.4032 -0.2733  0.3704
 2167TIP3    H2 6466   1.410   4.615   2.502 -1.9406 -0.9925 -0.4862
 2168TIP3   OH2 6467   2.560   6.137   1.788  0.0622  0.0609  0.1073
 2168TIP3    H1 6468   2.555   6.102   1.877  0.5752  0.2669  0.2219
 2168TIP3    H2 6469   2.647   6.113   1.758 -0.0551  0.1269 -0.2822
 2169TIP3   OH2 6470   4.955   6.764   4.031  0.1809 -0.5913  0.3675
 2169TIP3    H1 6471   4.999   6.680   4.038  0.5545 -0.3258  1.4966
 2169TIP3    H2 6472   4.978   6.810   4.112 -0.0064  0.5981 -0.2218
 2170TIP3   OH2 6473   2.131   2.111   5.445 -0.5216  0.3754 -0.0320
 2170TIP3    H1 6474   2.156   2.114   5.537 -1.7892  0.4670  0.3314
 2170TIP3    H2 6475   2.053   2.167   5.440  0.8265  2.2421 -1.6016
 2171TIP3   OH2 6476   1.002   2.524   4.097  0.5214  0.2781  0.0622
 2171TIP3    H1 6477   0.944   2.522   4.173  0.8017 -1.1728  0.2791
 2171TIP3    H2 6478   1.018   2.617   4.081 -0.9454  0.6732  0.6899
 2172TIP3   OH2 6479   6.811   4.943   4.754  0.9680  0.4892 -0.2197
 2172TIP3    H1 6480   6.898   4.903   4.767 -0.3102 -2.0488  1.3696
 2172TIP3    H2 6481   6.771   4.889   4.686  0.3012  1.0695 -0.2883
 2173TIP3   OH2 6482   6.423   0.504   2.431 -0.1633 -0.0833  0.0758
 2173TIP3    H1 6483   6.408   0.444   2.504 -0.3140  2.0917  1.9497
 2173TIP3    H2 6484   6.470   0.451   2.366 -0.1653 -2.1669  1.6576
 2174TIP3   OH2 6485   2.649   6.344   1.423 -0.5046  0.2043  0.2398
 2174TIP3    H1 6486   2.686   6.362   1.509 -1.5795  0.9570  0.5729
 2174TIP3    H2 6487   2.713   6.379   1.361  0.3442 -0.4748  0.7174
 2175TIP3   OH2 6488   3.110   3.827   0.258 -0.7635 -0.2404 -0.1145
 2175TIP3    H1 6489   3.131   3.734   0.259  1.2582  0.1317  1.9237
 2175TIP3    H2 6490   3.089   3.848   0.350 -1.1842  1.3096 -0.5302
 2176TIP3   OH2 6491   1.440   4.187   5.395  0.1255 -0.3221  0.1723
 2176TIP3    H1 6492   1.510   4.232   5.442  0.4156 -0.0709 -0.4850
 2176TIP3    H2 6493   1.481   4.155   5.315 -0.5201 -0.1173 -0.2530
 2177TIP3   OH2 6494   4.360   3.341   1.366  0.4242  0.3378  0.0888
 2177TIP3    H1 6495   4.311   3.344   1.448 -0.0268 -1.7897 -0.0358
 2177TIP3    H2 6496   4.406   3.257   1.369  3.0135  1.6281 -0.4332
 2178TIP3   OH2 6497   2.195   0.635   1.058 -0.2035  0.1673 -0.3766
 2178TIP3    H1 6498   2.113   0.622   1.011 -1.2769  0.1831  1.4115
 2178TIP3    H2 6499   2.207   0.555   1.108 -0.6708  1.2769  1.6019
 2179TIP3   OH2 6500   4.531   3.969   2.570  0.0751  0.5616  0.3561
 2179TIP3    H1 6501   4.454   3.956   2.515  0.2152 -0.6079  0.4234
 2179TIP3    H2 6502   4.536   4.064   2.581  0.0227  0.8401 -1.6062
 2180TIP3   OH2 6503   6.220   5.280   3.358 -0.3337 -0.1104 -0.3259
 2180TIP3    H1 6504   6.135   5.308   3.392 -0.4281 -1.0307  0.2411
 2180TIP3    H2 6505   6.284   5.328   3.410 -0.5001 -0.0260 -0.1992
 2181TIP3   OH2 6506   2.099   5.327   1.422  0.4978 -0.2991  0.3733
 2181TIP3    H1 6507   2.188   5.351   1.395  1.7450 -0.7030  3.6582
 2181TIP3    H2 6508   2.103   5.232   1.436 -0.2966 -0.2412  1.0488
 2182TIP3   OH2 6509   3.036   6.175   2.626  0.1527  0.2828 -0.0165
 2182TIP3    H1 6510   3.117   6.195   2.581  0.1558 -1.5917 -0.9650
 2182TIP3    H2 6511   3.063   6.147   2.714  0.5527 -0.3501 -0.3352
 2183TIP3   OH2 6512   3.345   0.905   3.775 -0.5908 -0.4274  0.5582
 2183TIP3    H1 6513   3.274   0.908   3.839 -1.2587  1.1879 -0.1932
 2183TIP3    H2 6514   3.418   0.865   3.822 -1.6466 -1.0692  1.7061
 2184TIP3   OH2 6515   1.318   5.039   2.231 -0.2560  0.8619  0.1593
 2184TIP3    H1 6516   1.398   5.025   2.180 -0.2812  2.8159 -0.5179
 2184TIP3    H2 6517   1.251   5.061   2.166 -0.7386  1.6057  0.8798
 2185TIP3   OH2 6518   1.963   2.593   3.151  0.0148  0.1868 -0.1760
 2185TIP3    H1 6519   1.883   2.641   3.173  0.1522 -0.5658  2.3117
 2185TIP3    H2 6520   1.938   2.501   3.160  0.3928 -0.1802 -2.4489
 2186TIP3   OH2 6521   3.967   5.785   4.045 -0.3075  0.0698 -0.6803
 2186TIP3    H1 6522   3.879   5.770   4.079  0.1766  0.6223  0.8866
 2186TIP3    H2 6523   3.974   5.725   3.970 -1.0435 -1.9960  0.8145
 2187TIP3   OH2 6524   4.702   4.703   1.637  0.1879 -0.4129  0.7358
 2187TIP3    H1 6525   4.673   4.624   1.591  0.4739  0.2077 -0.5704
 2187TIP3    H2 6526   4.715   4.767   1.567 -0.9411  1.0958  1.8610
 2188TIP3   OH2 6527   0.402   2.764   1.652  0.1084 -0.2886  0.6070
 2188TIP3    H1 6528   0.356   2.746   1.734 -2.4711  0.4524 -0.5950
 2188TIP3    H2 6529   0.381   2.689   1.596  1.2776 -0.4451  0.3527
 2189TIP3   OH2 6530   0.318   6.372   1.529 -0.5515 -0.0454 -0.4956
 2189TIP3    H1 6531   0.360   6.456   1.544 -1.7714  0.4741  0.1630
 2189TIP3    H2 6532   0.390   6.311   1.516  0.3751  0.9330 -0.0843
 2190TIP3   OH2 6533   4.780   5.099   3.471 -0.0367 -0.4915 -0.9426
 2190TIP3    H1 6534   4.859   5.054   3.443  0.8498 -0.1315  0.8539
 2190TIP3    H2 6535   4.811   5.175   3.520 -1.4959  0.1349 -0.9310
 2191TIP3   OH2 6536   2.230   1.830   1.515 -0.1492 -0.8183  0.2678
 2191TIP3    H1 6537   2.209   1.916   1.553 -0.1399 -0.2708 -0.9221
 2191TIP3    H2 6538   2.324   1.833   1.498 -0.4238 -0.3248 -1.4476
 2192TIP3   OH2 6539   2.025   2.093   3.789  0.5426 -0.6954 -0.8853
 2192TIP3    H1 6540   2.019   2.000   3.768  0.4299 -0.5088 -1.7030
 2192TIP3    H2 6541   2.065   2.133   3.711 -1.2417  0.2317 -1.3787
 2193TIP3   OH2 6542   0.615   4.959   2.184 -0.1428  0.1335  0.2301
 2193TIP3    H1 6543   0.700   4.987   2.217 -0.2236 -1.2805  1.8101
 2193TIP3    H2 6544   0.575   5.038   2.147  1.1701  1.1692  0.9666
 2194TIP3   OH2 6545   1.167   4.984   2.436  0.2276 -0.5785  0.0447
 2194TIP3    H1 6546   1.237   5.012   2.377  0.9492  1.3073  1.6999
 2194TIP3    H2 6547   1.098   5.049   2.424  0.4584 -0.0754  1.3975
 2195TIP3   OH2 6548   1.836   4.972   5.409 -0.1859 -0.0990  0.1794
 2195TIP3    H1 6549   1.882   4.888   5.416 -0.2352 -0.0822  0.6899
 2195TIP3    H2 6550   1.820   4.998   5.499 -0.7913  0.1213  0.0081
 2196TIP3   OH2 6551   0.461   5.947   5.033  0.4584  0.3828 -0.3618
 2196TIP3    H1 6552   0.449   5.909   4.946  2.4072 -0.7250 -0.1990
 2196TIP3    H2 6553   0.389   6.009   5.042 -1.2060 -1.2164 -1.7841
 2197TIP3   OH2 6554   3.471   1.502   4.443  0.3115  0.4804 -0.0477
 2197TIP3    H1 6555   3.534   1.432   4.460 -0.1153  0.1321  0.1376
 2197TIP3    H2 6556   3.521   1.570   4.400  0.9551  0.4689  0.6614
 2198TIP3   OH2 6557   6.355   4.305   2.336 -0.3099  0.4195 -0.0070
 2198TIP3    H1 6558   6.334   4.228   2.284  1.3055 -0.7093  0.9125
 2198TIP3    H2 6559   6.450   4.316   2.325 -0.3622  1.7205  0.6238
 2199TIP3   OH2 6560   1.729   2.704   2.504  0.0902 -0.5088 -0.1697
 2199TIP3    H1 6561   1.759   2.687   2.593 -0.1494  2.8922  0.7000
 2199TIP3    H2 6562   1.807   2.697   2.450  0.3668 -1.9185  0.3542
 2200TIP3   OH2 6563   0.389   2.528   4.004  0.1980 -0.4906  0.8765
 2200TIP3    H1 6564   0.432   2.594   3.949  1.8494 -0.4794  2.0974
 2200TIP3    H2 6565   0.298   2.529   3.976  0.1241  2.4114  0.9358
 2201TIP3   OH2 6566   1.490   3.946   1.814 -0.0178  0.1653 -0.0223
 2201TIP3    H1 6567   1.471   3.875   1.876  0.8738  0.8650  1.1040
 2201TIP3    H2 6568   1.504   4.023   1.869 -0.0637  1.0234 -1.1658
 2202TIP3   OH2 6569   6.536   4.827   2.588 -0.1576 -0.4038 -0.7276
 2202TIP3    H1 6570   6.630   4.825   2.573  0.6499  2.5108  2.6912
 2202TIP3    H2 6571   6.505   4.905   2.540 -0.6679 -0.7204 -0.9303
 2203TIP3   OH2 6572   0.917   2.779   4.594  0.0003 -0.8267 -0.1867
 2203TIP3    H1 6573   0.943   2.712   4.657 -0.3983 -2.8927 -2.0798
 2203TIP3    H2 6574   0.844   2.825   4.637  1.2054 -0.6006  1.7264
 2204TIP3   OH2 6575   6.640   0.749   4.429 -0.3947 -0.2124  0.2070
 2204TIP3    H1 6576   6.659   0.780   4.517  2.4653 -0.2724 -0.2666
 2204TIP3    H2 6577   6.716   0.694   4.406 -1.5730 -1.1085 -1.8832
 2205TIP3   OH2 6578   4.686   4.969   4.488 -0.2708 -0.3873  0.4092
 2205TIP3    H1 6579   4.748   4.915   4.536 -1.7126 -2.3218  0.2251
 2205TIP3    H2 6580   4.649   5.028   4.554 -0.7714 -1.6399  1.2831
 2206TIP3   OH2 6581   0.558   2.229   4.371  0.6487 -0.0590  0.6697
 2206TIP3    H1 6582   0.571   2.173   4.448 -0.1311 -1.5136 -0.2320
 2206TIP3    H2 6583   0.635   2.212   4.317  1.0657  0.7687  0.9828
 2207TIP3   OH2 6584   6.793   2.834   1.571  0.2991  0.0855  0.4878
 2207TIP3    H1 6585   6.701   2.816   1.592  0.1960  0.0477  0.0192
 2207TIP3    H2 6586   6.823   2.890   1.642 -0.1380  0.2482  0.5496
 2208TIP3   OH2 6587   5.721   4.689   1.583 -0.2034  0.0073  0.3382
 2208TIP3    H1 6588   5.642   4.723   1.541  0.6847  0.7353 -0.8014
 2208TIP3    H2 6589   5.793   4.721   1.529  0.8255 -1.6658  0.6426
 2209TIP3   OH2 6590   0.706   6.480   1.644  0.7535  0.3266 -0.0577
 2209TIP3    H1 6591   0.790   6.437   1.631  0.7742  0.0689  0.8123
 2209TIP3    H2 6592   0.647   6.436   1.583  1.1015  0.0475 -0.1965
 2210TIP3   OH2 6593   0.108   3.055   1.458  0.3380 -0.3582 -0.6085
 2210TIP3    H1 6594   0.124   3.017   1.372 -0.8220 -2.8479  0.2129
 2210TIP3    H2 6595   0.015   3.076   1.459  0.1697 -1.0918  0.3043
 2211TIP3   OH2 6596   6.445   3.452   2.424 -0.0259 -0.2887 -0.2207
 2211TIP3    H1 6597   6.380   3.485   2.363 -2.5573 -0.6365  2.1124
 2211TIP3    H2 6598   6.439   3.357   2.417  0.3347 -0.3241 -0.0898
 2212TIP3   OH2 6599   1.101   4.539   4.910 -0.1902 -0.4678 -0.5883
 2212TIP3    H1 6600   1.186   4.562   4.949  0.2032 -0.6545 -1.3098
 2212TIP3    H2 6601   1.122   4.515   4.820 -1.3583  2.5035 -1.7900
 2213TIP3   OH2 6602   4.443   4.539   2.311  0.0818  0.4725 -0.4633
 2213TIP3    H1 6603   4.487   4.543   2.226 -0.2440  0.3853 -0.6369
 2213TIP3    H2 6604   4.431   4.445   2.326 -1.1881  0.5236 -1.0143
 2214TIP3   OH2 6605   4.846   5.365   0.338 -0.2925  0.2991  0.0801
 2214TIP3    H1 6606   4.848   5.459   0.320 -0.4895  0.3419  0.2783
 2214TIP3    H2 6607   4.769   5.352   0.393 -0.8070 -0.1289 -0.7270
 2215TIP3   OH2 6608   4.779   4.854   1.913  0.4405 -0.1608 -0.0899
 2215TIP3    H1 6609   4.683   4.846   1.907  0.3444  0.3831  0.5366
 2215TIP3    H2 6610   4.812   4.773   1.875 -0.2674 -0.2934 -0.4536
 2216TIP3   OH2 6611   6.258   2.394   4.417 -0.0719  0.1092 -0.5576
 2216TIP3    H1 6612   6.345   2.419   4.386 -0.5034  2.0025 -0.3759
 2216TIP3    H2 6613   6.218   2.349   4.343  0.6716  0.1937 -1.0192
 2217TIP3   OH2 6614   2.145   5.670   0.565 -0.2724  0.3026 -0.0162
 2217TIP3    H1 6615   2.155   5.676   0.660 -0.8386 -0.6486  0.1046
 2217TIP3    H2 6616   2.193   5.746   0.532  0.1762  0.4821  1.0102
 2218TIP3   OH2 6617   1.917   5.355   0.117 -0.0142  0.0074 -0.1760
 2218TIP3    H1 6618   1.932   5.371   0.024  1.0664  1.5189  0.2068
 2218TIP3    H2 6619   1.997   5.386   0.160 -1.4012  1.6194  1.4426
 2219TIP3   OH2 6620   2.615   4.358   2.462 -0.3916 -0.5283  0.2579
 2219TIP3    H1 6621   2.579   4.425   2.520 -0.6705  0.2868 -0.8194
 2219TIP3    H2 6622   2.541   4.303   2.439  0.0518 -1.9826  2.0866
 2220TIP3   OH2 6623   3.600   3.080   1.595  0.1328  0.3045 -0.4174
 2220TIP3    H1 6624   3.681   3.037   1.567  0.4426  1.7454 -1.8863
 2220TIP3    H2 6625   3.568   3.124   1.517 -1.4902  0.6998  0.4228
 2221TIP3   OH2 6626   1.405   3.695   1.245 -0.2079  0.9077 -0.3891
 2221TIP3    H1 6627   1.312   3.709   1.230 -0.1972 -0.1002 -1.5689
 2221TIP3    H2 6628   1.446   3.709   1.159  0.9002  2.5480  0.3599
 2222TIP3   OH2 6629   5.484   5.935   5.599  0.1560 -0.0655 -0.3610
 2222TIP3    H1 6630   5.424   5.872   5.640 -2.3724  1.1016 -2.0246
 2222TIP3    H2 6631   5.469   6.016   5.648  0.4941  0.2085 -0.7159
 2223TIP3   OH2 6632   5.667   0.113   1.128  0.4946 -0.2333  0.0764
 2223TIP3    H1 6633   5.650   0.122   1.222 -1.3960  2.9934 -0.4216
 2223TIP3    H2 6634   5.581   0.100   1.089  1.2924 -1.9475 -1.2628
 2224TIP3   OH2 6635   6.308   4.788   5.207 -0.0300 -0.2188 -0.3349
 2224TIP3    H1 6636   6.227   4.838   5.203  0.1836  0.2014  0.3928
 2224TIP3    H2 6637   6.280   4.697   5.214 -0.4314 -0.0858 -0.2122
 2225TIP3   OH2 6638   6.061   0.391   5.826  0.0808  0.4949 -0.5223
 2225TIP3    H1 6639   6.155   0.373   5.829  0.2153  1.1339 -0.7271
 2225TIP3    H2 6640   6.052   0.478   5.863 -0.4020  0.5525 -0.7635
 2226TIP3   OH2 6641   3.165   4.961   2.462 -0.2611 -0.3054  0.2771
 2226TIP3    H1 6642   3.177   4.994   2.373 -0.6266  0.4357  0.4898
 2226TIP3    H2 6643   3.252   4.966   2.501 -0.2938  0.3794  0.2841
 2227TIP3   OH2 6644   2.336   6.183   0.951 -0.6950 -0.3864  0.3515
 2227TIP3    H1 6645   2.280   6.183   1.029 -1.5885  2.2957 -0.1860
 2227TIP3    H2 6646   2.319   6.099   0.909 -1.2835 -1.2750  2.2884
 2228TIP3   OH2 6647   6.719   6.032   3.882  0.2298 -0.9151  0.3320
 2228TIP3    H1 6648   6.671   5.956   3.849 -3.0347  0.2236  1.9622
 2228TIP3    H2 6649   6.722   6.092   3.807 -0.4899 -1.2341  0.0309
 2229TIP3   OH2 6650   6.210   1.561   5.575  0.1351  0.3129 -0.3098
 2229TIP3    H1 6651   6.236   1.501   5.646 -1.0073 -0.2631 -0.3625
 2229TIP3    H2 6652   6.130   1.523   5.539 -1.1764  2.3579  0.2802
 2230TIP3   OH2 6653   2.080   6.182   2.789 -0.3176 -0.1485 -0.0644
 2230TIP3    H1 6654   2.075   6.269   2.829  1.2921  0.0364 -0.1875
 2230TIP3    H2 6655   2.005   6.178   2.731 -0.5021  1.1179  0.0569
 2231TIP3   OH2 6656   5.904   2.965   1.771  0.0183  0.0328 -0.4579
 2231TIP3    H1 6657   5.853   2.907   1.827 -1.6610  1.1396 -0.7684
 2231TIP3    H2 6658   5.957   3.017   1.831  1.5221 -1.7222 -0.1728
 2232TIP3   OH2 6659   0.064   6.192   1.311 -0.0654 -0.1090  0.0626
 2232TIP3    H1 6660   0.087   6.100   1.323  2.2646  0.4761  0.6279
 2232TIP3    H2 6661   0.025   6.196   1.223  2.6944 -1.2000 -1.3253
 2233TIP3   OH2 6662   3.198   6.675   1.760 -0.4964  0.0909  0.2124
 2233TIP3    H1 6663   3.249   6.637   1.831  1.0393 -1.5157 -1.6382
 2233TIP3    H2 6664   3.253   6.745   1.725 -0.7419  0.1440 -0.0754
 2234TIP3   OH2 6665   0.697   3.974   0.049  0.1494  0.1730 -0.0802
 2234TIP3    H1 6666   0.674   3.918  -0.025 -0.2290 -2.0601  1.6294
 2234TIP3    H2 6667   0.647   4.054   0.034 -0.1231 -0.3064 -2.0848
 2235TIP3   OH2 6668   5.719   3.083   4.565 -0.6865 -0.3912  0.1963
 2235TIP3    H1 6669   5.719   3.159   4.623 -0.2118  0.8000 -1.2931
 2235TIP3    H2 6670   5.798   3.034   4.588  0.2873  0.8540 -0.3956
 2236TIP3   OH2 6671   6.067   1.169   2.308 -0.3966  0.2813  0.0566
 2236TIP3    H1 6672   6.046   1.158   2.216 -0.3417 -1.0138  0.1730
 2236TIP3    H2 6673   5.982   1.177   2.351 -0.5846 -1.6407  0.1476
 2237TIP3   OH2 6674   6.630   1.773   2.110 -0.2445 -0.2417 -0.0549
 2237TIP3    H1 6675   6.610   1.867   2.114 -0.9003 -0.3812  0.1362
 2237TIP3    H2 6676   6.690   1.758   2.183  0.6111  0.1934 -0.6481
 2238TIP3   OH2 6677   0.287   5.727   0.176  0.5319  0.0234  0.3140
 2238TIP3    H1 6678   0.198   5.748   0.206  0.4058  0.0363 -0.0658
 2238TIP3    H2 6679   0.343   5.749   0.251  0.4311  1.9905 -0.1451
 2239TIP3   OH2 6680   0.857   4.017   2.846  0.1538  0.3876 -0.1142
 2239TIP3    H1 6681   0.881   4.008   2.939 -2.1894  0.0187  0.5343
 2239TIP3    H2 6682   0.870   3.930   2.810 -0.7665  0.0158  0.3988
 2240TIP3   OH2 6683   1.961   2.732   2.345 -0.3428 -0.0808 -0.2006
 2240TIP3    H1 6684   1.943   2.815   2.390  0.0432 -1.0731  1.9293
 2240TIP3    H2 6685   2.042   2.749   2.295 -1.9626  1.6976 -2.4411
 2241TIP3   OH2 6686   1.768   3.126   3.087 -0.0402  0.4314  0.2272
 2241TIP3    H1 6687   1.825   3.198   3.059 -0.5965 -0.0573 -2.4108
 2241TIP3    H2 6688   1.681   3.165   3.093 -0.2423  0.1268 -0.6315
 2242TIP3   OH2 6689   3.958   4.060   5.844  0.7186 -0.5329  0.3732
 2242TIP3    H1 6690   3.945   4.103   5.760 -0.8369 -0.5429  0.5870
 2242TIP3    H2 6691   3.909   3.978   5.838 -0.3803 -0.0154  1.6654
 2243TIP3   OH2 6692   4.297   2.838   5.502  0.8142 -0.6096 -0.7267
 2243TIP3    H1 6693   4.368   2.821   5.563  1.2572  1.8415 -0.4509
 2243TIP3    H2 6694   4.341   2.868   5.422  0.1625  1.1697 -0.4717
 2244TIP3   OH2 6695   1.726   6.361   2.110 -0.2646  0.1127 -0.2424
 2244TIP3    H1 6696   1.702   6.358   2.017 -0.5608  1.6374 -0.2443
 2244TIP3    H2 6697   1.724   6.270   2.138  1.4198 -0.5651 -2.1124
 2245TIP3   OH2 6698   0.431   0.739   3.989 -0.3421 -0.0040 -0.3340
 2245TIP3    H1 6699   0.344   0.700   3.984  0.7299 -2.4558 -2.6316
 2245TIP3    H2 6700   0.416   0.829   4.018 -3.5653 -0.4454 -0.2841
 2246TIP3   OH2 6701   0.600   2.377   4.044  0.2123 -0.5529 -0.0353
 2246TIP3    H1 6702   0.514   2.419   4.037  0.1776 -0.7789 -1.1153
 2246TIP3    H2 6703   0.650   2.435   4.101 -0.3797  0.0438 -0.1072
 2247TIP3   OH2 6704   1.098   0.890   1.033 -0.4218  0.3520 -0.0267
 2247TIP3    H1 6705   1.143   0.876   1.117 -0.9966  0.9428  0.3894
 2247TIP3    H2 6706   1.008   0.912   1.057 -1.4369 -2.4468 -0.9009
 2248TIP3   OH2 6707   0.458   2.421   2.752  0.3970 -0.4370  0.2180
 2248TIP3    H1 6708   0.551   2.401   2.742  0.4604 -0.1409  0.2161
 2248TIP3    H2 6709   0.413   2.343   2.718  0.6561 -1.3021  1.7916
 2249TIP3   OH2 6710   4.867   2.207   4.017  0.8150 -0.0952  0.4459
 2249TIP3    H1 6711   4.908   2.201   4.103  2.8572  0.9345 -0.3852
 2249TIP3    H2 6712   4.907   2.284   3.976 -0.6533 -0.1078 -1.1538
 2250TIP3   OH2 6713   0.427   0.496   3.663  0.0650  0.5188 -0.4779
 2250TIP3    H1 6714   0.498   0.463   3.718  0.0402  0.0236 -0.7337
 2250TIP3    H2 6715   0.363   0.424   3.662  0.8730 -0.2465 -2.6337
 2251TIP3   OH2 6716   3.127   1.661   3.612 -0.3325  0.2380 -0.2801
 2251TIP3    H1 6717   3.104   1.645   3.704  0.1283  1.4903  0.0837
 2251TIP3    H2 6718   3.221   1.648   3.608 -0.3015  0.5203 -0.4906
 2252TIP3   OH2 6719   3.196   4.676   0.330 -0.2712 -0.4958 -0.1225
 2252TIP3    H1 6720   3.234   4.761   0.307 -0.1515 -0.5973 -0.3003
 2252TIP3    H2 6721   3.109   4.675   0.291 -1.3015  0.5639  1.9638
 2253TIP3   OH2 6722   3.231   4.533   2.713  0.3927  0.8051 -0.1507
 2253TIP3    H1 6723   3.183   4.508   2.634  0.6649 -1.0163  0.2097
 2253TIP3    H2 6724   3.164   4.571   2.771 -0.3617 -0.3821 -0.2064
 2254TIP3   OH2 6725   5.934   4.480   1.582  0.6717  0.1960 -0.0581
 2254TIP3    H1 6726   5.938   4.506   1.674 -0.1868 -0.9566  0.3385
 2254TIP3    H2 6727   5.854   4.522   1.549 -1.7493 -3.0327  1.0580
 2255TIP3   OH2 6728   3.381   3.019   5.080 -0.3368 -0.1395  0.2902
 2255TIP3    H1 6729   3.314   3.072   5.039 -0.3458  0.3030  0.8683
 2255TIP3    H2 6730   3.334   2.943   5.115 -0.5983  0.3339  0.9898
 2256TIP3   OH2 6731   0.207   4.032   1.911 -0.1531 -0.4802 -0.4559
 2256TIP3    H1 6732   0.234   3.941   1.904  0.6451 -0.1612 -1.8161
 2256TIP3    H2 6733   0.252   4.076   1.839 -2.6284  0.4853 -1.5299
 2257TIP3   OH2 6734   1.192   4.396   4.626 -0.3123  0.4756 -0.2117
 2257TIP3    H1 6735   1.117   4.345   4.593  0.3186 -0.2008 -0.6404
 2257TIP3    H2 6736   1.243   4.333   4.677  0.5835  0.6162 -0.9082
 2258TIP3   OH2 6737   7.153   0.805   5.110 -0.4500  0.7730 -0.4927
 2258TIP3    H1 6738   7.154   0.722   5.062 -1.3666  0.6545 -0.3343
 2258TIP3    H2 6739   7.180   0.782   5.199 -2.6684  0.2387  0.1066
 2259TIP3   OH2 6740   4.878   1.216   3.447  1.2376 -0.5170  0.7448
 2259TIP3    H1 6741   4.925   1.190   3.368 -1.5889 -1.0953 -0.8957
 2259TIP3    H2 6742   4.797   1.166   3.445 -0.2400  1.5712  2.4935
 2260TIP3   OH2 6743   1.507   1.375   2.055 -0.3030 -0.1206 -0.2067
 2260TIP3    H1 6744   1.587   1.350   2.009 -0.5809 -0.5900 -0.4401
 2260TIP3    H2 6745   1.443   1.390   1.986 -0.5888 -0.3538  0.0059
 2261TIP3   OH2 6746   4.628   2.461   1.580  0.3384 -0.6387  0.1240
 2261TIP3    H1 6747   4.546   2.436   1.624  0.9386  0.4330  1.9935
 2261TIP3    H2 6748   4.694   2.402   1.617  0.9089  0.4753  0.9482
 2262TIP3   OH2 6749   1.550   2.171   5.706 -0.1304 -0.3239 -0.0939
 2262TIP3    H1 6750   1.601   2.247   5.734  2.9976 -1.3156 -2.5277
 2262TIP3    H2 6751   1.574   2.102   5.768 -0.5794 -0.1256  0.3047
 2263TIP3   OH2 6752   5.798   4.415   0.001 -0.7134 -0.2204  0.0512
 2263TIP3    H1 6753   5.769   4.458   0.081  3.6560  0.3636  1.6372
 2263TIP3    H2 6754   5.781   4.480  -0.068 -1.1842  0.8563  1.1304
 2264TIP3   OH2 6755   3.209   3.753   3.560 -0.2980 -0.5634  0.1562
 2264TIP3    H1 6756   3.163   3.774   3.479 -0.4158  0.4405  0.4674
 2264TIP3    H2 6757   3.295   3.723   3.533 -0.2983 -0.1242 -0.3407
 2265TIP3   OH2 6758   7.178   5.177   5.565 -0.2606  0.6090  0.4859
 2265TIP3    H1 6759   7.272   5.188   5.548 -0.1420  0.6044  1.1091
 2265TIP3    H2 6760   7.144   5.135   5.486 -0.1039  2.3354 -0.5319
 2266TIP3   OH2 6761   5.121   6.043   1.167  0.0594 -0.4582 -0.7267
 2266TIP3    H1 6762   5.135   6.006   1.080  1.7284 -0.8808 -0.3120
 2266TIP3    H2 6763   5.116   5.967   1.225  1.0610 -0.1489 -0.2023
 2267TIP3   OH2 6764   5.205   0.627   4.632 -0.5907  0.3827 -0.0655
 2267TIP3    H1 6765   5.216   0.687   4.558  1.6476  1.7549  1.2726
 2267TIP3    H2 6766   5.185   0.684   4.706  0.5946 -0.6120  1.0492
 2268TIP3   OH2 6767   5.026   4.312   0.492  0.0896  0.2842 -0.3828
 2268TIP3    H1 6768   4.998   4.332   0.403  0.1539 -1.7972 -0.9159
 2268TIP3    H2 6769   5.000   4.389   0.543  0.5429  1.7490 -2.2587
 2269TIP3   OH2 6770   6.390   2.883   4.577  0.1271 -0.0815  0.4903
 2269TIP3    H1 6771   6.474   2.900   4.533  0.1218  0.6666  0.7459
 2269TIP3    H2 6772   6.387   2.788   4.587  0.8550 -0.1341  0.2949
 2270TIP3   OH2 6773   0.881   0.236   4.267 -0.1941  0.5119 -0.5534
 2270TIP3    H1 6774   0.853   0.266   4.181 -2.0748  0.4543 -0.0018
 2270TIP3    H2 6775   0.871   0.312   4.324  2.1590  0.8928 -0.5655
 2271TIP3   OH2 6776   6.531   2.631   3.448 -0.2948 -0.0228 -0.3445
 2271TIP3    H1 6777   6.518   2.570   3.520  0.0637 -0.7980 -0.9221
 2271TIP3    H2 6778   6.470   2.702   3.465 -0.1606 -0.1584  0.7641
 2272TIP3   OH2 6779   3.042   2.535   4.676 -0.3718 -0.6540 -0.2108
 2272TIP3    H1 6780   3.045   2.504   4.767 -1.6263 -0.2214  0.0077
 2272TIP3    H2 6781   3.125   2.507   4.638 -0.2424 -1.7052  0.7904
 2273TIP3   OH2 6782   6.821   6.239   4.851  0.1647  0.0693  0.4470
 2273TIP3    H1 6783   6.731   6.269   4.861  0.2127  1.5029 -2.3439
 2273TIP3    H2 6784   6.834   6.177   4.923 -2.5934  0.7853  1.7012
 2274TIP3   OH2 6785   0.512   2.709   0.562 -0.5011 -0.0900 -0.2491
 2274TIP3    H1 6786   0.452   2.781   0.581  0.1668  0.5638 -0.5612
 2274TIP3    H2 6787   0.573   2.745   0.498  0.6037 -0.5307  0.5235
 2275TIP3   OH2 6788   2.674   1.169   4.034 -0.2210  0.7239 -0.5131
 2275TIP3    H1 6789   2.711   1.082   4.049 -0.6915  0.5710 -0.2175
 2275TIP3    H2 6790   2.581   1.154   4.024 -0.3896  1.2616  0.1570
 2276TIP3   OH2 6791   6.418   4.031   4.999 -0.5395  0.3429 -0.5320
 2276TIP3    H1 6792   6.361   4.101   5.032 -0.9790 -0.8369  1.3648
 2276TIP3    H2 6793   6.359   3.974   4.949 -0.5178  0.4076 -0.6329
 2277TIP3   OH2 6794   0.646   3.095   2.251 -0.7390  0.4109 -0.2954
 2277TIP3    H1 6795   0.552   3.095   2.236 -0.7457  1.4324 -0.3182
 2277TIP3    H2 6796   0.667   3.186   2.273  0.4626  0.5171 -1.6927
 2278TIP3   OH2 6797   2.121   5.586   0.836  0.1580 -0.7677 -0.0353
 2278TIP3    H1 6798   2.153   5.613   0.922  0.0337 -0.2358 -0.1523
 2278TIP3    H2 6799   2.026   5.584   0.846 -0.1714  2.6487 -1.0506
 2279TIP3   OH2 6800   3.448   4.291   2.081 -0.0832  0.0930 -0.5530
 2279TIP3    H1 6801   3.496   4.233   2.139 -0.9203 -0.1045 -0.0424
 2279TIP3    H2 6802   3.459   4.378   2.119 -1.1574 -0.1162  0.2957
 2280TIP3   OH2 6803   4.040   0.853   0.716 -0.1445 -0.0581 -0.3735
 2280TIP3    H1 6804   4.041   0.757   0.713  2.4807 -0.3103  2.6158
 2280TIP3    H2 6805   3.960   0.875   0.762 -0.5971 -0.8352 -0.7659
 2281TIP3   OH2 6806   4.535   3.295   3.488 -0.4539  0.0386  0.0183
 2281TIP3    H1 6807   4.512   3.202   3.484  0.9616 -0.2974 -0.8825
 2281TIP3    H2 6808   4.576   3.305   3.574 -2.1310  0.2321  0.8332
 2282TIP3   OH2 6809   0.724   6.285   5.078 -0.0812  0.2654  0.0966
 2282TIP3    H1 6810   0.736   6.303   5.171 -1.4597  0.1811  0.3187
 2282TIP3    H2 6811   0.781   6.210   5.060  0.8139  0.7960  0.6714
 2283TIP3   OH2 6812   1.127   2.011   4.303  0.0406 -0.3116 -0.3739
 2283TIP3    H1 6813   1.053   2.008   4.363 -0.4586 -2.1536 -1.0080
 2283TIP3    H2 6814   1.147   2.104   4.294 -1.7055  0.1786  0.3883
 2284TIP3   OH2 6815   0.650   5.264   5.816 -0.3448 -0.2130 -0.3976
 2284TIP3    H1 6816   0.611   5.316   5.886  0.7219  0.5991 -0.3854
 2284TIP3    H2 6817   0.606   5.292   5.736 -0.3039  0.1569 -0.2882
 2285TIP3   OH2 6818   5.426   2.555   2.077 -0.4388  0.3009  0.7961
 2285TIP3    H1 6819   5.462   2.539   1.990 -0.2837 -0.8179  1.0531
 2285TIP3    H2 6820   5.365   2.628   2.065 -1.6381 -0.8792 -0.5680
 2286TIP3   OH2 6821   6.452   4.419   1.869  0.1371  0.0433  0.1005
 2286TIP3    H1 6822   6.505   4.475   1.813 -0.2981  0.9956  0.6136
 2286TIP3    H2 6823   6.394   4.480   1.915 -1.0342 -0.9176 -0.0606
 2287TIP3   OH2 6824   6.620   4.965   1.697  0.0789 -0.3384 -0.4540
 2287TIP3    H1 6825   6.565   4.950   1.774  0.0987 -0.5550 -0.4811
 2287TIP3    H2 6826   6.636   5.059   1.697 -1.6117 -0.0114 -1.3542
 2288TIP3   OH2 6827   1.163   1.806   3.861 -0.2395 -0.1954  0.2095
 2288TIP3    H1 6828   1.192   1.830   3.949 -0.6159  0.9446  0.0449
 2288TIP3    H2 6829   1.086   1.860   3.846  1.3630  1.6965 -1.8607
 2289TIP3   OH2 6830   1.739   6.487   0.501 -0.1760  0.0019 -0.8946
 2289TIP3    H1 6831   1.715   6.532   0.419  1.1305  0.9281 -0.8036
 2289TIP3    H2 6832   1.797   6.549   0.545  0.2990 -1.1012  0.0501
 2290TIP3   OH2 6833   5.443   4.869   2.173 -0.2303 -0.9711 -0.5025
 2290TIP3    H1 6834   5.521   4.839   2.220  0.7502  0.2086 -1.2849
 2290TIP3    H2 6835   5.458   4.842   2.082 -0.1472  0.2906 -0.8832
 2291TIP3   OH2 6836   2.342   3.842   2.452  0.0415 -0.0955  0.0929
 2291TIP3    H1 6837   2.394   3.868   2.528 -1.5136 -0.0133  1.1807
 2291TIP3    H2 6838   2.302   3.924   2.421 -0.4681 -0.3389  0.0944
 2292TIP3   OH2 6839   2.712   4.431   5.370  0.3494  0.4137  0.3599
 2292TIP3    H1 6840   2.627   4.461   5.404 -0.4945 -2.4205  0.9908
 2292TIP3    H2 6841   2.710   4.336   5.381  2.2718 -0.1170 -2.6877
 2293TIP3   OH2 6842   6.183   1.590   1.339 -0.3313 -0.5971 -0.0576
 2293TIP3    H1 6843   6.264   1.544   1.317  0.6828  0.2696  1.6348
 2293TIP3    H2 6844   6.158   1.554   1.424 -1.1628 -0.1252 -0.0909
 2294TIP3   OH2 6845   0.554   0.347   5.215 -0.2381 -0.1881  0.8542
 2294TIP3    H1 6846   0.629   0.349   5.274  1.3106  0.1500 -1.0044
 2294TIP3    H2 6847   0.592   0.367   5.129 -2.1149 -2.2022 -0.5272
 2295TIP3   OH2 6848   2.003   1.977   5.810  0.0604 -0.0516 -0.1000
 2295TIP3    H1 6849   1.936   2.019   5.863  0.4654  0.2562  0.1739
 2295TIP3    H2 6850   2.069   2.045   5.795  0.6222 -0.5228  0.1789
 2296TIP3   OH2 6851   2.621   1.800   3.532  0.2068  0.0619 -0.4251
 2296TIP3    H1 6852   2.618   1.756   3.447 -2.9746  1.4302 -1.1708
 2296TIP3    H2 6853   2.713   1.824   3.543  0.9148 -1.0690 -2.9560
 2297TIP3   OH2 6854   3.441   2.471   5.155 -0.2809  0.7987  0.0680
 2297TIP3    H1 6855   3.440   2.389   5.105 -0.9471  1.1502 -0.5071
 2297TIP3    H2 6856   3.411   2.445   5.242 -1.7808  0.6378 -0.4732
 2298TIP3   OH2 6857   4.238   3.461   1.584 -0.1967 -0.1045  0.2753
 2298TIP3    H1 6858   4.175   3.414   1.638 -1.0576  0.6189 -0.0648
 2298TIP3    H2 6859   4.184   3.517   1.528  0.6992 -0.3630 -0.8782
 2299TIP3   OH2 6860   1.873   2.318   3.449 -0.0675 -0.1487  0.0624
 2299TIP3    H1 6861   1.852   2.289   3.538  0.3757 -0.3047  0.1220
 2299TIP3    H2 6862   1.880   2.413   3.455 -1.6674  0.0115 -0.1602
 2300TIP3   OH2 6863   2.812   0.801   5.358  0.0316  0.7474 -0.5968
 2300TIP3    H1 6864   2.900   0.764   5.364 -0.2954 -0.1913 -1.3534
 2300TIP3    H2 6865   2.776   0.764   5.278 -2.3840 -1.7662  1.4714
 2301TIP3   OH2 6866   6.767   1.918   0.873  0.2929 -0.0777  0.0020
 2301TIP3    H1 6867   6.720   1.902   0.954 -0.0333  1.3613  0.1225
 2301TIP3    H2 6868   6.828   1.844   0.865  0.5267 -0.0927  1.6894
 2302TIP3   OH2 6869   4.762   5.558   1.101  0.0999 -0.5763 -0.3872
 2302TIP3    H1 6870   4.717   5.536   1.182  0.8230 -0.9404 -0.0765
 2302TIP3    H2 6871   4.696   5.602   1.048 -0.0512  0.8088  0.8913
 2303TIP3   OH2 6872   4.886   3.765   1.062 -0.1565  0.6686 -0.1022
 2303TIP3    H1 6873   4.855   3.818   0.988 -0.0156  0.6168 -0.1986
 2303TIP3    H2 6874   4.832   3.686   1.060  0.4795  0.2335 -0.7275
 2304TIP3   OH2 6875   6.982   0.181   2.767 -0.0427  0.1106  0.0089
 2304TIP3    H1 6876   6.981   0.090   2.739 -2.3015  0.3169 -0.8159
 2304TIP3    H2 6877   6.943   0.180   2.854 -0.8281  0.3407 -0.3283
 2305TIP3   OH2 6878   2.025   1.767   5.329  0.0606  0.4837 -0.4462
 2305TIP3    H1 6879   2.086   1.702   5.365 -1.3200  0.1719  1.4680
 2305TIP3    H2 6880   2.079   1.822   5.273  2.2797  0.6695  1.7093
 2306TIP3   OH2 6881   4.119   2.409   4.784 -0.3097 -0.7901 -0.2821
 2306TIP3    H1 6882   4.200   2.377   4.825 -1.6570  0.1797  3.5566
 2306TIP3    H2 6883   4.054   2.341   4.803 -1.1139 -0.0683 -0.3835
 2307TIP3   OH2 6884   2.602   0.137   4.577 -0.0558  0.6315  0.1205
 2307TIP3    H1 6885   2.546   0.205   4.540 -0.2259  0.5341  0.1962
 2307TIP3    H2 6886   2.546   0.091   4.639  0.4607  1.2970  1.1018
 2308TIP3   OH2 6887   3.057   4.370   0.454 -0.5768  0.0326  0.4436
 2308TIP3    H1 6888   3.091   4.289   0.415  0.2163  0.8050 -0.5556
 2308TIP3    H2 6889   3.136   4.421   0.473 -1.0959  1.0034  0.0464
 2309TIP3   OH2 6890   3.050   1.331   5.490 -0.8037  0.0379 -0.3092
 2309TIP3    H1 6891   3.050   1.341   5.585 -0.2548  0.6727 -0.3644
 2309TIP3    H2 6892   3.042   1.237   5.475  1.1071 -0.2750  0.3971
 2310TIP3   OH2 6893   3.929   1.824   5.751 -0.3282 -0.1532  0.3648
 2310TIP3    H1 6894   3.931   1.891   5.683  1.2603  0.6622  1.1474
 2310TIP3    H2 6895   3.844   1.781   5.740 -1.0864  1.4893 -0.6235
 2311TIP3   OH2 6896   5.269   2.358   0.493  0.0304 -0.3102  0.7274
 2311TIP3    H1 6897   5.249   2.405   0.412 -0.2084  0.6057  1.3033
 2311TIP3    H2 6898   5.286   2.427   0.557  1.5323 -1.0233  1.1501
 2312TIP3   OH2 6899   4.984   6.524   4.920 -0.0556 -0.3202 -0.4200
 2312TIP3    H1 6900   5.033   6.591   4.969 -0.9105  0.0349 -0.0212
 2312TIP3    H2 6901   4.909   6.571   4.883  0.1607 -0.7487 -1.4415
 2313TIP3   OH2 6902   6.680   5.585   4.984 -0.0113 -0.5418 -0.4134
 2313TIP3    H1 6903   6.604   5.557   4.932 -0.1565 -0.0909 -0.4540
 2313TIP3    H2 6904   6.731   5.505   4.997 -0.0698 -0.6983 -1.0946
 2314TIP3   OH2 6905   5.357   2.358   4.556 -0.1938  0.0094 -0.1885
 2314TIP3    H1 6906   5.275   2.329   4.597 -0.4074  0.7713 -0.0684
 2314TIP3    H2 6907   5.415   2.378   4.630 -0.2385  0.4258 -0.2675
 2315TIP3   OH2 6908   0.261   5.272   5.364 -0.2236  0.6788 -0.1275
 2315TIP3    H1 6909   0.343   5.315   5.385  0.1604  0.4592 -1.1235
 2315TIP3    H2 6910   0.261   5.265   5.268 -2.2676  2.4259 -0.3523
 2316TIP3   OH2 6911   0.340   1.894   5.155  0.0104 -0.0259  0.5139
 2316TIP3    H1 6912   0.272   1.932   5.210 -0.5943 -0.0745 -0.1775
 2316TIP3    H2 6913   0.339   1.801   5.176 -1.2219 -0.2929 -0.5819
 2317TIP3   OH2 6914   5.969   5.940   0.392 -0.0448  0.0546 -0.1289
 2317TIP3    H1 6915   6.043   5.978   0.439  1.0399  0.5105 -2.1001
 2317TIP3    H2 6916   5.902   5.927   0.459  0.5060  2.9364  1.1347
 2318TIP3   OH2 6917   4.613   0.185   3.178  0.0081 -0.6763  0.0455
 2318TIP3    H1 6918   4.588   0.207   3.088  2.6964 -3.4573 -1.5571
 2318TIP3    H2 6919   4.555   0.112   3.200  0.1133 -0.7243  0.1555
 2319TIP3   OH2 6920   3.941   0.337   4.691 -0.6452 -0.6996  0.1770
 2319TIP3    H1 6921   3.892   0.413   4.724 -0.7681 -0.0244 -1.4943
 2319TIP3    H2 6922   3.941   0.348   4.596  1.2439 -1.6331  0.0357
 2320TIP3   OH2 6923   4.681   0.657   5.391  0.2174 -0.1329 -0.4271
 2320TIP3    H1 6924   4.672   0.686   5.300  2.2509  2.3772  0.0497
 2320TIP3    H2 6925   4.656   0.565   5.390  0.0893 -0.1489 -3.5064
 2321TIP3   OH2 6926   4.400   2.327   5.606  0.0924 -0.4007  0.0009
 2321TIP3    H1 6927   4.413   2.369   5.521 -0.3949  1.0057  0.5888
 2321TIP3    H2 6928   4.377   2.399   5.665 -0.7810 -1.5053  1.0637
 2322TIP3   OH2 6929   6.886   3.290   1.804 -0.6134  0.2851 -0.2031
 2322TIP3    H1 6930   6.948   3.221   1.783  0.0325  0.3169  1.4593
 2322TIP3    H2 6931   6.929   3.371   1.776 -1.2699  0.0772 -1.9302
 2323TIP3   OH2 6932   4.353   1.578   4.394 -0.1739 -0.4214 -0.0468
 2323TIP3    H1 6933   4.364   1.488   4.365 -1.5121  0.0846 -2.3900
 2323TIP3    H2 6934   4.432   1.623   4.364 -0.0579 -0.5575  0.0512
 2324TIP3   OH2 6935   3.408   5.729   3.541 -0.4431 -1.0713  0.0032
 2324TIP3    H1 6936   3.314   5.728   3.529 -0.2842 -0.1511 -1.5351
 2324TIP3    H2 6937   3.444   5.729   3.453  0.9265  2.0758  0.4212
 2325TIP3   OH2 6938   0.786   0.047   3.268 -0.4276 -0.9523 -0.0497
 2325TIP3    H1 6939   0.743   0.010   3.345  0.1890 -2.3788 -0.3528
 2325TIP3    H2 6940   0.878   0.023   3.279 -0.0174  0.4039 -0.3484
 2326TIP3   OH2 6941   1.871   1.665   0.747  0.4257  0.4222 -0.1804
 2326TIP3    H1 6942   1.794   1.668   0.804 -0.5287  0.0628 -1.4075
 2326TIP3    H2 6943   1.918   1.747   0.764 -0.4297  0.8139  0.3184
 2327TIP3   OH2 6944   4.130   3.608   2.873 -0.2565  0.3784 -0.0873
 2327TIP3    H1 6945   4.110   3.685   2.927  1.1662  0.8438 -0.1606
 2327TIP3    H2 6946   4.202   3.565   2.919  0.3461  0.2581 -1.0988
 2328TIP3   OH2 6947   1.099   5.306   5.279 -0.2958  0.2098 -0.5454
 2328TIP3    H1 6948   1.111   5.397   5.251 -1.2837 -0.0783 -2.0696
 2328TIP3    H2 6949   1.005   5.299   5.296 -0.0801 -0.3032  0.4716
 2329TIP3   OH2 6950   0.999   3.807   4.360 -0.2932  0.1166  0.2569
 2329TIP3    H1 6951   0.947   3.877   4.400 -1.5535 -0.0562 -0.9846
 2329TIP3    H2 6952   1.083   3.809   4.406 -0.2091  2.5983  0.1289
 2330TIP3   OH2 6953   4.362   3.253   3.820  0.2574 -0.9351 -0.1131
 2330TIP3    H1 6954   4.450   3.272   3.788  1.5238 -0.8822  3.1197
 2330TIP3    H2 6955   4.310   3.329   3.793  2.3885  1.4835  2.0458
 2331TIP3   OH2 6956   3.031   1.525   0.707 -0.3884  0.3676  0.7158
 2331TIP3    H1 6957   2.989   1.608   0.684  2.5812  1.5956 -0.7662
 2331TIP3    H2 6958   3.097   1.549   0.772  3.0992  0.0698 -2.3647
 2332TIP3   OH2 6959   0.801   4.835   1.618  0.9243  0.3467  0.0614
 2332TIP3    H1 6960   0.866   4.905   1.616 -0.4819  1.7134 -0.3827
 2332TIP3    H2 6961   0.850   4.755   1.602  2.8383  1.0015  2.1135
 2333TIP3   OH2 6962   5.433   5.174   0.919 -0.5012  0.0949  0.0135
 2333TIP3    H1 6963   5.440   5.219   1.003  1.5503  0.2411 -0.1843
 2333TIP3    H2 6964   5.517   5.130   0.908 -2.1636 -3.3927 -0.0816
 2334TIP3   OH2 6965   4.327   0.784   0.500 -0.0793 -0.2393  0.1961
 2334TIP3    H1 6966   4.381   0.718   0.543 -0.8439  0.1344  1.8438
 2334TIP3    H2 6967   4.329   0.761   0.407  1.6305 -1.1184  0.4111
 2335TIP3   OH2 6968   0.469   4.280   5.283 -0.1642  0.1906 -0.0784
 2335TIP3    H1 6969   0.523   4.262   5.206  0.8646  2.6540 -0.0317
 2335TIP3    H2 6970   0.409   4.206   5.289  0.1135 -0.3434 -2.8999
 2336TIP3   OH2 6971   5.692   2.417   2.214  0.2805  0.3240 -0.4396
 2336TIP3    H1 6972   5.717   2.509   2.200 -0.2147  0.7507  1.2575
 2336TIP3    H2 6973   5.598   2.415   2.197  0.5663 -0.2469 -2.0807
 2337TIP3   OH2 6974   3.534   6.694   1.748 -0.1939  0.3996  0.2170
 2337TIP3    H1 6975   3.494   6.612   1.719  0.5268  0.1627 -0.1441
 2337TIP3    H2 6976   3.601   6.667   1.810 -1.8744  0.9144  2.3766
 2338TIP3   OH2 6977   4.119   5.643   5.065 -0.3704  0.8799  0.1298
 2338TIP3    H1 6978   4.186   5.598   5.116 -1.2350  0.3026  0.7672
 2338TIP3    H2 6979   4.117   5.732   5.101  0.7281  1.2159 -0.5606
 2339TIP3   OH2 6980   2.129   2.729   1.089  0.0832 -0.2357 -0.0453
 2339TIP3    H1 6981   2.213   2.687   1.108 -0.0384  0.5324  2.6228
 2339TIP3    H2 6982   2.122   2.728   0.993  1.0354 -4.3129 -0.2538
 2340TIP3   OH2 6983   6.878   3.279   3.098  0.4066 -0.4683  0.0540
 2340TIP3    H1 6984   6.890   3.188   3.127  0.5350 -0.3618  0.3388
 2340TIP3    H2 6985   6.824   3.272   3.020 -0.6376 -0.6997  0.7814
 2341TIP3   OH2 6986   0.891   0.904   2.113 -0.0123  0.1560  0.2904
 2341TIP3    H1 6987   0.900   0.917   2.019 -1.8466  1.3259  0.2417
 2341TIP3    H2 6988   0.957   0.962   2.152  0.9069 -0.4985 -0.2268
 2342TIP3   OH2 6989   0.909   4.829   2.500  0.2209 -0.0389  0.7022
 2342TIP3    H1 6990   0.904   4.845   2.594 -0.4414 -0.2474  0.7044
 2342TIP3    H2 6991   0.918   4.917   2.461  0.7613  0.0274  0.9719
 2343TIP3   OH2 6992   3.068   2.354   2.562  0.0762  0.0504  0.1386
 2343TIP3    H1 6993   3.062   2.386   2.472  0.7383 -1.1182 -0.3403
 2343TIP3    H2 6994   3.030   2.267   2.560 -0.9751  0.4472  1.2596
 2344TIP3   OH2 6995   4.193   4.949   2.369  0.5070 -0.1754  0.0378
 2344TIP3    H1 6996   4.232   5.011   2.308 -0.1493  1.4215  1.1654
 2344TIP3    H2 6997   4.225   4.976   2.455 -0.1158 -1.1542  0.5963
 2345TIP3   OH2 6998   0.193   4.722   3.432 -0.0135 -0.2562  0.7335
 2345TIP3    H1 6999   0.198   4.708   3.337 -1.5895  0.8991  0.4389
 2345TIP3    H2 7000   0.121   4.665   3.460  0.0946 -0.1889  1.1436
 2346TIP3   OH2 7001   4.002   6.338   3.530 -0.0845  0.1894 -0.0168
 2346TIP3    H1 7002   3.909   6.319   3.514 -0.0782  0.2411 -0.1146
 2346TIP3    H2 7003   4.004   6.372   3.620 -0.2525  0.8334 -0.2495
 2347TIP3   OH2 7004   5.505   1.553   1.429 -0.4747  0.2960 -0.2427
 2347TIP3    H1 7005   5.550   1.485   1.379 -0.4406  0.7800 -0.8800
 2347TIP3    H2 7006   5.455   1.601   1.364  2.1573  3.0735 -0.4369
 2348TIP3   OH2 7007   1.970   3.626   1.837 -0.2083  0.0618 -0.5135
 2348TIP3    H1 7008   1.888   3.583   1.862  0.7734 -1.9353 -0.5976
 2348TIP3    H2 7009   1.955   3.655   1.746 -0.3024 -1.7533 -1.1186
 2349TIP3   OH2 7010   1.930   2.883   0.928 -0.3205 -0.3882 -0.1747
 2349TIP3    H1 7011   1.882   2.940   0.868 -0.5550 -0.7924 -0.3762
 2349TIP3    H2 7012   1.919   2.795   0.892  2.3678 -0.3040 -1.4747
 2350TIP3   OH2 7013   2.322   3.039   1.771 -0.2440 -0.1639 -0.5724
 2350TIP3    H1 7014   2.280   3.010   1.691  1.5186 -0.1092 -1.5816
 2350TIP3    H2 7015   2.370   3.118   1.745 -0.4905  0.4644  0.7933
 2351TIP3   OH2 7016   6.234   0.963   0.607 -0.1958  0.3636  0.7560
 2351TIP3    H1 7017   6.237   0.872   0.636  0.7700  0.2230  0.2405
 2351TIP3    H2 7018   6.315   0.975   0.558 -0.3541  1.4840  0.7579
 2352TIP3   OH2 7019   1.838   4.322   4.787 -0.4550  0.3640  0.2766
 2352TIP3    H1 7020   1.850   4.229   4.766 -0.2744  0.2789  0.7279
 2352TIP3    H2 7021   1.808   4.362   4.706  0.8090  0.1755 -0.2993
 2353TIP3   OH2 7022   3.062   1.815   4.406  0.2566  0.3015  0.4845
 2353TIP3    H1 7023   3.061   1.874   4.330  2.8790  1.4218  1.2005
 2353TIP3    H2 7024   3.121   1.744   4.380  2.2245  1.3622  1.8569
 2354TIP3   OH2 7025   0.618   4.732   4.117  0.0149 -0.1031  0.2781
 2354TIP3    H1 7026   0.594   4.815   4.075 -1.5517 -1.7379 -2.3601
 2354TIP3    H2 7027   0.658   4.680   4.047 -1.4548 -2.5123  1.0996
 2355TIP3   OH2 7028   0.555   0.494   2.843  0.0198 -0.3165  0.3397
 2355TIP3    H1 7029   0.595   0.425   2.789  1.0184  0.1829  0.4129
 2355TIP3    H2 7030   0.590   0.575   2.806  0.5721  0.0428  1.6255
 2356TIP3   OH2 7031   3.518   0.145   0.335  0.3972  0.2304  0.5127
 2356TIP3    H1 7032   3.522   0.196   0.254  0.7999 -1.6965 -0.7395
 2356TIP3    H2 7033   3.608   0.146   0.368  0.6581 -0.5972 -0.1391
 2357TIP3   OH2 7034   6.797   4.553   5.247  0.1607  0.3847  0.5112
 2357TIP3    H1 7035   6.837   4.467   5.257  1.1947  0.9545  1.4789
 2357TIP3    H2 7036   6.871   4.613   5.234 -0.5005  1.2217  0.4873
 2358TIP3   OH2 7037   4.988   2.538   4.300  0.3606  0.5418  0.2484
 2358TIP3    H1 7038   4.992   2.459   4.247 -0.0081  0.0019  1.0088
 2358TIP3    H2 7039   5.016   2.608   4.241 -1.2378  0.1590 -1.0413
 2359TIP3   OH2 7040   6.576   3.761   5.459 -0.2873 -0.1578 -0.1675
 2359TIP3    H1 7041   6.556   3.668   5.449  0.6076 -0.1941 -1.9215
 2359TIP3    H2 7042   6.522   3.804   5.393  0.1910  0.4391 -0.1744
 2360TIP3   OH2 7043   2.222   0.758   3.661 -0.3457  0.2593 -0.0311
 2360TIP3    H1 7044   2.303   0.736   3.707 -1.0510  1.2821  1.8128
 2360TIP3    H2 7045   2.154   0.706   3.706 -0.5504 -2.1124 -2.7894
 2361TIP3   OH2 7046   3.010   6.654   2.665  0.5343  0.3233  0.1993
 2361TIP3    H1 7047   2.944   6.589   2.643  0.1725  0.2558  1.3679
 2361TIP3    H2 7048   3.073   6.607   2.720  1.6434  0.3544 -1.0143
 2362TIP3   OH2 7049   1.757   2.864   2.992 -0.4623  0.2042  0.5422
 2362TIP3    H1 7050   1.680   2.869   2.935  0.2553  0.7517 -0.4226
 2362TIP3    H2 7051   1.756   2.946   3.041 -0.0109  0.6319 -0.1422
 2363TIP3   OH2 7052   6.261   5.946   4.011 -0.0548  0.1901 -0.1187
 2363TIP3    H1 7053   6.201   5.990   4.072  1.5717 -1.9680  3.3914
 2363TIP3    H2 7054   6.335   6.007   4.003 -0.1089  0.3348  0.4420
 2364TIP3   OH2 7055   6.371   5.222   1.805  0.3317 -0.0128 -0.1849
 2364TIP3    H1 7056   6.455   5.258   1.779  0.8035 -0.6781  0.3747
 2364TIP3    H2 7057   6.359   5.145   1.750  0.5211 -0.4328  0.3474
 2365TIP3   OH2 7058   0.275   0.933   0.450 -0.6143 -0.4458  0.1666
 2365TIP3    H1 7059   0.228   0.908   0.530  2.1184 -2.0389  1.4532
 2365TIP3    H2 7060   0.328   0.856   0.428  1.0570  1.0285 -1.3510
 2366TIP3   OH2 7061   4.606   1.934   4.202 -0.0915  0.7090 -0.8480
 2366TIP3    H1 7062   4.593   2.025   4.231 -0.1600  0.3080  0.4307
 2366TIP3    H2 7063   4.547   1.925   4.127 -2.0796  0.9895  0.5745
 2367TIP3   OH2 7064   3.347   1.290   1.155  0.2432  0.1027 -0.1190
 2367TIP3    H1 7065   3.256   1.296   1.126  0.2649  1.1280 -0.0331
 2367TIP3    H2 7066   3.398   1.294   1.074  0.2361  0.6725 -0.1014
 2368TIP3   OH2 7067   4.315   1.028   0.720 -0.2841 -0.2697  0.2986
 2368TIP3    H1 7068   4.282   1.076   0.796 -0.2408 -0.7090  0.6004
 2368TIP3    H2 7069   4.396   0.987   0.752  0.5718  0.8155 -0.4356
 2369TIP3   OH2 7070   7.173   6.492   5.412 -0.1275 -0.1553  0.7064
 2369TIP3    H1 7071   7.079   6.487   5.395  0.1199 -0.8007 -0.5526
 2369TIP3    H2 7072   7.179   6.521   5.503 -1.5389 -0.0425  0.7847
 2370TIP3   OH2 7073   3.204   4.342   4.057  0.3509  0.4730  0.0522
 2370TIP3    H1 7074   3.201   4.247   4.069 -1.7468  0.3588 -1.0523
 2370TIP3    H2 7075   3.248   4.354   3.973 -2.0052  0.2620 -1.2889
 2371TIP3   OH2 7076   2.565   4.381   0.837  0.6712  0.3690 -0.4061
 2371TIP3    H1 7077   2.608   4.386   0.751  1.2271  2.1744 -0.0550
 2371TIP3    H2 7078   2.592   4.296   0.871  0.7376 -0.2316 -1.8572
 2372TIP3   OH2 7079   0.121   6.469   1.366  0.0336 -0.0301  0.4283
 2372TIP3    H1 7080   0.204   6.466   1.413  0.8847  3.2385 -0.5471
 2372TIP3    H2 7081   0.109   6.381   1.331  1.8141 -1.2457  2.6067
 2373TIP3   OH2 7082   5.031   3.126   2.780 -0.0854 -0.1387  0.7186
 2373TIP3    H1 7083   5.118   3.157   2.804  0.0734 -0.5384  0.6716
 2373TIP3    H2 7084   4.980   3.205   2.766  0.2648  0.0979  0.7718
 2374TIP3   OH2 7085   2.989   3.514   0.867 -0.1630  0.1800 -0.1139
 2374TIP3    H1 7086   3.025   3.565   0.794  0.7974 -0.0758  0.1581
 2374TIP3    H2 7087   2.922   3.571   0.905 -0.9562  0.1540 -1.4277
 2375TIP3   OH2 7088   5.388   0.068   3.572 -0.5828 -0.1995  0.3923
 2375TIP3    H1 7089   5.423   0.129   3.637  0.9532 -0.0397 -0.5203
 2375TIP3    H2 7090   5.301   0.102   3.550 -0.0317  1.2902  0.3913
 2376TIP3   OH2 7091   5.408   4.727   3.236  0.4239 -0.2629 -0.4146
 2376TIP3    H1 7092   5.491   4.681   3.249  0.5087  0.2658  1.0977
 2376TIP3    H2 7093   5.428   4.792   3.169  1.0511 -0.5793 -0.5508
 2377TIP3   OH2 7094   2.908   0.584   0.354 -0.4553 -0.9219 -0.1111
 2377TIP3    H1 7095   2.897   0.535   0.435  2.7369 -1.6376  0.0162
 2377TIP3    H2 7096   2.941   0.670   0.382 -1.4084 -0.3943 -0.5685
 2378TIP3   OH2 7097   1.347   1.530   0.637 -0.4098  0.2192  0.3795
 2378TIP3    H1 7098   1.272   1.515   0.696 -1.0970 -1.2443 -0.8121
 2378TIP3    H2 7099   1.391   1.445   0.632  1.0793  0.9342  0.6547
 2379TIP3   OH2 7100   3.709   5.844  -0.015 -0.5780 -0.0368  0.2228
 2379TIP3    H1 7101   3.700   5.917   0.046 -0.4968  0.1109  0.0585
 2379TIP3    H2 7102   3.763   5.780   0.032 -1.1867 -0.2703  0.6177
 2380TIP3   OH2 7103   6.303   4.976   3.236 -0.4952  0.5217  0.2417
 2380TIP3    H1 7104   6.316   4.996   3.328 -1.2061  0.7867  0.2914
 2380TIP3    H2 7105   6.355   5.041   3.189 -0.1247  0.3794  0.4488
 2381TIP3   OH2 7106   1.991   5.637   3.495  0.7016  0.3739  0.3131
 2381TIP3    H1 7107   1.952   5.636   3.407 -1.3701  0.0735  1.1713
 2381TIP3    H2 7108   1.985   5.546   3.525  1.3118  0.4912  0.8113
 2382TIP3   OH2 7109   6.443   1.092   0.015 -0.5297  0.2947  0.1325
 2382TIP3    H1 7110   6.382   1.044   0.070  0.7100 -0.8899  0.5380
 2382TIP3    H2 7111   6.529   1.077   0.056  0.3413  0.0106 -1.6895
 2383TIP3   OH2 7112   1.625   4.762   2.506 -0.5740 -0.3316 -0.3377
 2383TIP3    H1 7113   1.602   4.669   2.502  2.1496 -1.2331  1.5975
 2383TIP3    H2 7114   1.707   4.768   2.457 -0.4715  0.9622 -0.0322
 2384TIP3   OH2 7115   0.485   2.353   5.040 -0.7353  0.3166 -0.2067
 2384TIP3    H1 7116   0.498   2.446   5.024 -1.0879  1.0616  3.1094
 2384TIP3    H2 7117   0.569   2.323   5.076 -1.2822 -0.1002  0.7541
 2385TIP3   OH2 7118   6.899   1.143   2.828  0.1652  0.3433  0.0870
 2385TIP3    H1 7119   6.905   1.172   2.919 -2.6613  2.3298 -0.2172
 2385TIP3    H2 7120   6.873   1.221   2.780  3.6044 -0.1039 -2.8873
 2386TIP3   OH2 7121   1.849   1.225   5.759  0.7190 -0.4854 -0.0790
 2386TIP3    H1 7122   1.939   1.198   5.774  0.8984  0.4646  0.6208
 2386TIP3    H2 7123   1.810   1.231   5.847  0.6324  1.2845 -0.2054
 2387TIP3   OH2 7124   0.800   4.959   3.614 -0.0123 -0.7850 -0.5088
 2387TIP3    H1 7125   0.767   4.871   3.594 -1.2764 -0.5527  0.4336
 2387TIP3    H2 7126   0.893   4.947   3.631 -0.2357 -1.9891 -0.0862
 2388TIP3   OH2 7127   5.630   1.391   4.224 -0.3295  0.0519  0.1017
 2388TIP3    H1 7128   5.633   1.402   4.319  1.2829 -1.2390  0.2631
 2388TIP3    H2 7129   5.635   1.296   4.211 -4.2068 -0.1207 -1.2643
 2389TIP3   OH2 7130   5.760   1.122   5.041 -0.0898  0.2009 -0.1202
 2389TIP3    H1 7131   5.705   1.114   5.118 -0.2273  1.7230 -0.0352
 2389TIP3    H2 7132   5.784   1.214   5.037  2.0260 -0.2971 -0.4498
 2390TIP3   OH2 7133   2.669   5.837   4.470  0.4117 -0.0542  0.6610
 2390TIP3    H1 7134   2.642   5.848   4.379 -0.7930 -0.7250  0.9174
 2390TIP3    H2 7135   2.713   5.919   4.492 -0.3882  0.6151 -0.1489
 2391TIP3   OH2 7136   5.698   6.341   1.701  0.2673 -0.3599 -0.4676
 2391TIP3    H1 7137   5.636   6.274   1.674 -2.7454  1.6823  0.7699
 2391TIP3    H2 7138   5.695   6.339   1.797  0.7648  0.9230 -0.4037
 2392TIP3   OH2 7139   4.054   6.188   4.134  0.2070  0.3062  0.5647
 2392TIP3    H1 7140   4.002   6.128   4.189  2.1494 -0.1221  2.0443
 2392TIP3    H2 7141   4.142   6.183   4.170  1.2122  1.3438 -1.5894
 2393TIP3   OH2 7142   3.107   1.649   0.140  0.1518  0.0096 -0.4157
 2393TIP3    H1 7143   3.087   1.639   0.233 -0.3389 -2.7747 -0.7131
 2393TIP3    H2 7144   3.191   1.695   0.138  0.3083 -0.1244  1.4246
 2394TIP3   OH2 7145   5.803   6.765   3.896  0.0925 -0.2953 -0.0210
 2394TIP3    H1 7146   5.846   6.833   3.948  1.1201 -0.4191 -0.6753
 2394TIP3    H2 7147   5.742   6.724   3.957  0.6778  0.0951  0.8575
 2395TIP3   OH2 7148   5.595   3.211   1.424  0.7334 -0.3958  0.1225
 2395TIP3    H1 7149   5.607   3.147   1.355  1.8288 -1.6228  1.4097
 2395TIP3    H2 7150   5.676   3.263   1.424  0.2158  0.4399 -0.3287
 2396TIP3   OH2 7151   0.991   4.828   5.137 -1.1315  0.3723 -0.0226
 2396TIP3    H1 7152   1.069   4.882   5.122 -1.6148  0.5735 -2.2372
 2396TIP3    H2 7153   0.988   4.815   5.231 -0.5484  3.5356  0.5266
 2397TIP3   OH2 7154   2.858   3.850   1.928 -0.2712  0.1132 -0.1617
 2397TIP3    H1 7155   2.876   3.937   1.892 -1.6400 -0.0135 -1.2096
 2397TIP3    H2 7156   2.851   3.793   1.851  2.0930 -1.2861  0.5277
 2398TIP3   OH2 7157   1.043   6.354   3.101 -0.6344  0.0789  0.0272
 2398TIP3    H1 7158   1.115   6.396   3.055 -0.9411  0.1290 -0.4148
 2398TIP3    H2 7159   0.992   6.427   3.137 -1.2561  0.1093 -0.8760
 2399TIP3   OH2 7160   0.995   0.204   1.310  0.4504 -0.8709  1.1258
 2399TIP3    H1 7161   0.998   0.235   1.220  2.4813 -0.7007  1.2055
 2399TIP3    H2 7162   0.947   0.121   1.305  0.1685 -0.6524 -0.0467
 2400TIP3   OH2 7163   5.451   1.590   2.841  0.3965 -0.3915 -0.1230
 2400TIP3    H1 7164   5.465   1.604   2.748  1.4157 -0.0339  0.0651
 2400TIP3    H2 7165   5.440   1.678   2.877  1.5048 -0.4054  0.2963
 2401TIP3   OH2 7166   4.483   4.195   4.587 -0.1740 -0.9063  0.0452
 2401TIP3    H1 7167   4.508   4.184   4.495  2.5461 -0.9541  0.7090
 2401TIP3    H2 7168   4.430   4.117   4.606 -0.4996 -1.0628 -1.3784
 2402TIP3   OH2 7169   0.880   5.950   1.002  0.1465  0.3609 -0.0528
 2402TIP3    H1 7170   0.839   6.036   0.990 -1.1794 -0.2707 -0.2709
 2402TIP3    H2 7171   0.913   5.951   1.092 -3.1313 -0.1397  1.3148
 2403TIP3   OH2 7172   5.813   0.232   2.315  0.0614 -0.2252  0.6188
 2403TIP3    H1 7173   5.895   0.280   2.332  0.3731 -0.1509 -0.9734
 2403TIP3    H2 7174   5.751   0.269   2.377  0.6643  1.2861  0.3785
 2404TIP3   OH2 7175   6.022   6.097   1.148  0.0428 -0.5168 -0.5144
 2404TIP3    H1 7176   5.938   6.121   1.109 -0.0137  0.2561  0.0511
 2404TIP3    H2 7177   6.002   6.023   1.205 -0.1359 -0.7398 -0.8628
 2405TIP3   OH2 7178   0.977   3.878   0.816 -0.3793 -0.2822  0.4461
 2405TIP3    H1 7179   1.017   3.955   0.775 -0.4837 -1.0242 -1.1304
 2405TIP3    H2 7180   0.938   3.911   0.897  1.5950  0.8623  0.9938
 2406TIP3   OH2 7181   5.599   2.160   1.300 -1.1649 -0.4069 -0.1790
 2406TIP3    H1 7182   5.619   2.240   1.251 -2.3005 -1.4571 -2.5324
 2406TIP3    H2 7183   5.680   2.108   1.295 -1.4635 -0.7812 -1.6194
 2407TIP3   OH2 7184   5.174   4.643   2.857 -0.0123  0.6260 -0.1554
 2407TIP3    H1 7185   5.085   4.620   2.832 -0.0759 -0.2609  0.8338
 2407TIP3    H2 7186   5.211   4.563   2.892  0.8671  1.2194  0.3110
 2408TIP3   OH2 7187   2.748   1.390   3.377  0.1188  1.1641  0.3015
 2408TIP3    H1 7188   2.706   1.466   3.417 -1.1348  0.8875 -0.4615
 2408TIP3    H2 7189   2.705   1.315   3.417  0.3596  0.8586 -0.0087
 2409TIP3   OH2 7190   5.004   2.566   3.639  0.4738 -0.2348  0.2217
 2409TIP3    H1 7191   4.965   2.505   3.576  0.0276 -0.1933  0.4562
 2409TIP3    H2 7192   5.085   2.523   3.666  0.1233 -0.7715  0.4445
 2410TIP3   OH2 7193   2.516   3.692   2.719 -0.1974  0.4147  0.1729
 2410TIP3    H1 7194   2.465   3.712   2.798  0.5388  0.2250  0.7122
 2410TIP3    H2 7195   2.551   3.777   2.692  2.4061  0.0866  2.0976
 2411TIP3   OH2 7196   4.865   1.158   1.322 -0.1398  0.0036  0.2173
 2411TIP3    H1 7197   4.816   1.076   1.330  0.3768 -0.3469 -0.1495
 2411TIP3    H2 7198   4.820   1.218   1.381 -0.6052 -0.5056  0.3943
 2412TIP3   OH2 7199   6.460   3.025   0.229 -0.0191  0.0299 -0.1866
 2412TIP3    H1 7200   6.369   3.030   0.198 -0.4102 -4.5604 -0.4428
 2412TIP3    H2 7201   6.455   3.054   0.320 -2.0997 -1.2324  0.1903
 2413TIP3   OH2 7202   4.491   1.297   0.322  0.2569 -0.4238 -0.1248
 2413TIP3    H1 7203   4.453   1.375   0.283  1.4240  0.8470  1.1643
 2413TIP3    H2 7204   4.434   1.275   0.395 -0.3076 -1.0672 -0.7397
 2414TIP3   OH2 7205   4.846   6.139   4.335  0.4517  0.4281 -0.5321
 2414TIP3    H1 7206   4.802   6.207   4.283  1.3150 -0.8074 -3.0316
 2414TIP3    H2 7207   4.845   6.173   4.424 -2.6030  1.9486 -1.0095
 2415TIP3   OH2 7208   1.108   6.780   0.550  0.2905  0.0911  0.2934
 2415TIP3    H1 7209   1.110   6.816   0.461  3.2008 -0.7548 -0.1099
 2415TIP3    H2 7210   1.042   6.711   0.547 -0.2127  0.6020 -0.9630
 2416TIP3   OH2 7211   2.579   4.588   5.067  0.1207 -0.1143 -0.6945
 2416TIP3    H1 7212   2.643   4.624   5.129 -1.3159  1.6929 -0.1986
 2416TIP3    H2 7213   2.583   4.646   4.991  0.5906 -1.2770 -1.5976
 2417TIP3   OH2 7214   6.103   3.803   0.882  0.1316 -0.4349  0.3023
 2417TIP3    H1 7215   6.166   3.764   0.943  0.5969  0.1148  0.1721
 2417TIP3    H2 7216   6.131   3.894   0.872  0.2314 -0.5832 -0.9569
 2418TIP3   OH2 7217   7.013   3.779   0.594 -0.2426 -0.1893 -0.4285
 2418TIP3    H1 7218   7.016   3.706   0.655 -1.0229  0.2392  0.1357
 2418TIP3    H2 7219   6.923   3.812   0.599 -0.1619  0.2253 -1.3736
 2419TIP3   OH2 7220   0.150   3.914   3.409 -0.5345 -0.0776  0.6193
 2419TIP3    H1 7221   0.192   3.851   3.468 -0.9139 -1.2257 -0.2824
 2419TIP3    H2 7222   0.057   3.894   3.415 -0.8407  1.4737  1.5021
 2420TIP3   OH2 7223   3.198   1.077   4.644  0.6659  0.0257  0.3906
 2420TIP3    H1 7224   3.205   1.173   4.640 -2.2546  0.3358  0.4996
 2420TIP3    H2 7225   3.144   1.054   4.569  2.5124 -1.7775 -0.4678
 2421TIP3   OH2 7226   2.873   2.195   2.973 -0.0492 -0.0692 -0.5775
 2421TIP3    H1 7227   2.854   2.112   2.929  1.7664 -1.0822  0.4282
 2421TIP3    H2 7228   2.947   2.176   3.030  1.2673  2.5589 -1.2370
 2422TIP3   OH2 7229   1.823   1.411   0.617  0.1225 -0.8193  0.1425
 2422TIP3    H1 7230   1.818   1.491   0.669 -1.8691 -1.2660  0.7333
 2422TIP3    H2 7231   1.863   1.347   0.676  0.2463 -0.6717  0.2213
 2423TIP3   OH2 7232   4.107   4.315   1.444  0.5238 -0.2743 -0.1572
 2423TIP3    H1 7233   4.141   4.370   1.373  0.1848 -1.1283 -1.0055
 2423TIP3    H2 7234   4.028   4.276   1.408  1.0224 -1.7138  0.2294
 2424TIP3   OH2 7235   5.575   3.984   4.766 -0.5195  0.5069  0.0891
 2424TIP3    H1 7236   5.646   3.968   4.828 -0.1710  2.4794  0.2471
 2424TIP3    H2 7237   5.604   3.941   4.685 -1.3974 -2.9267  1.4316
 2425TIP3   OH2 7238   4.763   3.539   5.703 -0.0767 -0.3462 -0.2495
 2425TIP3    H1 7239   4.692   3.535   5.767 -0.4778  1.4634 -0.5320
 2425TIP3    H2 7240   4.739   3.474   5.637  0.2012 -2.0421  1.2319
 2426TIP3   OH2 7241   1.310   0.941   4.428  0.4521 -0.1002  0.6992
 2426TIP3    H1 7242   1.229   0.931   4.378  0.3401  0.3302  0.7934
 2426TIP3    H2 7243   1.347   0.853   4.431  1.4165  0.1444 -1.7376
 2427TIP3   OH2 7244   6.802   0.388   0.953  0.1622 -0.1744  0.1905
 2427TIP3    H1 7245   6.795   0.297   0.982 -0.9035 -0.1157  0.1794
 2427TIP3    H2 7246   6.756   0.438   1.020 -1.4145  0.0736 -1.0148
 2428TIP3   OH2 7247   4.779   0.089   1.507 -0.1531 -0.1861 -0.2920
 2428TIP3    H1 7248   4.758   0.051   1.592  0.9962  0.1434  0.1501
 2428TIP3    H2 7249   4.741   0.028   1.443  2.5630 -2.7615  0.3529
 2429TIP3   OH2 7250   3.547   5.044   1.543  0.3849  0.9411 -0.2392
 2429TIP3    H1 7251   3.499   5.114   1.587 -0.4508  1.6017 -2.0976
 2429TIP3    H2 7252   3.479   4.994   1.497  0.7460 -2.0376  2.1416
 2430TIP3   OH2 7253   6.283   4.294   4.472 -0.2084  0.4596 -0.2950
 2430TIP3    H1 7254   6.277   4.368   4.533 -0.9095 -1.4566  2.0899
 2430TIP3    H2 7255   6.196   4.256   4.470  0.5729 -1.4687  0.0972
 2431TIP3   OH2 7256   6.130   3.076   2.195  0.0577  0.1318  0.0098
 2431TIP3    H1 7257   6.048   3.071   2.146  0.3058 -0.4431 -0.3525
 2431TIP3    H2 7258   6.196   3.040   2.135  0.3794 -0.5116  0.7350
 2432TIP3   OH2 7259   6.679   3.127   1.916  0.3206 -0.3979 -0.0497
 2432TIP3    H1 7260   6.754   3.177   1.884 -0.3380  0.0733 -0.8759
 2432TIP3    H2 7261   6.712   3.037   1.922  1.6672  0.1450  1.9373
 2433TIP3   OH2 7262   2.869   3.233   2.217  0.0365  0.7154 -0.7395
 2433TIP3    H1 7263   2.786   3.238   2.170 -0.9456 -1.0725  0.6490
 2433TIP3    H2 7264   2.901   3.145   2.198  1.8923  1.5262 -1.6022
 2434TIP3   OH2 7265   7.145   6.495   5.671  0.1439  0.2303  0.3604
 2434TIP3    H1 7266   7.187   6.512   5.756 -0.2277  1.5417  0.2964
 2434TIP3    H2 7267   7.180   6.410   5.644 -0.5144 -0.7175  2.3063
 2435TIP3   OH2 7268   6.154   3.079   2.663  0.3073 -0.0390  0.0657
 2435TIP3    H1 7269   6.117   3.144   2.604  0.9513  0.7288  0.4866
 2435TIP3    H2 7270   6.217   3.030   2.609 -0.0984 -0.2485 -0.2222
 2436TIP3   OH2 7271   6.101   4.054   0.182  0.3339 -0.3217  0.7739
 2436TIP3    H1 7272   6.087   4.007   0.100  1.3188  0.2958  0.2287
 2436TIP3    H2 7273   6.103   3.986   0.249 -0.5415 -0.8285  0.3045
 2437TIP3   OH2 7274   2.564   3.671   3.121  0.5793 -0.1155  0.3231
 2437TIP3    H1 7275   2.551   3.719   3.039  0.3735  0.4806  0.6931
 2437TIP3    H2 7276   2.483   3.686   3.170  0.4014 -1.0888  0.3299
 2438TIP3   OH2 7277   7.000   2.866   3.679 -0.0356  0.1273  0.0782
 2438TIP3    H1 7278   6.950   2.789   3.655 -1.4427  1.3770 -1.2468
 2438TIP3    H2 7279   7.058   2.882   3.605  0.5117  0.1517  0.5021
 2439TIP3   OH2 7280   2.909   5.784   5.815 -0.0671  0.1453  0.6681
 2439TIP3    H1 7281   2.927   5.861   5.868 -0.4960 -0.1879  1.3230
 2439TIP3    H2 7282   2.921   5.710   5.875 -1.3812 -0.1962  0.5501
 2440TIP3   OH2 7283   4.141   2.174   3.321 -0.5804  0.5306 -0.2609
 2440TIP3    H1 7284   4.161   2.222   3.241  0.9934  0.4783  0.0710
 2440TIP3    H2 7285   4.109   2.089   3.290 -1.0079  0.8850 -0.8242
 2441TIP3   OH2 7286   4.282   0.238   3.080 -0.0123 -0.2804 -0.4283
 2441TIP3    H1 7287   4.209   0.296   3.098  0.8828  1.2543 -1.5216
 2441TIP3    H2 7288   4.314   0.264   2.994 -0.1105 -3.0178 -1.3806
 2442TIP3   OH2 7289   3.458   3.733   5.038  0.6462 -0.3864 -0.1222
 2442TIP3    H1 7290   3.455   3.813   5.090 -1.3496 -0.2660 -0.3458
 2442TIP3    H2 7291   3.488   3.762   4.952  2.0261 -0.2568  0.3868
 2443TIP3   OH2 7292   2.199   5.638   1.671 -0.0639 -0.7493  0.5038
 2443TIP3    H1 7293   2.105   5.646   1.660 -0.2224  1.1841  2.5583
 2443TIP3    H2 7294   2.236   5.699   1.607 -0.1824 -1.5930 -0.3804
 2444TIP3   OH2 7295   2.848   1.903   3.299  0.6511 -0.4742  0.8135
 2444TIP3    H1 7296   2.912   1.957   3.254  1.4298  0.2634  2.6736
 2444TIP3    H2 7297   2.899   1.855   3.364 -0.4200 -1.3988  1.0012
 2445TIP3   OH2 7298   6.266   4.490   0.145 -0.0514 -0.3194 -0.0167
 2445TIP3    H1 7299   6.264   4.559   0.079  1.4679 -0.7911 -0.5948
 2445TIP3    H2 7300   6.190   4.435   0.125 -0.9119  0.7994  0.0637
 2446TIP3   OH2 7301   2.468   2.366   1.917 -0.1248 -0.1277  0.0356
 2446TIP3    H1 7302   2.415   2.289   1.933  0.5403 -0.3464  1.3230
 2446TIP3    H2 7303   2.429   2.434   1.972 -0.2441  0.2552 -0.5107
 2447TIP3   OH2 7304   3.153   1.867   2.024 -0.0655  0.1592 -0.0798
 2447TIP3    H1 7305   3.150   1.776   2.055 -0.1394  0.3860  0.5930
 2447TIP3    H2 7306   3.061   1.889   2.008 -0.1530  0.4364  0.7384
 2448TIP3   OH2 7307   0.116   2.859   3.763  0.3437  0.8018  0.6890
 2448TIP3    H1 7308   0.127   2.811   3.681  1.4068  3.1361 -0.6431
 2448TIP3    H2 7309   0.023   2.848   3.786  0.6792 -2.3670  0.8820
 2449TIP3   OH2 7310   6.024   5.643   0.310  0.2272 -0.2887  0.0567
 2449TIP3    H1 7311   6.084   5.578   0.273  0.6631  0.0899  0.1007
 2449TIP3    H2 7312   6.057   5.727   0.278 -0.5456 -0.1087 -0.3002
 2450TIP3   OH2 7313   6.003   4.045   5.663 -0.8107  0.4702 -0.0815
 2450TIP3    H1 7314   6.045   4.113   5.611 -0.8761 -0.2976 -1.1635
 2450TIP3    H2 7315   6.060   4.036   5.740 -0.2459  1.0293 -0.4244
 2451TIP3   OH2 7316   0.748   3.647   2.137  0.0009  0.8382 -0.2735
 2451TIP3    H1 7317   0.747   3.649   2.041 -0.9107  0.3717 -0.2815
 2451TIP3    H2 7318   0.820   3.705   2.161  0.7742  0.3225 -1.2549
 2452TIP3   OH2 7319   2.594   3.571   0.362 -0.4084 -0.1661  0.1989
 2452TIP3    H1 7320   2.683   3.587   0.392 -0.6140  0.1997  0.6442
 2452TIP3    H2 7321   2.578   3.640   0.298 -0.2276 -0.4893 -0.1962
 2453TIP3   OH2 7322   4.623   1.581   1.346  0.0054  0.5398  0.5056
 2453TIP3    H1 7323   4.560   1.651   1.360 -0.7704 -0.0691  0.0849
 2453TIP3    H2 7324   4.650   1.589   1.255  0.4783  0.7344  0.6541
 2454TIP3   OH2 7325   5.282   6.202   1.305 -0.0691  0.2553 -0.1129
 2454TIP3    H1 7326   5.237   6.134   1.254  0.3386  0.5747 -0.9138
 2454TIP3    H2 7327   5.360   6.159   1.339 -0.1787  0.1312 -0.0136
 2455TIP3   OH2 7328   7.039   2.406   4.068  0.5135 -0.0128  0.1363
 2455TIP3    H1 7329   7.033   2.340   4.137 -0.1148  0.0272  0.1268
 2455TIP3    H2 7330   6.992   2.481   4.103  0.0976 -0.0304 -0.3787
 2456TIP3   OH2 7331   0.901   4.335   3.130  0.4229 -0.3906 -0.4696
 2456TIP3    H1 7332   0.973   4.278   3.155  0.9999 -0.1142 -1.4581
 2456TIP3    H2 7333   0.934   4.385   3.056 -0.7120 -0.1023 -0.8088
 2457TIP3   OH2 7334   4.111   2.497   2.790  0.0784  0.1867  0.2737
 2457TIP3    H1 7335   4.101   2.407   2.821  1.2513 -0.7905 -2.0041
 2457TIP3    H2 7336   4.145   2.544   2.867 -1.8796 -0.9178  1.9293
 2458TIP3   OH2 7337   4.958   0.677   2.344  0.1110 -0.1616  0.2947
 2458TIP3    H1 7338   5.011   0.618   2.397 -1.4280 -0.9493  1.0236
 2458TIP3    H2 7339   4.970   0.647   2.254  0.1631 -0.9260  0.5520
 2459TIP3   OH2 7340   4.858   6.176   1.251 -0.2704  0.4678 -0.2919
 2459TIP3    H1 7341   4.939   6.131   1.224  0.4604  1.2867  0.4505
 2459TIP3    H2 7342   4.824   6.215   1.171  0.9820  1.4984 -0.3509
 2460TIP3   OH2 7343   3.280   6.086   4.059 -0.3754 -0.4538  0.3756
 2460TIP3    H1 7344   3.238   6.058   4.141  0.1431 -0.7415  0.5503
 2460TIP3    H2 7345   3.209   6.088   3.995 -0.9489  0.5732  1.0116
 2461TIP3   OH2 7346   1.599   5.548   4.297 -0.0224 -0.3608  0.0120
 2461TIP3    H1 7347   1.535   5.557   4.368 -1.8056 -2.4194 -1.1927
 2461TIP3    H2 7348   1.554   5.584   4.220  1.0981 -0.0029 -0.5005
 2462TIP3   OH2 7349   5.033   6.471   3.657 -0.3888  0.4349  0.0337
 2462TIP3    H1 7350   5.007   6.444   3.745  1.6691  1.3035  0.9724
 2462TIP3    H2 7351   5.084   6.397   3.624 -0.7839  0.2921 -0.2597
 2463TIP3   OH2 7352   2.221   2.143   1.176 -0.2193  0.3418 -0.1668
 2463TIP3    H1 7353   2.172   2.066   1.147 -0.9899  1.3906 -1.7668
 2463TIP3    H2 7354   2.299   2.144   1.122 -0.6147  1.1282 -0.7395
 2464TIP3   OH2 7355   0.873  -0.009   0.497 -0.3246 -0.2852  0.1599
 2464TIP3    H1 7356   0.778  -0.003   0.485 -0.5085 -0.8426  1.2482
 2464TIP3    H2 7357   0.890   0.041   0.576  0.3043 -0.1482 -0.0586
 2465TIP3   OH2 7358   7.186   6.219   0.501  0.3383  0.1167  0.4243
 2465TIP3    H1 7359   7.151   6.267   0.576 -1.7245  0.0619 -0.4401
 2465TIP3    H2 7360   7.109   6.192   0.451  1.6317 -0.2402 -1.4997
 2466TIP3   OH2 7361   5.379   1.578   5.752  0.0093 -0.2231 -0.0539
 2466TIP3    H1 7362   5.329   1.620   5.683 -0.6910 -1.0818 -0.0883
 2466TIP3    H2 7363   5.353   1.623   5.832 -2.1329 -1.7257  0.1731
 2467TIP3   OH2 7364   3.159   6.123   5.800  0.1497  0.6460 -0.0872
 2467TIP3    H1 7365   3.206   6.121   5.883  0.8506  2.4388 -0.3899
 2467TIP3    H2 7366   3.072   6.155   5.822  0.1790  0.6438  0.0311
 2468TIP3   OH2 7367   0.083   4.726   1.854 -0.1586 -0.0777 -0.0481
 2468TIP3    H1 7368   0.034   4.720   1.772 -1.6190 -1.3147  0.8545
 2468TIP3    H2 7369   0.034   4.788   1.908  0.7069  0.6139 -0.0250
 2469TIP3   OH2 7370   0.122   1.892   1.444  0.1887 -0.3431 -0.3963
 2469TIP3    H1 7371   0.208   1.928   1.466 -0.2977  0.2753  0.5462
 2469TIP3    H2 7372   0.065   1.969   1.439 -0.3720 -0.7743 -0.7617
 2470TIP3   OH2 7373   2.179   2.166   5.789  0.4483 -0.3521 -0.5052
 2470TIP3    H1 7374   2.262   2.207   5.812 -0.1892  0.6838  0.0192
 2470TIP3    H2 7375   2.112   2.227   5.821 -0.5103 -0.8430 -1.5101
 2471TIP3   OH2 7376   3.090   0.084   3.627 -0.0711 -0.1595 -0.5234
 2471TIP3    H1 7377   3.122   0.174   3.621  0.3290 -0.1697  1.0189
 2471TIP3    H2 7378   2.999   0.093   3.656 -0.1098 -0.2574 -0.6124
 2472TIP3   OH2 7379   1.236   0.454   1.629  0.0945 -0.6339 -0.3532
 2472TIP3    H1 7380   1.194   0.417   1.707  1.3622 -0.1695  0.5999
 2472TIP3    H2 7381   1.270   0.539   1.659  1.7132 -0.9998 -1.0469
 2473TIP3   OH2 7382   1.226   5.622   0.496 -0.2235  0.5322 -0.3755
 2473TIP3    H1 7383   1.149   5.674   0.522 -1.0998 -0.7886 -0.2657
 2473TIP3    H2 7384   1.238   5.642   0.404 -0.9712  0.4232 -0.5018
 2474TIP3   OH2 7385   0.280   0.078   4.641 -0.3312 -0.0663  0.0827
 2474TIP3    H1 7386   0.269   0.160   4.594  0.0379 -0.5118 -0.7994
 2474TIP3    H2 7387   0.347   0.030   4.592  1.1138  0.0140  1.8210
 2475TIP3   OH2 7388   3.124   1.975   5.184  0.5681 -0.3858  0.3165
 2475TIP3    H1 7389   3.153   1.901   5.238  0.1580  0.3125  1.5250
 2475TIP3    H2 7390   3.156   1.954   5.096  0.5782 -1.9325  0.6582
 2476TIP3   OH2 7391   3.650   3.893   2.640  0.9012  0.6502 -0.3191
 2476TIP3    H1 7392   3.659   3.818   2.700 -0.7984  0.7246  0.0884
 2476TIP3    H2 7393   3.556   3.910   2.637  1.1717  2.2004 -1.1365
 2477TIP3   OH2 7394   0.517   0.392   3.102  0.3525 -0.0696 -0.1593
 2477TIP3    H1 7395   0.532   0.464   3.164 -0.6947 -0.1643  0.2188
 2477TIP3    H2 7396   0.516   0.434   3.016  1.5561  0.1000 -0.1138
 2478TIP3   OH2 7397   3.686   5.696   1.895 -0.2525 -0.0879 -0.3954
 2478TIP3    H1 7398   3.649   5.744   1.969 -0.6343 -0.2767 -0.4574
 2478TIP3    H2 7399   3.609   5.661   1.849 -0.0303  0.1393 -0.9570
 2479TIP3   OH2 7400   4.984   4.457   1.774  0.1028 -0.2787  0.2567
 2479TIP3    H1 7401   5.021   4.545   1.775 -0.0219 -0.2268  0.4055
 2479TIP3    H2 7402   4.974   4.436   1.681 -2.1194  0.8427  0.1584
 2480TIP3   OH2 7403   0.782   2.744   3.175  0.3099 -0.3197  0.1908
 2480TIP3    H1 7404   0.701   2.733   3.126  1.4003 -1.3871 -1.4500
 2480TIP3    H2 7405   0.834   2.804   3.123  1.2909 -1.0616  0.2839
 2481TIP3   OH2 7406   7.091   2.894   4.216 -0.1491 -0.3075 -0.1899
 2481TIP3    H1 7407   7.142   2.814   4.226  0.4959  0.1875  0.6943
 2481TIP3    H2 7408   7.049   2.886   4.130  0.6896 -1.1386 -0.5389
 2482TIP3   OH2 7409   3.221   4.692   1.392  0.1789  0.3593 -0.8945
 2482TIP3    H1 7410   3.142   4.639   1.391  0.2920  0.1692 -0.2860
 2482TIP3    H2 7411   3.283   4.643   1.446  0.0950  1.3673  0.1479
 2483TIP3   OH2 7412   3.589   1.806   0.763 -0.1178 -0.5441  0.5164
 2483TIP3    H1 7413   3.613   1.843   0.678  0.1280 -0.7041  0.5162
 2483TIP3    H2 7414   3.650   1.845   0.825 -0.5887 -0.0751  0.6940
 2484TIP3   OH2 7415   5.392   1.851   0.532  0.6355 -0.1560 -0.1238
 2484TIP3    H1 7416   5.452   1.834   0.605  0.3682 -1.7079 -0.2344
 2484TIP3    H2 7417   5.427   1.930   0.490  1.1718  0.3871  1.2761
 2485TIP3   OH2 7418   5.276   4.492   4.781  0.3690 -0.1823  0.4597
 2485TIP3    H1 7419   5.370   4.471   4.778  0.7623  1.3077  1.0952
 2485TIP3    H2 7420   5.267   4.546   4.859 -0.4538  2.1657 -1.1359
 2486TIP3   OH2 7421   6.450   3.988   1.918 -0.1860 -0.4458 -0.0476
 2486TIP3    H1 7422   6.475   4.034   1.998  0.7127  1.5570 -1.3902
 2486TIP3    H2 7423   6.416   4.057   1.861 -0.6656 -1.7888 -1.4534
 2487TIP3   OH2 7424   3.493   1.427   4.134  0.1629  0.0474 -0.1270
 2487TIP3    H1 7425   3.549   1.480   4.190  0.2718 -0.2597  0.0577
 2487TIP3    H2 7426   3.543   1.418   4.053  1.6719 -2.5044  0.9573
 2488TIP3   OH2 7427   2.583   2.734   0.644 -0.0171 -0.4844  0.3900
 2488TIP3    H1 7428   2.653   2.795   0.619 -0.9483  1.0608  1.3345
 2488TIP3    H2 7429   2.502   2.780   0.620 -0.7459 -1.8166  0.1898
 2489TIP3   OH2 7430   1.600   1.972   5.518 -0.0642 -0.2954  0.1863
 2489TIP3    H1 7431   1.628   2.037   5.454  2.5058 -0.3544  1.1510
 2489TIP3    H2 7432   1.584   2.023   5.598  1.9725 -0.7600  0.9502
 2490TIP3   OH2 7433   1.858   0.075   3.091 -0.0129  0.0964 -0.2141
 2490TIP3    H1 7434   1.823   0.056   3.003  0.3072  0.3378 -0.3924
 2490TIP3    H2 7435   1.803   0.147   3.123 -1.6544 -1.4720  0.7177
 2491TIP3   OH2 7436   6.341   2.429   2.698  0.8096 -0.8469 -0.5664
 2491TIP3    H1 7437   6.259   2.422   2.746  1.0601 -0.0594 -0.0014
 2491TIP3    H2 7438   6.316   2.412   2.607 -0.3828  1.2776 -0.7185
 2492TIP3   OH2 7439   3.564   1.025   3.030  0.0039  0.3093  0.2047
 2492TIP3    H1 7440   3.593   1.103   2.983 -1.4118  0.6007 -0.2383
 2492TIP3    H2 7441   3.593   0.952   2.975  0.7582  0.5368  0.2868
 2493TIP3   OH2 7442   2.103   1.984   5.200  0.2756 -0.1164 -0.4387
 2493TIP3    H1 7443   2.120   2.044   5.273  1.1027  2.4289 -2.5581
 2493TIP3    H2 7444   2.008   1.990   5.186  0.0323 -1.0235  0.7088
 2494TIP3   OH2 7445   7.067   2.958   5.170  0.2184 -0.3862  0.3429
 2494TIP3    H1 7446   7.157   2.958   5.137  0.4955  0.3819  1.0381
 2494TIP3    H2 7447   7.020   2.897   5.113  1.4324 -1.6816  0.6775
 2495TIP3   OH2 7448   1.167   3.392   1.148  0.6703 -0.0278  0.1573
 2495TIP3    H1 7449   1.186   3.341   1.069 -2.9043  1.6448 -2.0412
 2495TIP3    H2 7450   1.090   3.350   1.186  0.6197  0.8923  1.1380
 2496TIP3   OH2 7451   0.302   6.106   3.612  0.4942  0.0826 -0.1354
 2496TIP3    H1 7452   0.396   6.124   3.616  0.7940 -1.0443 -1.4212
 2496TIP3    H2 7453   0.277   6.130   3.523 -0.8701  2.1280  0.7139
 2497TIP3   OH2 7454   1.977   3.151   4.943  0.1499 -0.1069  0.2310
 2497TIP3    H1 7455   1.948   3.197   4.864  0.1867  0.6026  0.6180
 2497TIP3    H2 7456   1.905   3.092   4.964  1.0536 -1.9907 -1.5941
 2498TIP3   OH2 7457   1.469   0.651   1.169  0.1546 -0.0775  0.2471
 2498TIP3    H1 7458   1.451   0.575   1.225 -1.0675 -0.0810 -0.1191
 2498TIP3    H2 7459   1.536   0.620   1.107  0.3290 -0.5681  0.6735
 2499TIP3   OH2 7460   6.544   5.620   4.293  0.0728 -0.2101 -0.2998
 2499TIP3    H1 7461   6.523   5.677   4.366 -0.2618 -0.2519 -0.3605
 2499TIP3    H2 7462   6.474   5.636   4.229  2.1069  2.3855 -2.1166
 2500TIP3   OH2 7463   6.140   1.212   0.721 -0.4724  0.0740 -0.2236
 2500TIP3    H1 7464   6.218   1.267   0.734 -1.0560  0.6491  1.0940
 2500TIP3    H2 7465   6.175   1.127   0.694  0.9807 -0.8283  3.7700
 2501TIP3   OH2 7466   5.890   4.678   3.273 -0.2347 -0.0445 -0.0899
 2501TIP3    H1 7467   5.822   4.720   3.325 -1.0927  0.9374 -1.9223
 2501TIP3    H2 7468   5.957   4.745   3.261 -0.5090  0.0782 -1.0448
 2502TIP3   OH2 7469   1.560   3.836   2.415  0.0208  0.1559  0.5575
 2502TIP3    H1 7470   1.624   3.907   2.418  0.1146  0.0359  1.9400
 2502TIP3    H2 7471   1.541   3.825   2.322  0.7996  1.2734  0.2446
 2503TIP3   OH2 7472   5.501   2.877   4.749  0.2728 -0.1909  0.3478
 2503TIP3    H1 7473   5.458   2.832   4.677  0.9777 -1.8913  0.9499
 2503TIP3    H2 7474   5.434   2.883   4.817 -0.0376  0.3464  0.0004
 2504TIP3   OH2 7475   5.244   4.145   5.415  0.0010  0.9247  0.1137
 2504TIP3    H1 7476   5.211   4.202   5.346 -1.7978  0.5903  0.6373
 2504TIP3    H2 7477   5.206   4.181   5.495 -0.6092 -0.5763  0.5334
 2505TIP3   OH2 7478   2.294   5.287   3.964  0.0912 -0.3144  0.0009
 2505TIP3    H1 7479   2.272   5.308   4.054  0.9307  0.2457  0.0917
 2505TIP3    H2 7480   2.338   5.366   3.931  0.8106 -0.9174 -0.5283
 2506TIP3   OH2 7481   0.504   3.660   1.987 -0.5545  0.0989  0.1686
 2506TIP3    H1 7482   0.547   3.627   2.067  0.5796  0.1408 -0.4079
 2506TIP3    H2 7483   0.529   3.598   1.919 -3.7697 -1.5690  0.3060
 2507TIP3   OH2 7484   4.910   2.940   1.403 -0.2108  0.0569  0.0632
 2507TIP3    H1 7485   4.828   2.990   1.404  0.4883  1.2468 -0.2902
 2507TIP3    H2 7486   4.960   2.974   1.478 -0.4389 -1.3945  0.9160
 2508TIP3   OH2 7487   1.913   5.494   5.349  0.3711 -0.3703 -0.0748
 2508TIP3    H1 7488   1.862   5.542   5.284  0.1646 -0.2860  0.1462
 2508TIP3    H2 7489   1.975   5.442   5.298  1.1381  0.7333 -0.2817
 2509TIP3   OH2 7490   5.205   0.302   1.583  0.1400  0.2356 -0.6778
 2509TIP3    H1 7491   5.245   0.357   1.650 -3.9373  2.6604  0.1933
 2509TIP3    H2 7492   5.182   0.221   1.627 -2.4951  1.8012  1.1369
 2510TIP3   OH2 7493   2.618   2.912   3.271  0.4641 -0.2780 -0.0607
 2510TIP3    H1 7494   2.576   2.828   3.292  0.8155 -0.4847 -0.1783
 2510TIP3    H2 7495   2.710   2.890   3.256  0.4519  0.0407 -0.6477
 2511TIP3   OH2 7496   4.737   1.023   2.165 -0.1981 -0.2516  0.3897
 2511TIP3    H1 7497   4.774   0.956   2.108  0.2494  0.5136 -0.2352
 2511TIP3    H2 7498   4.649   1.039   2.130  0.8558  1.8198 -1.5474
 2512TIP3   OH2 7499   4.489   0.756   3.845  0.3677  0.3481 -0.7294
 2512TIP3    H1 7500   4.443   0.679   3.811  0.5153  1.1044 -2.8292
 2512TIP3    H2 7501   4.438   0.830   3.812  1.0493  1.1641  0.0048
 2513TIP3   OH2 7502   0.307   1.631   1.552 -0.3774  0.7627  0.1315
 2513TIP3    H1 7503   0.351   1.558   1.596  2.0437  1.2853 -1.2314
 2513TIP3    H2 7504   0.311   1.609   1.459 -1.2580  1.7993 -0.1752
 2514TIP3   OH2 7505   4.917   0.325   1.566  0.3266  0.0777  0.5043
 2514TIP3    H1 7506   4.889   0.241   1.530  0.2453 -0.2088  1.2320
 2514TIP3    H2 7507   5.006   0.337   1.533 -0.5615  0.9563 -1.7721
 2515TIP3   OH2 7508   3.114   0.054   0.250  0.3906  0.0211  0.2125
 2515TIP3    H1 7509   3.111   0.112   0.174  1.9820  2.2272  1.6994
 2515TIP3    H2 7510   3.088   0.110   0.324 -1.6713 -2.1951  1.2815
 2516TIP3   OH2 7511   3.459   2.839   0.003  0.3967  0.1758  0.6378
 2516TIP3    H1 7512   3.518   2.876   0.068 -0.3111 -0.9342  1.9931
 2516TIP3    H2 7513   3.516   2.793  -0.059  0.9928 -0.5670  1.7083
 2517TIP3   OH2 7514   0.056   5.981   1.062  0.1684  0.3826 -0.5402
 2517TIP3    H1 7515   0.125   6.046   1.048  2.1203 -1.2173  1.1419
 2517TIP3    H2 7516   0.082   5.907   1.008 -1.0964  0.3194 -1.0838
 2518TIP3   OH2 7517   5.017   2.194   0.083  0.7842  0.1572  0.2748
 2518TIP3    H1 7518   5.041   2.270   0.029  0.0277  1.4265  1.6409
 2518TIP3    H2 7519   4.921   2.198   0.088  0.7344 -0.9367  0.3234
 2519TIP3   OH2 7520   4.253   1.900   1.465 -0.3441  0.3374 -0.7671
 2519TIP3    H1 7521   4.244   1.880   1.558  1.2104  0.0612 -0.6401
 2519TIP3    H2 7522   4.227   1.992   1.457 -0.0233  0.5010  0.0238
 2520TIP3   OH2 7523   2.104   1.622   1.837 -0.1520  0.3236 -0.3364
 2520TIP3    H1 7524   2.063   1.617   1.751 -2.1076 -0.4193  0.5867
 2520TIP3    H2 7525   2.172   1.689   1.827 -2.0484  2.1688 -1.7881
 2521TIP3   OH2 7526   7.046   6.376   3.392 -0.0033 -0.4097 -0.0436
 2521TIP3    H1 7527   7.022   6.291   3.430  2.0243 -0.1820  2.0293
 2521TIP3    H2 7528   7.038   6.363   3.298  0.7699 -3.1375  0.1560
 2522TIP3   OH2 7529   1.953   3.074   1.881  0.1618 -0.9775 -0.1064
 2522TIP3    H1 7530   1.986   2.995   1.925 -0.4149 -1.8594 -1.2188
 2522TIP3    H2 7531   2.030   3.131   1.873  0.6855 -1.6150  0.3021
 2523TIP3   OH2 7532   6.852   1.257   3.091  0.0457 -0.9089  0.1130
 2523TIP3    H1 7533   6.798   1.213   3.156 -2.1251 -1.3753 -1.8920
 2523TIP3    H2 7534   6.815   1.346   3.086  0.1947 -0.8798 -0.4879
 2524TIP3   OH2 7535   7.047   5.967   2.393  0.8451 -0.1561  0.1804
 2524TIP3    H1 7536   6.968   5.921   2.363  0.5343  0.4811  0.0208
 2524TIP3    H2 7537   7.027   5.990   2.484  0.2255  1.3556 -0.3192
 2525TIP3   OH2 7538   5.197   6.421   1.866  0.0261 -0.5779  0.1064
 2525TIP3    H1 7539   5.194   6.325   1.872  0.3130 -0.6128 -0.2570
 2525TIP3    H2 7540   5.209   6.451   1.956 -0.8951 -0.8495  0.3279
 2526TIP3   OH2 7541   0.401   4.640   5.092  0.1806 -0.1691 -0.0314
 2526TIP3    H1 7542   0.338   4.568   5.089 -0.1342  0.1515 -1.6690
 2526TIP3    H2 7543   0.473   4.607   5.147 -1.5669 -0.3669  2.3181
 2527TIP3   OH2 7544   2.163   2.958   3.976  0.3436  0.3725 -0.4268
 2527TIP3    H1 7545   2.171   3.052   3.961  0.1001  0.1299 -2.3164
 2527TIP3    H2 7546   2.253   2.926   3.972  0.2947  0.3322 -1.3074
 2528TIP3   OH2 7547   3.048   1.098   4.120  0.3261  0.5323  0.1535
 2528TIP3    H1 7548   2.994   1.169   4.086 -1.3547 -1.5881 -1.8670
 2528TIP3    H2 7549   3.118   1.087   4.055  0.4030  0.1377  0.2999
 2529TIP3   OH2 7550   4.978   6.098   0.356  0.5950  0.4172  0.4716
 2529TIP3    H1 7551   5.059   6.109   0.306  0.6630  0.5947  0.6224
 2529TIP3    H2 7552   4.986   6.159   0.429  1.2198 -0.9520  1.6110
 2530TIP3   OH2 7553   0.406   2.379   0.242  0.4372 -0.0217  0.1314
 2530TIP3    H1 7554   0.428   2.292   0.208  0.4068 -0.1581  0.4598
 2530TIP3    H2 7555   0.488   2.428   0.236 -0.1923  0.8982 -2.9051
 2531TIP3   OH2 7556   6.223   0.247   1.202  0.4221 -0.6669 -0.1417
 2531TIP3    H1 7557   6.268   0.275   1.122  1.7094  0.9090  1.0677
 2531TIP3    H2 7558   6.161   0.317   1.221 -0.7257 -1.5930 -0.3612
 2532TIP3   OH2 7559   4.893   4.824   3.523 -0.0436 -0.2255 -0.5146
 2532TIP3    H1 7560   4.861   4.734   3.531  0.5246 -0.4593 -0.8688
 2532TIP3    H2 7561   4.829   4.866   3.465 -0.5549 -0.2730 -0.0021
 2533TIP3   OH2 7562   5.416   3.504   0.936  0.0719  0.8275 -0.2403
 2533TIP3    H1 7563   5.487   3.562   0.963 -0.3432  0.9086  0.7245
 2533TIP3    H2 7564   5.338   3.560   0.934 -0.1783  0.4885 -0.1072
 2534TIP3   OH2 7565   2.745   3.460   5.278 -0.2092  0.1364 -0.2967
 2534TIP3    H1 7566   2.756   3.503   5.363  0.0015  0.7030 -0.6027
 2534TIP3    H2 7567   2.653   3.433   5.277 -0.6100  1.4447 -0.4773
 2535TIP3   OH2 7568   0.728   1.163   1.921 -0.0591  0.0348  0.0630
 2535TIP3    H1 7569   0.803   1.178   1.979  0.0291  0.8475 -0.2368
 2535TIP3    H2 7570   0.652   1.189   1.974 -0.0198  0.3146 -0.0121
 2536TIP3   OH2 7571   0.323   1.806   0.153 -0.2144 -0.2485  0.8886
 2536TIP3    H1 7572   0.312   1.766   0.067  0.7476  0.9650  0.1656
 2536TIP3    H2 7573   0.296   1.897   0.140  1.0372  0.2357  1.5752
 2537TIP3   OH2 7574   0.008   6.445   0.142 -0.7370  0.0829  0.4462
 2537TIP3    H1 7575   0.013   6.498   0.222  0.8784 -0.2387  0.5904
 2537TIP3    H2 7576   0.004   6.509   0.071 -1.0916  0.3768  0.7245
 2538TIP3   OH2 7577   3.834   1.980   1.332 -0.5110 -0.4589 -0.0435
 2538TIP3    H1 7578   3.843   1.894   1.374 -0.8706 -0.1861  0.6196
 2538TIP3    H2 7579   3.740   1.993   1.325 -0.4919  0.3768  0.9432
 2539TIP3   OH2 7580   4.151   2.751   2.440 -0.0611  0.2104  0.1910
 2539TIP3    H1 7581   4.165   2.808   2.516 -0.0352  1.0714 -0.4413
 2539TIP3    H2 7582   4.158   2.662   2.474 -0.8068  0.5755  1.3341
 2540TIP3   OH2 7583   5.576   2.877   4.402 -0.0311 -0.3116 -1.0229
 2540TIP3    H1 7584   5.669   2.858   4.389  0.4578  1.6886 -0.7006
 2540TIP3    H2 7585   5.556   2.945   4.337 -0.8048  0.5364  0.0640
 2541TIP3   OH2 7586   6.485   3.684   3.500 -0.2784  0.3912  0.5490
 2541TIP3    H1 7587   6.574   3.693   3.466 -0.2582 -1.3334  0.0521
 2541TIP3    H2 7588   6.435   3.750   3.452  0.5654  0.8127  0.2256
 2542TIP3   OH2 7589   6.999   1.791   3.657  0.3341 -0.2353 -1.0375
 2542TIP3    H1 7590   6.953   1.717   3.695  0.5665 -0.2044 -0.6915
 2542TIP3    H2 7591   7.087   1.758   3.637  0.2832 -0.1909 -1.3489
 2543TIP3   OH2 7592   6.341   3.187   0.473 -0.0135  0.3068  0.0315
 2543TIP3    H1 7593   6.314   3.276   0.495 -0.7165  0.1337 -0.1008
 2543TIP3    H2 7594   6.271   3.131   0.507 -1.1846  0.0225 -2.5871
 2544TIP3   OH2 7595   6.821   2.754   4.575 -0.4416  0.1024  0.3492
 2544TIP3    H1 7596   6.747   2.702   4.544 -0.3157  0.5008 -0.6564
 2544TIP3    H2 7597   6.891   2.736   4.512 -0.1460  0.8750  0.4493
 2545TIP3   OH2 7598   0.453   4.649   1.213 -0.6746 -0.6868 -0.2959
 2545TIP3    H1 7599   0.411   4.721   1.166  0.0617  0.1560  0.3091
 2545TIP3    H2 7600   0.495   4.597   1.144  3.0556  2.2276 -0.4935
 2546TIP3   OH2 7601   5.101   2.094   0.378  0.6262  0.1534 -0.3084
 2546TIP3    H1 7602   5.028   2.032   0.384  1.3068 -0.6655 -0.1243
 2546TIP3    H2 7603   5.084   2.144   0.298  0.7063 -1.1558 -1.1838
 2547TIP3   OH2 7604   5.465   1.153   5.486 -0.6034  0.2036 -0.7241
 2547TIP3    H1 7605   5.479   1.231   5.541  0.2263 -0.3351 -0.1475
 2547TIP3    H2 7606   5.382   1.117   5.516 -0.3650  0.1549 -0.1067
 2548TIP3   OH2 7607   7.073   6.343   4.266  0.3540  0.0158 -0.2237
 2548TIP3    H1 7608   7.126   6.379   4.337 -0.2657  0.7177 -0.1119
 2548TIP3    H2 7609   6.983   6.356   4.293 -0.0433 -3.8877  1.0203
 2549TIP3   OH2 7610   3.336   6.256   0.700 -0.3239 -0.2089 -0.1782
 2549TIP3    H1 7611   3.366   6.196   0.768 -0.2953 -0.1642 -0.1511
 2549TIP3    H2 7612   3.341   6.343   0.741 -0.9135 -0.2468 -0.0205
 2550TIP3   OH2 7613   2.399   2.949   2.030 -0.0934 -0.2995  0.3898
 2550TIP3    H1 7614   2.407   3.030   2.080  2.3082  0.4059 -0.9378
 2550TIP3    H2 7615   2.385   2.978   1.940 -1.2266 -1.4477  0.1655
 2551TIP3   OH2 7616   4.839   6.514   5.427  0.0538  0.2374 -0.4029
 2551TIP3    H1 7617   4.813   6.430   5.465 -0.0877  0.4603 -0.0149
 2551TIP3    H2 7618   4.831   6.577   5.498  0.8471  0.4585 -0.4952
 2552TIP3   OH2 7619   4.461   5.335   3.295 -0.4159 -0.3131 -0.8127
 2552TIP3    H1 7620   4.535   5.314   3.353  0.9810  1.9942 -1.6577
 2552TIP3    H2 7621   4.384   5.331   3.353  0.9169  1.8805  1.3035
 2553TIP3   OH2 7622   0.434   0.066   2.277 -0.0291 -0.0103 -0.0621
 2553TIP3    H1 7623   0.418   0.127   2.348 -1.8511 -0.4857 -0.0030
 2553TIP3    H2 7624   0.412   0.115   2.197  1.7725  0.4458 -0.3112
 2554TIP3   OH2 7625   5.291   6.331   2.550 -0.7716 -0.4522  0.2303
 2554TIP3    H1 7626   5.314   6.254   2.603  2.3670 -0.5021 -0.9732
 2554TIP3    H2 7627   5.364   6.340   2.488 -3.2177  0.8199 -2.7514
 2555TIP3   OH2 7628   3.398   6.118   0.917  0.1862  0.2921  0.5425
 2555TIP3    H1 7629   3.489   6.090   0.901 -0.3930 -1.4467  0.0452
 2555TIP3    H2 7630   3.384   6.098   1.009  0.3436  0.6964  0.6565
 2556TIP3   OH2 7631   4.293   0.743   0.769  0.5778 -0.3574  0.5687
 2556TIP3    H1 7632   4.222   0.700   0.817  0.1502 -1.2281 -0.7849
 2556TIP3    H2 7633   4.373   0.699   0.800  0.3828 -0.4310  0.9754
 2557TIP3   OH2 7634   5.891   2.052   0.292  0.4226 -0.0122  0.0903
 2557TIP3    H1 7635   5.797   2.049   0.311  0.5998 -0.9836  0.9117
 2557TIP3    H2 7636   5.898   2.018   0.203 -0.0167  0.0887  0.0126
 2558TIP3   OH2 7637   0.081   0.907   3.855 -0.0407 -0.1529  0.3884
 2558TIP3    H1 7638   0.121   0.822   3.873  1.0038  0.3814  0.6606
 2558TIP3    H2 7639   0.073   0.949   3.940 -0.9175 -0.1237  0.3005
 2559TIP3   OH2 7640   3.132   6.648   5.277 -0.3449  0.4281  1.1076
 2559TIP3    H1 7641   3.166   6.559   5.268  1.5440  1.0558  1.4224
 2559TIP3    H2 7642   3.037   6.639   5.271 -0.1478 -1.4641  0.0562
 2560TIP3   OH2 7643   2.880   0.673   2.847 -0.1076 -0.8412 -0.3757
 2560TIP3    H1 7644   2.965   0.703   2.879  0.2031 -0.6541 -1.3407
 2560TIP3    H2 7645   2.836   0.638   2.924  1.2431 -1.8680 -0.0362
 2561TIP3   OH2 7646   6.556   1.807   0.179  0.0421  0.8107  0.0698
 2561TIP3    H1 7647   6.486   1.836   0.237 -0.4199 -0.2065  0.0484
 2561TIP3    H2 7648   6.610   1.750   0.234  0.7151  1.3879  0.0182
 2562TIP3   OH2 7649   6.694   6.199   3.641 -0.6704  0.1272  0.1397
 2562TIP3    H1 7650   6.706   6.221   3.549  0.3189  0.2890  0.2953
 2562TIP3    H2 7651   6.599   6.194   3.653 -0.7963 -0.3405 -0.9890
 2563TIP3   OH2 7652   3.687   1.899   5.169 -0.7095  0.4164  0.9417
 2563TIP3    H1 7653   3.769   1.849   5.165 -1.6287 -1.0829 -0.4785
 2563TIP3    H2 7654   3.706   1.980   5.122  0.1697  0.4192  1.2888
 2564TIP3   OH2 7655   1.665   2.411   5.039  0.7341 -0.1632  0.1686
 2564TIP3    H1 7656   1.629   2.500   5.043  0.3382 -0.2985 -0.2729
 2564TIP3    H2 7657   1.759   2.424   5.027  0.7461  0.1985  0.6416
 2565TIP3   OH2 7658   0.529   3.951   2.225 -0.4084  0.0138  0.0113
 2565TIP3    H1 7659   0.456   4.013   2.228 -0.7221 -0.2954 -1.0011
 2565TIP3    H2 7660   0.565   3.961   2.137  0.0537 -0.6605  0.1204
 2566TIP3   OH2 7661   2.749   4.260   0.136  0.0782  0.6355 -0.4528
 2566TIP3    H1 7662   2.667   4.212   0.145  0.0922  0.8039  0.8355
 2566TIP3    H2 7663   2.732   4.346   0.176  0.5310  1.1046 -1.2462
 2567TIP3   OH2 7664   6.617   1.678   4.138  0.3447 -0.4927 -0.0926
 2567TIP3    H1 7665   6.689   1.665   4.200 -0.4610 -0.7459  0.8017
 2567TIP3    H2 7666   6.569   1.596   4.139 -0.4766 -0.0176 -0.0065
 2568TIP3   OH2 7667   2.702   4.711   4.099 -0.0175 -0.1181  0.7955
 2568TIP3    H1 7668   2.663   4.640   4.046 -0.6206  0.4348  0.4807
 2568TIP3    H2 7669   2.628   4.747   4.148  0.1850  0.6441  0.5479
 2569TIP3   OH2 7670   4.134   1.574   0.533 -0.1029  0.5593 -0.2815
 2569TIP3    H1 7671   4.056   1.630   0.526 -0.1184  0.4275 -1.4739
 2569TIP3    H2 7672   4.127   1.534   0.620 -1.5807  0.2594 -0.5022
 2570TIP3   OH2 7673   5.330   4.625   2.544  0.2409  0.2774  0.0779
 2570TIP3    H1 7674   5.268   4.695   2.524 -0.8050 -0.0788  1.8319
 2570TIP3    H2 7675   5.276   4.555   2.581  1.4921 -0.6951  0.1461
 2571TIP3   OH2 7676   5.904   2.167   1.287 -0.2453 -0.4455  0.1909
 2571TIP3    H1 7677   5.938   2.196   1.202  1.8312 -1.4889  0.5914
 2571TIP3    H2 7678   5.910   2.244   1.343  1.6164 -0.6001  0.2547
 2572TIP3   OH2 7679   5.782   4.342   3.121 -0.7262  0.1748 -0.3552
 2572TIP3    H1 7680   5.855   4.404   3.123 -0.9098  0.3891 -0.3481
 2572TIP3    H2 7681   5.822   4.258   3.143  0.2991 -0.4817 -4.0002
 2573TIP3   OH2 7682   4.172   3.270   2.857 -0.1542 -0.1539 -0.4573
 2573TIP3    H1 7683   4.124   3.339   2.903 -1.1890 -1.9542  1.3288
 2573TIP3    H2 7684   4.263   3.299   2.859 -0.1309 -0.0392  2.8100
 2574TIP3   OH2 7685   0.666   1.740   0.703  0.4605 -0.3572  0.3995
 2574TIP3    H1 7686   0.618   1.818   0.729  0.2515 -0.3753  0.0670
 2574TIP3    H2 7687   0.674   1.689   0.784  0.0320 -0.2961  0.4809
 2575TIP3   OH2 7688   2.082   0.105   5.510 -0.3862  0.4175 -0.7379
 2575TIP3    H1 7689   2.171   0.127   5.537 -0.5186  0.1705 -0.0668
 2575TIP3    H2 7690   2.074   0.012   5.529 -1.1708  0.6857  0.3494
 2576TIP3   OH2 7691   3.488   1.510   4.896  0.3829 -0.2863 -0.1200
 2576TIP3    H1 7692   3.504   1.584   4.954  1.2107 -0.4431 -0.1284
 2576TIP3    H2 7693   3.572   1.464   4.892  0.1910 -0.5874 -1.0058
 2577TIP3   OH2 7694   2.275  -0.014   3.143 -0.1770  0.0588  0.0710
 2577TIP3    H1 7695   2.217  -0.017   3.219 -2.0223  2.6803 -1.0790
 2577TIP3    H2 7696   2.255   0.070   3.101  3.0711  0.1709 -1.5495
 2578TIP3   OH2 7697   4.377   1.526   0.191 -0.1137  0.1474 -0.1045
 2578TIP3    H1 7698   4.314   1.562   0.129  0.8514  2.2438  0.0415
 2578TIP3    H2 7699   4.406   1.601   0.243  2.5146 -0.6841 -0.2134
 2579TIP3   OH2 7700   6.863   5.168   2.192  0.4386 -0.2889 -0.0750
 2579TIP3    H1 7701   6.877   5.240   2.252 -1.1464  0.7996 -0.9486
 2579TIP3    H2 7702   6.835   5.209   2.110 -0.7392 -1.8668 -0.5282
 2580TIP3   OH2 7703   3.750   0.902   5.268 -0.1097  0.6500  0.0414
 2580TIP3    H1 7704   3.826   0.884   5.323 -1.0569  0.3613  1.3087
 2580TIP3    H2 7705   3.704   0.973   5.314 -1.0508  0.2413 -0.2497
 2581TIP3   OH2 7706   1.524   1.664   5.267 -0.3710  0.3159  0.1242
 2581TIP3    H1 7707   1.617   1.685   5.263 -0.4393  0.5492 -0.2099
 2581TIP3    H2 7708   1.507   1.615   5.187 -0.7451  1.1035 -0.2874
 2582TIP3   OH2 7709   1.252   2.460   2.553 -0.1573 -0.0633  0.0298
 2582TIP3    H1 7710   1.167   2.448   2.598 -0.1051 -0.1705  0.1005
 2582TIP3    H2 7711   1.238   2.535   2.496  0.5380  1.8198  2.1597
 2583TIP3   OH2 7712   0.808   5.871   5.655 -0.7023 -0.1379 -0.2565
 2583TIP3    H1 7713   0.719   5.893   5.681  0.0487  0.4853  2.0541
 2583TIP3    H2 7714   0.856   5.864   5.738  1.2309 -1.2037 -1.3934
 2584TIP3   OH2 7715   0.178   0.537   0.415  0.0238 -0.0351  0.0850
 2584TIP3    H1 7716   0.120   0.612   0.420 -0.4049 -0.3427 -0.2677
 2584TIP3    H2 7717   0.188   0.508   0.506 -0.5928 -0.1514  0.1148
 2585TIP3   OH2 7718   6.955   2.317   5.579 -0.2230  0.0610  0.6118
 2585TIP3    H1 7719   6.893   2.253   5.615 -1.1386  0.1843 -0.6816
 2585TIP3    H2 7720   6.994   2.273   5.503  0.3157  0.4721  0.6422
 2586TIP3   OH2 7721   5.451   5.169   4.647  0.5103  0.2165  0.0273
 2586TIP3    H1 7722   5.386   5.215   4.700  1.2584  1.5568 -0.1837
 2586TIP3    H2 7723   5.431   5.195   4.557 -0.9108 -2.2319 -0.4624
 2587TIP3   OH2 7724   2.331   6.434   2.022  0.1512  0.4064  0.2671
 2587TIP3    H1 7725   2.389   6.445   1.947 -1.0769  0.2708 -0.7464
 2587TIP3    H2 7726   2.362   6.355   2.067  1.6704  1.1999  0.6518
 2588TIP3   OH2 7727   0.344   0.200   3.673 -0.3660 -0.3439 -0.1195
 2588TIP3    H1 7728   0.338   0.138   3.746 -2.3890 -0.0165  0.0457
 2588TIP3    H2 7729   0.257   0.198   3.633  0.6659 -0.4473 -2.4868
 2589TIP3   OH2 7730   4.861   3.483   0.212  0.3920  0.2049 -0.1799
 2589TIP3    H1 7731   4.802   3.480   0.287  0.8635 -2.3780  0.2071
 2589TIP3    H2 7732   4.817   3.431   0.145  1.8683 -1.2377 -0.1037
 2590TIP3   OH2 7733   1.055   6.018   5.599  0.6373 -0.2472 -0.2573
 2590TIP3    H1 7734   1.055   6.088   5.534  1.5750 -0.4182 -0.4622
 2590TIP3    H2 7735   0.964   5.988   5.603  0.0074  1.6365  0.5530
 2591TIP3   OH2 7736   1.240   2.851   3.057  0.0082  0.3836  0.4372
 2591TIP3    H1 7737   1.211   2.773   3.106  0.6071 -0.4112 -0.4361
 2591TIP3    H2 7738   1.269   2.816   2.973 -1.7916  1.8121 -0.8436
 2592TIP3   OH2 7739   2.151   5.395   5.274 -0.2118 -0.4695 -0.7961
 2592TIP3    H1 7740   2.214   5.366   5.339  0.2071  1.9824  0.0207
 2592TIP3    H2 7741   2.186   5.364   5.190  1.1233 -0.7147 -0.1682
 2593TIP3   OH2 7742   2.362   5.265   2.609 -0.2326 -0.4474  0.3802
 2593TIP3    H1 7743   2.355   5.291   2.517 -1.6125  0.0321  0.6095
 2593TIP3    H2 7744   2.457   5.266   2.626  0.1750 -1.8513 -1.3877
 2594TIP3   OH2 7745   4.059   4.696   4.480 -0.2887 -0.0755 -0.6621
 2594TIP3    H1 7746   4.137   4.737   4.518  0.2999 -0.9724 -0.8594
 2594TIP3    H2 7747   4.002   4.680   4.555  0.5728 -1.2075 -0.2079
 2595TIP3   OH2 7748   0.614   2.660   0.901 -0.6217  0.0109 -0.5168
 2595TIP3    H1 7749   0.707   2.667   0.921 -0.9908  0.7017  1.1084
 2595TIP3    H2 7750   0.585   2.750   0.886 -1.4516  0.0548  1.1817
 2596TIP3   OH2 7751   2.942   4.551   3.959 -0.3182 -0.4329 -0.3415
 2596TIP3    H1 7752   2.977   4.581   3.876  1.6087 -1.8144 -0.0847
 2596TIP3    H2 7753   2.867   4.609   3.976  0.0093  0.6683 -2.3914
 2597TIP3   OH2 7754   4.031   2.336   5.583 -0.5361 -0.0130 -0.0195
 2597TIP3    H1 7755   4.108   2.381   5.619 -0.2511 -0.1736 -0.4162
 2597TIP3    H2 7756   4.001   2.394   5.513 -0.0906 -0.4908 -0.6195
 2598TIP3   OH2 7757   7.208   0.250   5.194  0.1225  0.0680 -0.2896
 2598TIP3    H1 7758   7.156   0.319   5.236  1.1920  0.9534 -0.3744
 2598TIP3    H2 7759   7.235   0.193   5.266 -0.9872 -0.4427 -0.2506
 2599TIP3   OH2 7760   1.303   4.946   4.577 -0.0901  0.3779  0.3276
 2599TIP3    H1 7761   1.273   5.032   4.547  1.7734  0.7910 -0.5028
 2599TIP3    H2 7762   1.397   4.957   4.592 -0.2881 -0.7459  3.0971
 2600TIP3   OH2 7763   1.816   3.583   2.499 -0.0213  0.3159 -0.8132
 2600TIP3    H1 7764   1.869   3.660   2.479 -1.1858  0.8241 -2.1325
 2600TIP3    H2 7765   1.792   3.594   2.591  2.0111  0.1236 -0.2068
 2601TIP3   OH2 7766   4.280   6.353   5.807 -0.4501  0.5767 -0.3967
 2601TIP3    H1 7767   4.187   6.375   5.797 -0.5661  0.8920  1.1468
 2601TIP3    H2 7768   4.326   6.432   5.777 -0.7556  1.3248  1.0366
 2602TIP3   OH2 7769   4.416   3.663   2.374  0.4363 -0.6662  0.0272
 2602TIP3    H1 7770   4.396   3.708   2.293 -0.3855 -1.0404  0.0118
 2602TIP3    H2 7771   4.500   3.620   2.358  0.2017 -0.8673 -0.6864
 2603TIP3   OH2 7772   2.819   0.141   5.683  0.3688 -0.2781  0.0375
 2603TIP3    H1 7773   2.778   0.087   5.751  0.2244 -0.7035 -0.3823
 2603TIP3    H2 7774   2.900   0.094   5.661 -1.0812 -1.9141 -2.3389
 2604TIP3   OH2 7775   4.219   4.524   3.976 -0.6710 -0.3152  0.4232
 2604TIP3    H1 7776   4.251   4.549   3.889  0.9055  1.4439  1.4326
 2604TIP3    H2 7777   4.267   4.444   3.997 -0.8769 -0.6095 -0.2063
 2605TIP3   OH2 7778   7.037   2.545   5.280  0.1590  0.9668  0.3872
 2605TIP3    H1 7779   7.001   2.548   5.369  2.9272 -0.0967  1.6833
 2605TIP3    H2 7780   7.016   2.457   5.249  1.5980  0.2875  1.2072
 2606TIP3   OH2 7781   2.615   0.707   3.258 -0.3839 -0.6977  0.5914
 2606TIP3    H1 7782   2.646   0.664   3.338  0.7328  2.2696  1.9184
 2606TIP3    H2 7783   2.649   0.796   3.265 -1.3831  0.0528 -2.6032
 2607TIP3   OH2 7784   5.135   1.960   4.174 -0.0936  0.1041  0.1701
 2607TIP3    H1 7785   5.142   2.047   4.134  0.9720  0.9932  2.1875
 2607TIP3    H2 7786   5.127   1.977   4.268 -1.1061 -1.9602  0.5030
 2608TIP3   OH2 7787   0.260   6.670   5.483 -0.6438 -0.2258 -0.1879
 2608TIP3    H1 7788   0.248   6.690   5.576 -0.3641  0.4246 -0.2869
 2608TIP3    H2 7789   0.173   6.685   5.445 -0.5736  0.2694 -0.1618
 2609TIP3   OH2 7790   0.605   4.324   1.132 -0.1114  0.3868 -0.2209
 2609TIP3    H1 7791   0.658   4.337   1.053 -2.0439  2.8223 -1.2382
 2609TIP3    H2 7792   0.531   4.271   1.102 -0.2527  0.2993  0.2697
 2610TIP3   OH2 7793   6.936   4.520   2.502  0.0555 -0.6787 -0.2374
 2610TIP3    H1 7794   7.019   4.525   2.550  0.8184 -0.9245 -1.4989
 2610TIP3    H2 7795   6.961   4.497   2.413 -1.4148 -1.2426 -0.5340
 2611TIP3   OH2 7796   0.349   4.878   1.113 -0.3391  0.8565 -0.7265
 2611TIP3    H1 7797   0.260   4.875   1.150 -0.6584  0.4757 -1.5157
 2611TIP3    H2 7798   0.382   4.965   1.137 -0.1118  0.2309  1.4083
 2612TIP3   OH2 7799   5.832   3.648   3.630  0.3715  0.1490  0.1024
 2612TIP3    H1 7800   5.823   3.581   3.562 -0.5875 -0.0449  0.4084
 2612TIP3    H2 7801   5.769   3.623   3.698  0.0499  1.3050  0.2619
 2613TIP3   OH2 7802   5.387   5.855   1.648 -0.5646  0.3064 -0.2447
 2613TIP3    H1 7803   5.405   5.768   1.684  0.8493  0.5363 -0.3705
 2613TIP3    H2 7804   5.444   5.863   1.572 -3.2130 -0.0263 -2.4488
 2614TIP3   OH2 7805   4.533   1.737   2.277 -0.4204 -0.3326 -0.4086
 2614TIP3    H1 7806   4.580   1.767   2.355 -0.8889 -1.9308  0.5364
 2614TIP3    H2 7807   4.602   1.718   2.213 -0.0791  1.9869 -0.8176
 2615TIP3   OH2 7808   2.632   0.804   2.616  0.3210 -0.5338  0.3800
 2615TIP3    H1 7809   2.638   0.832   2.708 -1.1457 -0.7838  0.5725
 2615TIP3    H2 7810   2.705   0.743   2.605  1.9128  1.1815  0.7200
 2616TIP3   OH2 7811   1.311   0.508   1.962 -0.1352 -0.1600 -0.1010
 2616TIP3    H1 7812   1.356   0.557   1.893  1.5036 -0.4905  0.6946
 2616TIP3    H2 7813   1.333   0.554   2.043 -2.1138  0.2836  0.2553
 2617TIP3   OH2 7814   0.698   6.088   0.147 -0.6583 -0.4500  0.4313
 2617TIP3    H1 7815   0.645   6.156   0.187  2.1408  0.7975  2.3773
 2617TIP3    H2 7816   0.694   6.015   0.209 -0.2161 -0.3668  0.5676
 2618TIP3   OH2 7817   6.853  -0.007   0.548 -0.7191  0.2766  0.1223
 2618TIP3    H1 7818   6.926   0.054   0.535  0.6674 -1.2748  0.3170
 2618TIP3    H2 7819   6.793   0.039   0.606 -0.1583  1.7940 -0.4545
 2619TIP3   OH2 7820   1.128   0.774   2.293  0.1770  0.0051  0.3530
 2619TIP3    H1 7821   1.122   0.839   2.223 -0.1900  0.5149  0.8478
 2619TIP3    H2 7822   1.211   0.792   2.336 -0.4668  0.9605  1.2564
 2620TIP3   OH2 7823   2.131   0.992   0.713 -0.4091 -0.3780 -0.4952
 2620TIP3    H1 7824   2.081   0.953   0.642 -2.2874 -2.0803  1.5811
 2620TIP3    H2 7825   2.190   0.923   0.742 -0.6915 -0.2401  0.4668
 2621TIP3   OH2 7826   0.534   1.112   0.174  0.5146 -0.2141  0.1620
 2621TIP3    H1 7827   0.500   1.030   0.210 -0.7185  0.3125  0.2721
 2621TIP3    H2 7828   0.508   1.178   0.239  1.7991  0.2254  0.2527
 2622TIP3   OH2 7829   5.709   1.562   0.110 -0.9595 -0.6699 -0.5150
 2622TIP3    H1 7830   5.746   1.590   0.027 -1.3548  1.3151 -0.0601
 2622TIP3    H2 7831   5.614   1.562   0.096 -1.0337 -0.2355 -0.0464
 2623TIP3   OH2 7832   1.607   2.577   0.227 -0.0455 -0.6067  0.1501
 2623TIP3    H1 7833   1.695   2.615   0.231 -0.2058 -0.3469  1.9907
 2623TIP3    H2 7834   1.570   2.593   0.314 -2.8118  1.3535 -1.2317
 2624TIP3   OH2 7835   5.667   0.861   3.870  0.3370  0.3090  0.1927
 2624TIP3    H1 7836   5.760   0.871   3.849  1.1198 -3.0838  1.4078
 2624TIP3    H2 7837   5.665   0.797   3.941 -3.0237 -1.9730 -1.6916
 2625TIP3   OH2 7838   0.321   5.864   4.783 -0.5150 -0.0365  0.3708
 2625TIP3    H1 7839   0.246   5.901   4.828  0.1062  0.4220  1.0600
 2625TIP3    H2 7840   0.344   5.928   4.716  0.6701  0.9728  1.6801
 2626TIP3   OH2 7841   2.598   0.842   1.627  0.2684 -0.1998 -0.6318
 2626TIP3    H1 7842   2.633   0.924   1.662  1.3147 -0.6623 -0.5351
 2626TIP3    H2 7843   2.503   0.850   1.635  0.3696  0.8967 -0.4036
 2627TIP3   OH2 7844   3.971   2.333   4.413 -0.1632  0.3586 -0.0176
 2627TIP3    H1 7845   4.047   2.368   4.460 -1.3762  1.1101  1.4591
 2627TIP3    H2 7846   3.975   2.374   4.326  0.0416  1.9378  0.7177
 2628TIP3   OH2 7847   6.606   5.483   2.258  0.5514 -0.4143  0.8445
 2628TIP3    H1 7848   6.532   5.473   2.319  0.3916 -1.4707  0.5059
 2628TIP3    H2 7849   6.565   5.497   2.173  0.7428 -0.5440  0.7297
 2629TIP3   OH2 7850   4.673   3.065   2.842  0.7814  0.7808  0.0032
 2629TIP3    H1 7851   4.605   3.107   2.896  1.0292  0.4289  0.6073
 2629TIP3    H2 7852   4.743   3.130   2.839  0.9933  0.5909  0.5845
 2630TIP3   OH2 7853   0.404   1.021   0.970 -0.0345 -0.5612 -0.1330
 2630TIP3    H1 7854   0.358   0.937   0.968  1.2043 -1.2686  0.4706
 2630TIP3    H2 7855   0.374   1.065   0.890  0.1361 -2.0294 -1.0543
 2631TIP3   OH2 7856   4.023   0.096   5.192  0.1393  0.3196 -0.1052
 2631TIP3    H1 7857   4.009   0.167   5.129 -1.8503 -0.6890 -0.8947
 2631TIP3    H2 7858   3.989   0.130   5.275 -0.5622  0.4042 -0.4207
 2632TIP3   OH2 7859   3.454   1.134   1.707 -0.5213 -0.4402 -0.0374
 2632TIP3    H1 7860   3.388   1.134   1.638  1.2063  0.3053 -1.7793
 2632TIP3    H2 7861   3.466   1.041   1.729 -0.9905 -0.7026 -0.8497
 2633TIP3   OH2 7862   0.491   4.167   2.739 -0.4411  0.0309  0.3535
 2633TIP3    H1 7863   0.539   4.220   2.803 -0.8427  0.8005  0.0264
 2633TIP3    H2 7864   0.399   4.187   2.755 -0.5031  1.1364 -1.2260
 2634TIP3   OH2 7865   5.346   1.071   2.537  0.6360 -0.3835 -0.3488
 2634TIP3    H1 7866   5.364   1.066   2.631 -0.3093  0.9122 -0.0653
 2634TIP3    H2 7867   5.306   0.986   2.516 -1.1693  0.0819  0.9239
 2635TIP3   OH2 7868   1.150   5.641   2.377  0.2887 -0.0998 -0.3180
 2635TIP3    H1 7869   1.062   5.665   2.349  0.2337  0.0385 -0.0376
 2635TIP3    H2 7870   1.206   5.666   2.304 -0.0962 -1.8765 -1.2786
 2636TIP3   OH2 7871   2.969   5.005   2.269 -0.3558 -0.2194  0.4094
 2636TIP3    H1 7872   2.959   5.085   2.322  0.6315  0.1692  0.0305
 2636TIP3    H2 7873   2.887   4.999   2.219 -0.4143  0.5972  0.3913
 2637TIP3   OH2 7874   4.269   3.714   3.268  0.5344 -0.4873 -0.0635
 2637TIP3    H1 7875   4.297   3.641   3.213 -0.0239 -0.0008 -1.0173
 2637TIP3    H2 7876   4.342   3.728   3.328  1.2039 -0.9651 -0.7527
 2638TIP3   OH2 7877   6.705   4.709   3.897 -0.3162  0.5996 -0.1015
 2638TIP3    H1 7878   6.687   4.739   3.987 -0.4076  0.8401 -0.1989
 2638TIP3    H2 7879   6.639   4.754   3.844 -1.2598 -0.7190 -0.1015
 2639TIP3   OH2 7880   0.346   2.196   4.819  0.1345 -0.3296 -0.3274
 2639TIP3    H1 7881   0.259   2.222   4.790 -0.5513 -2.4743 -0.3503
 2639TIP3    H2 7882   0.379   2.272   4.867 -1.7388  0.5153 -0.2990
 2640TIP3   OH2 7883   1.108   4.239   5.705  0.1098  0.2876  0.5551
 2640TIP3    H1 7884   1.094   4.331   5.730 -1.1998  1.2439 -2.9765
 2640TIP3    H2 7885   1.054   4.189   5.766 -1.2972  2.1480  0.9352
 2641TIP3   OH2 7886   7.203   4.016   2.215 -0.2509 -0.1350  0.2862
 2641TIP3    H1 7887   7.173   4.040   2.302 -0.2016 -0.6243  0.4400
 2641TIP3    H2 7888   7.199   4.097   2.165 -1.2983 -0.0705  0.4517
 2642TIP3   OH2 7889   1.268   5.086   5.334 -0.2447 -0.1749 -0.3419
 2642TIP3    H1 7890   1.263   5.037   5.252 -1.6772  0.1658 -0.4897
 2642TIP3    H2 7891   1.208   5.160   5.322  1.3227  1.2465  0.1352
 2643TIP3   OH2 7892   0.099   0.084   0.821 -0.2769  0.1756 -0.0878
 2643TIP3    H1 7893   0.129   0.091   0.730 -0.7145 -0.3404 -0.2800
 2643TIP3    H2 7894   0.006   0.107   0.817  0.0628  1.7436  0.4991
 2644TIP3   OH2 7895   1.845   1.679   0.025  0.5024  0.2309 -0.6043
 2644TIP3    H1 7896   1.816   1.756   0.075 -2.3076 -1.1031  0.0446
 2644TIP3    H2 7897   1.786   1.609   0.054  0.5124 -1.2778 -3.8380
 2645TIP3   OH2 7898   0.332   0.439   3.389  0.3407 -0.5913 -0.1626
 2645TIP3    H1 7899   0.409   0.432   3.445  0.1849  0.3749  0.1951
 2645TIP3    H2 7900   0.346   0.374   3.321  0.7378 -1.4974  0.7558
 2646TIP3   OH2 7901   2.919   4.246   4.024 -0.0198 -0.1791 -0.2862
 2646TIP3    H1 7902   2.898   4.221   3.934  0.4884 -0.1882 -0.4104
 2646TIP3    H2 7903   2.842   4.223   4.075 -1.0723  1.5704 -1.0179
 2647TIP3   OH2 7904   0.171   1.701   0.374  0.0382  0.3277 -0.0916
 2647TIP3    H1 7905   0.208   1.767   0.431  1.7957 -1.4020  0.9098
 2647TIP3    H2 7906   0.230   1.699   0.299 -0.6174  0.5962 -0.6294
 2648TIP3   OH2 7907   2.420   1.747   3.104  0.3812 -0.5496 -0.7614
 2648TIP3    H1 7908   2.488   1.807   3.073  0.2494  0.5286  0.9240
 2648TIP3    H2 7909   2.365   1.731   3.027  1.3157  0.2614 -1.6239
 2649TIP3   OH2 7910   0.359   4.893   0.085 -0.1151 -0.6625  0.0290
 2649TIP3    H1 7911   0.294   4.888   0.015  1.2147 -1.4692 -1.2106
 2649TIP3    H2 7912   0.415   4.816   0.071  0.8708 -0.2031  1.2718
 2650TIP3   OH2 7913   3.274   2.805   3.128  0.4457  0.4835  0.7358
 2650TIP3    H1 7914   3.214   2.782   3.199 -0.2213  1.8917  0.6821
 2650TIP3    H2 7915   3.270   2.732   3.067 -2.2743  1.0502  0.0863
 2651TIP3   OH2 7916   2.717   0.621   1.514 -0.0531  0.2167 -0.0445
 2651TIP3    H1 7917   2.715   0.539   1.562  0.2474  1.2272  1.7940
 2651TIP3    H2 7918   2.651   0.676   1.557 -0.6632  0.7686 -1.6017
 2652TIP3   OH2 7919   6.467   5.064   3.442 -0.0923  0.6874  0.0970
 2652TIP3    H1 7920   6.545   5.019   3.408 -1.2560 -2.3161  1.1117
 2652TIP3    H2 7921   6.501   5.124   3.509  1.4008 -0.0853  0.0737
 2653TIP3   OH2 7922   3.490   4.604   0.825 -0.1411  0.0305 -0.1028
 2653TIP3    H1 7923   3.543   4.541   0.776 -2.2002 -3.6873  1.9251
 2653TIP3    H2 7924   3.528   4.603   0.913 -0.6444  1.1568  0.1400
 2654TIP3   OH2 7925   4.069   4.842   2.092  0.1204  0.9012 -0.4023
 2654TIP3    H1 7926   4.129   4.799   2.031 -1.1541 -1.4681 -0.0991
 2654TIP3    H2 7927   4.060   4.780   2.165 -2.3549  1.3054 -0.2682
 2655TIP3   OH2 7928   3.987   6.090   3.048  0.1357  0.4657 -0.2467
 2655TIP3    H1 7929   4.025   6.003   3.061  1.0520  0.7332 -0.9983
 2655TIP3    H2 7930   3.928   6.079   2.973 -0.2933  0.3424  0.1040
 2656TIP3   OH2 7931   6.957   6.363   3.111 -0.7023 -0.0705  0.3063
 2656TIP3    H1 7932   6.896   6.423   3.068 -0.8444 -2.4512 -3.2041
 2656TIP3    H2 7933   6.900   6.295   3.148 -0.3689 -0.1331  0.7094
 2657TIP3   OH2 7934   4.968   6.081   5.009 -0.1669 -0.1264 -0.4211
 2657TIP3    H1 7935   4.976   5.991   5.040 -0.0371 -0.7833 -2.2337
 2657TIP3    H2 7936   4.882   6.085   4.968  0.2124  0.2876 -1.1999
 2658TIP3   OH2 7937   3.575   6.086   4.385 -0.2229 -0.3353  0.1670
 2658TIP3    H1 7938   3.587   5.992   4.383  0.0879 -0.2961  0.2345
 2658TIP3    H2 7939   3.542   6.104   4.473 -0.0355 -0.3478  0.2381
 2659TIP3   OH2 7940   3.061   6.438   5.682 -0.1632  0.1081  0.2849
 2659TIP3    H1 7941   3.046   6.366   5.743 -0.6474 -0.8586 -0.9442
 2659TIP3    H2 7942   3.076   6.395   5.597  1.8459  1.3438 -0.0525
 2660TIP3   OH2 7943   1.199   2.036   5.560  0.5192 -0.0658 -0.2937
 2660TIP3    H1 7944   1.219   1.968   5.496 -0.3513  0.1065 -0.7653
 2660TIP3    H2 7945   1.266   2.102   5.546 -0.6557  0.7920 -2.2705
 2661TIP3   OH2 7946   2.070   4.220   4.387  0.0821 -0.3993  0.1180
 2661TIP3    H1 7947   2.060   4.302   4.435  2.5432 -0.2665  0.5051
 2661TIP3    H2 7948   2.117   4.244   4.308 -0.7503 -1.2052 -0.6534
 2662TIP3   OH2 7949   3.673   6.399   5.075  0.3134 -0.6944  0.2574
 2662TIP3    H1 7950   3.677   6.306   5.051  0.6061 -0.9936  1.3858
 2662TIP3    H2 7951   3.643   6.399   5.166  1.6787  0.2292  0.7489
 2663TIP3   OH2 7952   6.395   0.270   2.617  0.0676  0.2443  0.2098
 2663TIP3    H1 7953   6.311   0.239   2.583 -0.4279  0.8215  0.8830
 2663TIP3    H2 7954   6.428   0.197   2.670  0.6495 -0.5020 -1.1347
 2664TIP3   OH2 7955   4.634   1.682   5.298  0.0123  0.1795  0.1130
 2664TIP3    H1 7956   4.727   1.660   5.307  0.3970  1.4973 -0.4303
 2664TIP3    H2 7957   4.633   1.774   5.271 -1.4400  0.0269 -0.4635
 2665TIP3   OH2 7958   0.710   2.529   5.290 -0.3702  0.3382 -0.0989
 2665TIP3    H1 7959   0.708   2.437   5.262  0.0377  0.3965 -0.3357
 2665TIP3    H2 7960   0.802   2.545   5.311 -0.3841  0.7826 -0.3688
 2666TIP3   OH2 7961   0.275   6.679   2.435  0.1856 -0.2594 -0.6054
 2666TIP3    H1 7962   0.332   6.728   2.494 -0.9583  1.2193 -0.6742
 2666TIP3    H2 7963   0.323   6.597   2.418  1.0540 -0.2427  1.4403
 2667TIP3   OH2 7964   5.103   4.125   3.183  0.2653  0.5809 -0.0183
 2667TIP3    H1 7965   5.047   4.059   3.224  0.5438  0.6838  0.5432
 2667TIP3    H2 7966   5.192   4.090   3.191  0.2901  0.4302 -0.8862
 2668TIP3   OH2 7967   1.673   4.794   5.239  0.3371 -0.5966 -0.3527
 2668TIP3    H1 7968   1.590   4.751   5.221  0.5201 -0.6211 -1.1960
 2668TIP3    H2 7969   1.716   4.738   5.303 -0.3495 -0.5051  0.2040
 2669TIP3   OH2 7970   3.184   4.768   1.105 -0.0406  0.1805 -0.1678
 2669TIP3    H1 7971   3.258   4.826   1.085  0.4173 -0.8804 -1.6979
 2669TIP3    H2 7972   3.182   4.765   1.201  0.5685  1.8784 -0.0597
 2670TIP3   OH2 7973   6.905   3.417   2.577  0.2503  0.1717  0.0179
 2670TIP3    H1 7974   6.877   3.385   2.492  1.2538 -2.0997  0.4641
 2670TIP3    H2 7975   6.973   3.482   2.557 -0.1818  0.3467 -0.9180
 2671TIP3   OH2 7976   4.173   6.548   1.315 -0.4573  0.0512 -0.3296
 2671TIP3    H1 7977   4.095   6.551   1.371 -1.6627 -0.6659 -1.9108
 2671TIP3    H2 7978   4.139   6.548   1.226  1.1936 -2.7067 -1.0851
 2672TIP3   OH2 7979   6.668   4.533   4.533  0.1885 -0.6169  0.0746
 2672TIP3    H1 7980   6.751   4.508   4.493  0.4852 -1.5618  1.2128
 2672TIP3    H2 7981   6.685   4.529   4.628 -0.4131  1.7324  0.3487
 2673TIP3   OH2 7982   5.945   3.924   5.422 -0.2451  0.2780 -0.6006
 2673TIP3    H1 7983   5.969   3.958   5.508 -1.0216  1.1811 -0.7317
 2673TIP3    H2 7984   6.020   3.870   5.397 -0.9017 -1.8748  1.6004
 2674TIP3   OH2 7985   5.874   4.051   2.793 -0.2852 -0.0127  0.4876
 2674TIP3    H1 7986   5.854   3.970   2.745 -1.7546  1.0857 -0.8396
 2674TIP3    H2 7987   5.963   4.073   2.766  1.5687 -2.8816  3.4590
 2675TIP3   OH2 7988   2.413   3.188   2.202 -0.5279  0.4378  0.1656
 2675TIP3    H1 7989   2.472   3.254   2.239 -0.1934  0.5232 -0.5028
 2675TIP3    H2 7990   2.325   3.220   2.222 -0.3990  1.5734 -0.9444
 2676TIP3   OH2 7991   1.758   0.268   1.546 -0.1080 -0.1332  0.1651
 2676TIP3    H1 7992   1.819   0.259   1.619 -0.1721 -3.1158 -0.0017
 2676TIP3    H2 7993   1.810   0.243   1.469 -0.7750  0.1717 -0.3873
 2677TIP3   OH2 7994   1.702   6.159   3.309 -0.4928  0.0966 -0.0441
 2677TIP3    H1 7995   1.727   6.075   3.346 -0.8108  0.4163  0.9324
 2677TIP3    H2 7996   1.736   6.157   3.220  0.0406 -0.8132  0.1656
 2678TIP3   OH2 7997   3.906   4.937   3.488 -0.2493 -0.4384  0.6732
 2678TIP3    H1 7998   3.893   4.988   3.408  0.6376 -0.0014  0.7965
 2678TIP3    H2 7999   3.905   4.846   3.459 -0.5224 -0.3061  0.2527
 2679TIP3   OH2 8000   2.148   5.796   1.264 -0.5059 -0.3218 -0.1113
 2679TIP3    H1 8001   2.182   5.775   1.176 -1.1582 -2.3648  0.0695
 2679TIP3    H2 8002   2.138   5.891   1.263 -1.9501 -0.3815 -2.8262
 2680TIP3   OH2 8003   3.392   1.195   3.746  0.1320 -0.0953  0.0425
 2680TIP3    H1 8004   3.415   1.103   3.761 -0.7089 -0.3450 -0.1830
 2680TIP3    H2 8005   3.382   1.201   3.651  0.8456  0.3931 -0.0102
 2681TIP3   OH2 8006   7.130   3.893   3.577  0.1754  0.0273  0.1754
 2681TIP3    H1 8007   7.052   3.891   3.521  0.7220  0.6921 -0.6233
 2681TIP3    H2 8008   7.154   3.801   3.586 -0.4235 -0.1516  0.0399
 2682TIP3   OH2 8009   5.683   0.187   3.364  0.2990 -0.1787  0.5140
 2682TIP3    H1 8010   5.681   0.210   3.271 -0.0079  0.0263  0.5693
 2682TIP3    H2 8011   5.597   0.214   3.397  0.6391  0.3470  0.9973
 2683TIP3   OH2 8012   0.042   3.094   5.583 -0.0865  0.0215  0.8825
 2683TIP3    H1 8013  -0.028   3.100   5.518  0.4908  1.2972  0.3561
 2683TIP3    H2 8014   0.123   3.107   5.533  0.3491  1.3755  1.8779
 2684TIP3   OH2 8015   2.647   4.148   5.434  0.1601 -0.5022 -0.5772
 2684TIP3    H1 8016   2.565   4.108   5.404 -0.2720 -0.4873  0.5390
 2684TIP3    H2 8017   2.709   4.076   5.440  0.0238 -0.6332 -0.7418
 2685TIP3   OH2 8018   1.717   4.065   4.299  0.2837  0.0791  0.1320
 2685TIP3    H1 8019   1.656   4.123   4.345  1.6836  0.9808  0.9100
 2685TIP3    H2 8020   1.721   4.100   4.210  0.2168  0.4325  0.2698
 2686TIP3   OH2 8021   4.460   3.093   3.109 -0.0375 -0.6063  0.5976
 2686TIP3    H1 8022   4.463   3.072   3.202 -1.9489  0.4734  0.9667
 2686TIP3    H2 8023   4.513   3.172   3.099  0.3528 -0.8526  0.7221
 2687TIP3   OH2 8024   7.010   3.916   0.339  0.0523 -0.5301 -0.2146
 2687TIP3    H1 8025   6.967   3.858   0.276 -1.7403 -0.6191  1.0154
 2687TIP3    H2 8026   7.010   3.867   0.421  1.5219 -0.0626  0.0943
 2688TIP3   OH2 8027   2.643   3.945   3.438  0.5343  0.1633  0.3337
 2688TIP3    H1 8028   2.644   3.972   3.346  0.2163 -1.9307 -0.3497
 2688TIP3    H2 8029   2.552   3.959   3.466  0.0551 -1.2617 -0.3974
 2689TIP3   OH2 8030   5.779   4.391   2.144 -0.8421  0.0026 -0.2197
 2689TIP3    H1 8031   5.717   4.423   2.210 -1.0199 -0.4888 -0.1442
 2689TIP3    H2 8032   5.746   4.424   2.061 -0.7297  0.4556 -0.0901
 2690TIP3   OH2 8033   0.907   3.821   2.596  0.2742 -0.2671  0.3398
 2690TIP3    H1 8034   0.883   3.890   2.534  0.3821 -0.5392 -0.0080
 2690TIP3    H2 8035   0.824   3.777   2.616  0.3411 -0.6373 -0.1715
 2691TIP3   OH2 8036   4.153   3.872   5.665 -0.6488 -0.4536 -0.0843
 2691TIP3    H1 8037   4.133   3.965   5.668 -0.2067 -0.2803 -1.5477
 2691TIP3    H2 8038   4.224   3.865   5.600 -0.0128 -1.6968  0.7034
 2692TIP3   OH2 8039   6.836   0.584   3.156  0.2368 -0.7298  0.8869
 2692TIP3    H1 8040   6.881   0.511   3.199  1.0308 -1.4623 -1.0439
 2692TIP3    H2 8041   6.890   0.604   3.080 -0.7307  0.9452  0.5949
 2693TIP3   OH2 8042   3.572   0.324   1.515  0.8155 -0.2743  0.0051
 2693TIP3    H1 8043   3.489   0.287   1.485 -0.0013  0.5704  1.1066
 2693TIP3    H2 8044   3.549   0.370   1.596  2.0354  1.3609 -0.5181
 2694TIP3   OH2 8045   3.893   6.687   2.582 -0.4382 -0.0156  0.7550
 2694TIP3    H1 8046   3.848   6.771   2.589 -0.1481  0.3401 -0.9876
 2694TIP3    H2 8047   3.824   6.624   2.564 -0.3716  0.4306 -1.3076
 2695TIP3   OH2 8048   0.037   0.534   5.542  0.4252 -0.0395 -0.7392
 2695TIP3    H1 8049   0.008   0.605   5.599 -0.4056  0.3291 -1.5829
 2695TIP3    H2 8050   0.030   0.455   5.595 -0.1216  0.3246 -0.2612
 2696TIP3   OH2 8051   6.262   0.851   3.309 -0.5684 -0.1508  0.0023
 2696TIP3    H1 8052   6.257   0.762   3.273  0.1468 -0.0484 -0.3879
 2696TIP3    H2 8053   6.209   0.904   3.250  0.0416 -0.1051 -0.5177
 2697TIP3   OH2 8054   6.636   4.671   2.824  0.0018 -0.0880 -0.0747
 2697TIP3    H1 8055   6.711   4.719   2.859  0.8117 -0.2736 -1.4831
 2697TIP3    H2 8056   6.582   4.738   2.781  1.3549 -0.4159 -2.4255
 2698TIP3   OH2 8057   0.082   0.258   1.031  0.3678 -0.9927  0.5898
 2698TIP3    H1 8058   0.097   0.198   0.959  0.2756 -1.6991  1.1473
 2698TIP3    H2 8059   0.162   0.253   1.084  1.4141  1.2468 -0.6442
 2699TIP3   OH2 8060   0.642   1.707   4.405 -0.0994  0.1412  0.1841
 2699TIP3    H1 8061   0.553   1.693   4.437  0.6638  2.0381  3.6486
 2699TIP3    H2 8062   0.635   1.782   4.345 -0.9112 -0.3545 -0.3590
 2700TIP3   OH2 8063   0.915   6.744   0.939 -0.7283 -0.3770  0.0725
 2700TIP3    H1 8064   0.949   6.747   1.028 -1.8131 -1.4630  0.5573
 2700TIP3    H2 8065   0.820   6.750   0.949 -0.9802 -2.0744 -0.8740
 2701TIP3   OH2 8066   3.144   0.266   3.336 -0.1438  0.1627  0.2807
 2701TIP3    H1 8067   3.152   0.320   3.415 -1.1035  0.5868  0.0960
 2701TIP3    H2 8068   3.215   0.296   3.279 -0.0997  0.5943  0.5580
 2702TIP3   OH2 8069   5.888   5.785   4.495 -0.1955  0.1394  0.2309
 2702TIP3    H1 8070   5.830   5.841   4.547 -1.0423 -0.9127  0.4629
 2702TIP3    H2 8071   5.837   5.764   4.417  0.0850 -0.3388  0.1730
 2703TIP3   OH2 8072   0.098   1.319   5.357  0.3089 -0.0206  0.1952
 2703TIP3    H1 8073   0.011   1.286   5.334  0.2033  1.0613 -1.1113
 2703TIP3    H2 8074   0.081   1.383   5.427  0.1280 -0.2935  0.4022
 2704TIP3   OH2 8075   1.849   6.161   3.070 -0.0326  0.4637  0.0325
 2704TIP3    H1 8076   1.932   6.118   3.089 -0.0172  1.2896  2.1270
 2704TIP3    H2 8077   1.824   6.129   2.983  1.5702 -1.1851  0.1240
 2705TIP3   OH2 8078   2.738   1.449   0.517 -0.0010 -0.3995  0.1672
 2705TIP3    H1 8079   2.648   1.431   0.491 -0.7531  0.3459  2.0524
 2705TIP3    H2 8080   2.730   1.510   0.590  1.9974 -0.9639  0.9324
 2706TIP3   OH2 8081   6.091   1.916   3.347  0.0472  0.5030 -0.2553
 2706TIP3    H1 8082   6.151   1.972   3.396  0.4186  0.7000 -0.9247
 2706TIP3    H2 8083   6.008   1.964   3.346 -0.6301 -0.4859  2.0590
 2707TIP3   OH2 8084   4.160   1.486   5.007 -0.1909  0.3726 -0.6892
 2707TIP3    H1 8085   4.210   1.422   5.058  0.1934  0.1347 -1.3624
 2707TIP3    H2 8086   4.179   1.570   5.049  0.0874  0.1765 -0.4169
 2708TIP3   OH2 8087   0.899   0.669   3.126  0.2508 -0.4049 -0.3211
 2708TIP3    H1 8088   0.963   0.699   3.191  0.4056 -1.4663  0.0389
 2708TIP3    H2 8089   0.866   0.749   3.086 -1.1849  0.4493  2.3298
 2709TIP3   OH2 8090   1.622   1.088   2.671 -0.2300  0.0734  0.8746
 2709TIP3    H1 8091   1.703   1.040   2.687 -0.0192  0.3063  0.5162
 2709TIP3    H2 8092   1.567   1.027   2.623  0.2101  0.3444  0.0193
 2710TIP3   OH2 8093   3.512   5.076  -0.026  0.3627  0.3218 -0.0758
 2710TIP3    H1 8094   3.513   5.153   0.030 -0.4425 -0.0649  0.4763
 2710TIP3    H2 8095   3.450   5.016   0.015 -0.5079  0.1567 -1.5476
 2711TIP3   OH2 8096   4.109   4.792   0.684 -0.1668  0.3787  0.4816
 2711TIP3    H1 8097   4.061   4.853   0.740 -1.8523 -0.0711 -0.3851
 2711TIP3    H2 8098   4.097   4.707   0.726 -1.1532  0.0897 -0.3426
 2712TIP3   OH2 8099   1.739   6.368   2.501 -0.4022  0.0503 -0.3123
 2712TIP3    H1 8100   1.804   6.323   2.447 -1.5326 -1.0220 -0.8338
 2712TIP3    H2 8101   1.678   6.298   2.528 -1.3737  1.0274  0.0870
 2713TIP3   OH2 8102   3.879   2.448   0.855 -1.0705  0.3066  0.3008
 2713TIP3    H1 8103   3.830   2.495   0.921 -0.8843  0.1489  0.5548
 2713TIP3    H2 8104   3.814   2.422   0.790 -1.1510  1.0343  0.0873
 2714TIP3   OH2 8105   3.084   2.351   1.207  0.0834 -1.1077 -0.2743
 2714TIP3    H1 8106   3.032   2.335   1.128  0.9025 -1.4955 -0.7556
 2714TIP3    H2 8107   3.020   2.367   1.276 -0.6470 -0.6614 -1.0405
 2715TIP3   OH2 8108   2.054   4.783   0.971  0.1791  0.0382 -0.4698
 2715TIP3    H1 8109   1.967   4.806   0.939  1.5273  1.7896 -3.2569
 2715TIP3    H2 8110   2.066   4.692   0.944 -1.6210 -1.1383  2.2220
 2716TIP3   OH2 8111   1.852   3.933   0.459  0.0559 -0.7338  0.2899
 2716TIP3    H1 8112   1.900   3.999   0.508 -1.0319  0.1045  0.2556
 2716TIP3    H2 8113   1.900   3.923   0.377 -0.6600  1.2354 -0.4206
 2717TIP3   OH2 8114   6.653   0.376   5.743 -0.3903 -0.2765 -0.7589
 2717TIP3    H1 8115   6.603   0.295   5.738 -1.8280  0.6435 -2.0826
 2717TIP3    H2 8116   6.614   0.433   5.676  2.4789  0.4759 -1.9527
 2718TIP3   OH2 8117   2.069   1.526   3.468 -0.2864 -0.3789  0.3238
 2718TIP3    H1 8118   2.058   1.550   3.560  0.7864 -0.8948  0.5975
 2718TIP3    H2 8119   2.148   1.572   3.440 -1.0532  0.4378 -0.5916
 2719TIP3   OH2 8120   4.758   1.479   0.093 -0.9251 -0.0316  0.4597
 2719TIP3    H1 8121   4.734   1.395   0.053  0.2355  0.0132 -0.3553
 2719TIP3    H2 8122   4.692   1.541   0.059 -0.6165 -0.2215 -0.5288
 2720TIP3   OH2 8123   6.729   1.892   5.183  0.2528 -0.4863 -0.3179
 2720TIP3    H1 8124   6.747   1.915   5.274 -1.9667 -1.6839  0.5001
 2720TIP3    H2 8125   6.778   1.811   5.169  0.3385 -0.4745 -0.0902
 2721TIP3   OH2 8126   5.199   3.997   1.365  0.1572 -0.2893 -0.1525
 2721TIP3    H1 8127   5.273   4.009   1.306  1.0719  0.6236  1.1121
 2721TIP3    H2 8128   5.123   4.030   1.317  1.0166  1.2597 -0.5185
 2722TIP3   OH2 8129   3.959   0.612   3.933 -0.0668 -0.2947  0.3565
 2722TIP3    H1 8130   3.905   0.622   3.854 -0.0491  0.0062  0.3822
 2722TIP3    H2 8131   3.953   0.519   3.954  0.8227 -0.5855 -0.6343
 2723TIP3   OH2 8132   2.461   5.211   4.323 -0.0325 -0.3340 -0.3738
 2723TIP3    H1 8133   2.492   5.160   4.248 -0.2701  0.1438 -0.8082
 2723TIP3    H2 8134   2.367   5.194   4.327  0.3861 -2.7339  1.6752
 2724TIP3   OH2 8135   1.221   0.211   1.478 -0.0999  0.3606 -0.2434
 2724TIP3    H1 8136   1.215   0.293   1.527 -2.0075  1.0249 -1.4805
 2724TIP3    H2 8137   1.133   0.198   1.442  0.0215 -2.4935  0.2829
 2725TIP3   OH2 8138   1.033   1.024   3.583 -0.1396 -0.4006  0.0511
 2725TIP3    H1 8139   1.122   1.055   3.568  0.2548 -0.0999  2.4709
 2725TIP3    H2 8140   1.029   0.939   3.538  0.9451  0.1554 -1.1261
 2726TIP3   OH2 8141   2.840   1.989   0.409  0.2671 -0.6348  0.7100
 2726TIP3    H1 8142   2.786   1.937   0.350  1.5810 -0.7622 -0.4259
 2726TIP3    H2 8143   2.794   1.986   0.493 -0.8567 -1.7041  0.0804
 2727TIP3   OH2 8144   5.984   3.674   2.042 -0.2324 -0.1213  0.7480
 2727TIP3    H1 8145   6.069   3.718   2.052 -0.2143  0.1608 -0.4044
 2727TIP3    H2 8146   6.006   3.590   2.001 -0.3278 -0.9650  2.3693
 2728TIP3   OH2 8147   0.599   4.041   3.044  0.3852 -0.1916 -0.0666
 2728TIP3    H1 8148   0.525   4.026   2.985  1.1937  2.4712 -1.9156
 2728TIP3    H2 8149   0.676   4.023   2.991  1.1398 -1.1978  1.3085
 2729TIP3   OH2 8150   3.716   5.411   0.140 -0.4857  0.3644 -0.2107
 2729TIP3    H1 8151   3.772   5.333   0.139 -0.4121  0.4186 -0.2826
 2729TIP3    H2 8152   3.632   5.380   0.106 -0.6044  0.2041  0.2236
 2730TIP3   OH2 8153   1.033   2.033   5.285  0.0662 -0.2989  0.4028
 2730TIP3    H1 8154   1.053   1.943   5.260  0.7761 -0.3349  1.0627
 2730TIP3    H2 8155   1.115   2.067   5.320 -0.2192  0.5785  0.2494
 2731TIP3   OH2 8156   3.205   1.506   2.684 -0.2476 -0.1333 -0.0840
 2731TIP3    H1 8157   3.113   1.528   2.702  0.3111  1.7651  0.7614
 2731TIP3    H2 8158   3.234   1.573   2.622  0.0596 -1.9228 -1.9671
 2732TIP3   OH2 8159   1.063   6.114   0.410  0.0628 -0.0273 -0.1110
 2732TIP3    H1 8160   1.139   6.155   0.452 -0.2662 -0.5466  1.0407
 2732TIP3    H2 8161   1.021   6.185   0.363 -1.2955  1.3984  2.9770
 2733TIP3   OH2 8162   3.725   4.319   1.058 -0.1192 -0.1944 -0.5698
 2733TIP3    H1 8163   3.672   4.365   1.122 -1.4501 -1.4994 -0.6743
 2733TIP3    H2 8164   3.796   4.280   1.110  0.7220  1.4787 -0.4171
 2734TIP3   OH2 8165   6.663   3.403   5.621 -0.3736  0.2147 -0.0051
 2734TIP3    H1 8166   6.690   3.313   5.639 -0.4438  0.0496 -0.6800
 2734TIP3    H2 8167   6.587   3.417   5.678  0.0380  0.0684  0.5800
 2735TIP3   OH2 8168   2.689   2.587   1.603  0.1241  0.5470 -0.3380
 2735TIP3    H1 8169   2.744   2.538   1.542  0.8778 -0.8108  1.3700
 2735TIP3    H2 8170   2.695   2.678   1.572  1.6658  0.1318 -1.4039
 2736TIP3   OH2 8171   6.564   5.484  -0.032  0.1431  0.6839 -0.1998
 2736TIP3    H1 8172   6.553   5.577  -0.010 -0.8426  0.2218  1.3620
 2736TIP3    H2 8173   6.553   5.438   0.050 -0.0825 -0.8999 -1.0777
 2737TIP3   OH2 8174   3.713   3.812   2.375  0.0204 -0.0522 -0.2319
 2737TIP3    H1 8175   3.708   3.832   2.468 -2.2014 -0.0530 -0.2987
 2737TIP3    H2 8176   3.757   3.727   2.371  1.2272  0.4995  0.6897
 2738TIP3   OH2 8177   6.962   0.014   5.654  0.0252  0.2757  0.1053
 2738TIP3    H1 8178   6.932   0.097   5.617 -0.3124 -0.5396 -1.5481
 2738TIP3    H2 8179   7.056   0.012   5.636 -0.0325  0.1457 -0.1903
 2739TIP3   OH2 8180   3.699   0.268   3.234 -0.8735 -0.3264 -0.4317
 2739TIP3    H1 8181   3.612   0.230   3.218 -1.5099  1.1050 -0.6022
 2739TIP3    H2 8182   3.680   0.348   3.283  0.5423 -1.0835  1.4518
 2740TIP3   OH2 8183   2.162   3.215   1.137 -0.5319  0.1529  0.3344
 2740TIP3    H1 8184   2.237   3.169   1.100 -0.0443 -0.0576  1.5546
 2740TIP3    H2 8185   2.087   3.160   1.117 -0.5803  0.9629 -1.9953
 2741TIP3   OH2 8186   1.404   0.324   3.815  0.1944  0.3861  0.2595
 2741TIP3    H1 8187   1.466   0.396   3.826  1.3274  0.0421 -2.6718
 2741TIP3    H2 8188   1.446   0.250   3.858  1.4345  0.3927 -0.8563
 2742TIP3   OH2 8189   1.935   1.138   4.393 -0.0552  0.1222 -0.0614
 2742TIP3    H1 8190   1.902   1.049   4.393 -1.5649  0.6548 -0.2758
 2742TIP3    H2 8191   2.027   1.130   4.417 -0.4216 -1.3830  0.9335
 2743TIP3   OH2 8192   0.167   6.244   4.693  0.1923 -0.0623  0.2916
 2743TIP3    H1 8193   0.152   6.263   4.786 -0.6305  2.9963 -0.3560
 2743TIP3    H2 8194   0.094   6.188   4.668 -0.4732  0.3978  1.1475
 2744TIP3   OH2 8195   5.122   0.877   5.425 -0.2055  0.6336 -0.3605
 2744TIP3    H1 8196   5.113   0.791   5.466  0.3618  1.2617  1.1354
 2744TIP3    H2 8197   5.032   0.905   5.407 -0.5095  0.5848  1.0012
 2745TIP3   OH2 8198   4.711   2.740   3.645  0.3655 -0.4652  0.3656
 2745TIP3    H1 8199   4.798   2.766   3.675 -0.1274 -0.3341  1.7432
 2745TIP3    H2 8200   4.715   2.645   3.638  1.1775 -0.3465 -1.4867
 2746TIP3   OH2 8201   3.442   1.200   2.253  0.6253  0.7977 -0.0153
 2746TIP3    H1 8202   3.429   1.294   2.266 -0.8857  0.5033  0.8043
 2746TIP3    H2 8203   3.493   1.195   2.172  3.8571  2.4134  1.7580
 2747TIP3   OH2 8204   6.336   3.128   4.899 -0.4817  0.0807 -0.2140
 2747TIP3    H1 8205   6.421   3.154   4.862 -0.9893  1.4283 -0.4854
 2747TIP3    H2 8206   6.353   3.118   4.992  0.4416 -1.7654 -0.5362
 2748TIP3   OH2 8207   2.867   4.345   0.643  0.4908 -0.6357 -0.4153
 2748TIP3    H1 8208   2.952   4.359   0.602  0.5438  1.2359  0.2136
 2748TIP3    H2 8209   2.830   4.270   0.597  1.5591 -0.1467 -2.1735
 2749TIP3   OH2 8210   7.070   0.821   3.424  0.0559  0.0214  0.0381
 2749TIP3    H1 8211   7.157   0.813   3.464 -0.0500 -0.4898  0.1774
 2749TIP3    H2 8212   7.084   0.871   3.344  0.8431 -1.8592 -1.0600
 2750TIP3   OH2 8213   5.058   4.488   3.994  0.1440 -0.1187 -0.3557
 2750TIP3    H1 8214   5.138   4.460   3.950  0.6264  1.7710 -0.7671
 2750TIP3    H2 8215   4.992   4.424   3.968  1.2813 -1.1461 -0.7975
 2751TIP3   OH2 8216   0.713   5.918   3.110  0.3184  0.1236 -0.0292
 2751TIP3    H1 8217   0.786   5.867   3.145  0.1313 -0.1328 -0.0056
 2751TIP3    H2 8218   0.745   5.952   3.026  0.8310  0.9017  0.4737
 2752TIP3   OH2 8219   1.940   4.234   2.361 -0.2327  0.4194  0.3548
 2752TIP3    H1 8220   1.945   4.305   2.425  2.1585  0.6906 -0.0399
 2752TIP3    H2 8221   1.889   4.270   2.289 -0.0179  1.3524  0.6526
 2753TIP3   OH2 8222   1.041   2.921   5.088 -0.6147 -0.0120 -0.0367
 2753TIP3    H1 8223   1.091   3.003   5.085 -1.0471  0.2633  0.1260
 2753TIP3    H2 8224   1.003   2.920   5.176 -0.8913 -0.2173 -0.1583
 2754TIP3   OH2 8225   3.595   4.335   3.263 -0.1411 -0.1169 -0.0736
 2754TIP3    H1 8226   3.560   4.324   3.174  1.8817  0.7558 -1.0296
 2754TIP3    H2 8227   3.651   4.259   3.276 -0.7941 -0.4887  0.6810
 2755TIP3   OH2 8228   3.135   0.092   4.000  0.1115 -0.1084  0.2202
 2755TIP3    H1 8229   3.212   0.123   4.046  0.1597 -1.4882  1.1297
 2755TIP3    H2 8230   3.159   0.006   3.966 -1.1604 -0.7919  0.9594
 2756TIP3   OH2 8231   3.570   4.561   4.898 -0.0120  0.1850  0.1924
 2756TIP3    H1 8232   3.659   4.592   4.915 -0.3986  0.8644  1.0967
 2756TIP3    H2 8233   3.580   4.467   4.881  0.9339  0.3636 -0.2837
 2757TIP3   OH2 8234   2.343   4.500   4.346 -0.1839 -0.3154  0.6356
 2757TIP3    H1 8235   2.392   4.418   4.347  0.5636  0.1275  1.2100
 2757TIP3    H2 8236   2.405   4.565   4.378 -0.5291  0.6188 -0.5218
 2758TIP3   OH2 8237   6.692   2.285   0.585 -0.0629  0.8157  0.0880
 2758TIP3    H1 8238   6.697   2.210   0.526  0.0986  1.1799 -0.3728
 2758TIP3    H2 8239   6.632   2.258   0.655  0.1023  0.2157 -0.0037
 2759TIP3   OH2 8240   6.063   0.955   3.139 -0.2563 -0.1040  0.2859
 2759TIP3    H1 8241   6.033   0.908   3.061 -1.6313 -1.0422  1.3350
 2759TIP3    H2 8242   5.989   1.008   3.166  0.2149  0.2325  0.9519
 2760TIP3   OH2 8243   5.416   1.050   3.792  0.1598 -0.0623 -0.4885
 2760TIP3    H1 8244   5.366   1.131   3.787 -1.5034 -0.9663  0.3456
 2760TIP3    H2 8245   5.508   1.077   3.786 -0.3263  1.9016  0.2463
 2761TIP3   OH2 8246   0.961   1.524   3.403  0.3645 -0.3747 -0.5691
 2761TIP3    H1 8247   0.977   1.611   3.438  2.5622  0.0394 -2.3656
 2761TIP3    H2 8248   0.886   1.491   3.452 -0.8611  2.7049 -0.2059
 2762TIP3   OH2 8249   2.823   6.069   0.437  0.4201 -0.1044  0.0178
 2762TIP3    H1 8250   2.813   5.976   0.457 -0.3542 -0.0607 -0.1308
 2762TIP3    H2 8251   2.825   6.112   0.522  2.5345 -0.3976  0.1634
 2763TIP3   OH2 8252   4.547   4.228   4.292  0.0860 -0.4562 -0.2356
 2763TIP3    H1 8253   4.464   4.187   4.266  0.6543 -1.0756 -1.0915
 2763TIP3    H2 8254   4.612   4.158   4.285  0.8718  0.2971 -0.5821
 2764TIP3   OH2 8255   7.155   2.564   4.674  0.1563  0.5219 -0.0369
 2764TIP3    H1 8256   7.153   2.546   4.768 -0.4211 -1.4837 -0.3751
 2764TIP3    H2 8257   7.139   2.658   4.666  2.3667  1.1480  1.9353
 2765TIP3   OH2 8258   1.335   2.622   4.704  0.0696  0.0300  0.4429
 2765TIP3    H1 8259   1.249   2.650   4.737 -0.3643  0.2714 -0.8451
 2765TIP3    H2 8260   1.334   2.527   4.714  0.7466  0.2244  2.9353
 2766TIP3   OH2 8261   1.050   1.551   4.919 -0.0340 -0.0338 -0.0871
 2766TIP3    H1 8262   1.141   1.525   4.937 -0.1566 -0.5725 -0.2106
 2766TIP3    H2 8263   1.058   1.621   4.854  0.4101  2.0821  2.1386
 2767TIP3   OH2 8264   7.097   3.188   5.350  0.0740 -0.0935  0.0146
 2767TIP3    H1 8265   7.005   3.193   5.379  0.1439 -1.5121  0.5629
 2767TIP3    H2 8266   7.095   3.133   5.272  0.6561 -1.7721  1.1362
 2768TIP3   OH2 8267   0.993   1.108   4.847 -0.5001  0.3276  0.5604
 2768TIP3    H1 8268   1.077   1.133   4.811  0.7780 -3.1020  0.8129
 2768TIP3    H2 8269   0.962   1.038   4.790 -2.3452  0.3131  1.4950
 2769TIP3   OH2 8270   0.617   2.016   4.589 -0.5695 -0.7543 -0.2995
 2769TIP3    H1 8271   0.646   2.060   4.669 -0.1604  0.3445 -1.0255
 2769TIP3    H2 8272   0.528   1.986   4.609 -0.7922  0.2412  0.2969
 2770TIP3   OH2 8273   2.698   3.394   3.319  0.1814 -0.2667  0.5927
 2770TIP3    H1 8274   2.608   3.375   3.347 -0.0783 -0.4403 -0.3277
 2770TIP3    H2 8275   2.707   3.488   3.331 -0.6365  0.0065 -0.6752
 2771TIP3   OH2 8276   4.805   6.195   5.843  0.1979 -0.6522  0.1139
 2771TIP3    H1 8277   4.828   6.105   5.820  1.4263 -0.1998 -0.4780
 2771TIP3    H2 8278   4.862   6.217   5.917  0.4748 -0.1103 -0.2473
 2772TIP3   OH2 8279   4.204   4.372   5.777 -0.3011 -0.2276 -0.3501
 2772TIP3    H1 8280   4.283   4.416   5.808  0.7487 -2.0333 -0.2783
 2772TIP3    H2 8281   4.148   4.367   5.854 -0.2587  0.5906 -0.2587
 2773TIP3   OH2 8282   6.836   3.088   3.682 -0.0787  0.1507  0.1411
 2773TIP3    H1 8283   6.843   3.114   3.774 -1.5738 -0.8036  0.5580
 2773TIP3    H2 8284   6.887   3.007   3.677  1.8242  1.3273 -0.4054
 2774TIP3   OH2 8285   4.512   6.199   4.600  0.0849  0.2777  0.2411
 2774TIP3    H1 8286   4.493   6.135   4.531 -1.1715 -1.2520  1.9287
 2774TIP3    H2 8287   4.596   6.173   4.635  0.4646  0.7298 -0.2983
 2775TIP3   OH2 8288   0.557   5.135   0.100 -0.2134 -0.0815  0.2437
 2775TIP3    H1 8289   0.622   5.203   0.116  0.0661  0.0985 -1.4274
 2775TIP3    H2 8290   0.586   5.061   0.153  1.6690 -0.1750 -0.8093
 2776TIP3   OH2 8291   5.583   2.765   0.893  0.5734  0.3065 -0.1025
 2776TIP3    H1 8292   5.600   2.675   0.920  0.0654  0.0542 -0.5920
 2776TIP3    H2 8293   5.564   2.811   0.974 -0.5195 -0.3444  0.0386
 2777TIP3   OH2 8294   2.725   3.753   3.872 -0.8229 -0.5669 -0.2414
 2777TIP3    H1 8295   2.762   3.670   3.901 -3.1863 -1.2733  0.9731
 2777TIP3    H2 8296   2.652   3.770   3.931 -1.5134  1.5069 -1.5415
 2778TIP3   OH2 8297   0.750   6.124   4.823 -0.4386 -1.0000 -0.1533
 2778TIP3    H1 8298   0.757   6.142   4.729 -1.9404  0.0494 -0.1112
 2778TIP3    H2 8299   0.832   6.156   4.860  0.5822 -2.2905 -1.1952
 2779TIP3   OH2 8300   3.446   2.951   1.835  0.5067  0.0907 -0.2298
 2779TIP3    H1 8301   3.447   3.044   1.856 -1.0305  0.4432 -1.5410
 2779TIP3    H2 8302   3.383   2.943   1.763 -0.7628 -2.1884  1.0121
 2780TIP3   OH2 8303   1.252   1.648   0.408  0.1871 -1.0198  0.1745
 2780TIP3    H1 8304   1.282   1.643   0.499  0.3065 -0.1203  0.1993
 2780TIP3    H2 8305   1.158   1.633   0.413 -0.1079  0.7421  0.6879
 2781TIP3   OH2 8306   5.601   2.475   4.433  0.3561 -0.3981 -0.1771
 2781TIP3    H1 8307   5.697   2.473   4.429  0.4551 -2.0733  1.3980
 2781TIP3    H2 8308   5.575   2.383   4.425 -1.0689 -0.0470  0.1775
 2782TIP3   OH2 8309   4.885   6.703   2.442  0.5370 -0.3070 -0.2159
 2782TIP3    H1 8310   4.971   6.667   2.420  0.7773 -0.3453  0.7241
 2782TIP3    H2 8311   4.903   6.795   2.464  0.3487 -0.3313  0.0438
 2783TIP3   OH2 8312   1.357   1.245   1.158  0.0695 -0.2734 -0.6744
 2783TIP3    H1 8313   1.427   1.282   1.104  1.5320 -0.6655  0.8556
 2783TIP3    H2 8314   1.283   1.303   1.145  0.8258  0.4436 -1.9772
 2784TIP3   OH2 8315   4.655   5.985   4.818  0.6588  0.3974 -0.4350
 2784TIP3    H1 8316   4.635   5.914   4.879  0.9107  0.3492 -0.4091
 2784TIP3    H2 8317   4.643   6.065   4.871 -0.8552  0.4441 -0.7941
 2785TIP3   OH2 8318   3.009   0.916   0.223  0.1349  0.1026  0.9460
 2785TIP3    H1 8319   3.057   0.999   0.221 -2.0298  1.4471 -1.6992
 2785TIP3    H2 8320   3.024   0.877   0.137 -3.1837  0.5073  0.0537
 2786TIP3   OH2 8321   4.466   6.643   0.218 -0.9515  0.3816 -0.4175
 2786TIP3    H1 8322   4.538   6.705   0.224  0.2840 -1.0049 -0.3846
 2786TIP3    H2 8323   4.443   6.642   0.125  1.4436 -1.6742 -1.0918
 2787TIP3   OH2 8324   2.545   3.940   1.482  0.2544 -0.7156  0.9414
 2787TIP3    H1 8325   2.597   3.941   1.562  1.3000  1.3680  0.3252
 2787TIP3    H2 8326   2.495   4.022   1.485 -1.3011 -1.5989  0.4282
 2788TIP3   OH2 8327   1.955   0.603   0.565 -0.2754  0.5764 -0.2197
 2788TIP3    H1 8328   1.876   0.557   0.594 -0.0500  0.1341 -0.3103
 2788TIP3    H2 8329   2.005   0.538   0.515 -0.0167  0.9512 -0.4604
 2789TIP3   OH2 8330   0.729   6.368   2.365 -0.6402  0.3613 -0.4170
 2789TIP3    H1 8331   0.681   6.304   2.313 -0.2217  0.1499 -0.5405
 2789TIP3    H2 8332   0.781   6.316   2.426 -1.3877  0.6080  0.4600
 2790TIP3   OH2 8333   3.254   2.270   0.036  0.3676  0.2361 -0.0816
 2790TIP3    H1 8334   3.343   2.242   0.054  0.3242 -0.5368 -1.0002
 2790TIP3    H2 8335   3.213   2.278   0.122  1.3141  0.5983  0.3446
 2791TIP3   OH2 8336   0.926   6.519   5.053 -0.2223 -0.5054 -0.1937
 2791TIP3    H1 8337   0.991   6.549   4.990  0.0168  1.6835  0.9861
 2791TIP3    H2 8338   0.843   6.556   5.022 -0.3786 -0.7334 -0.0537
 2792TIP3   OH2 8339   5.926   0.112   0.406 -0.6234 -0.5362  0.3114
 2792TIP3    H1 8340   5.838   0.110   0.442 -0.3205 -0.2553  1.1032
 2792TIP3    H2 8341   5.932   0.195   0.360 -0.6983 -0.4541  0.4503
 2793TIP3   OH2 8342   2.752   6.191   1.071 -0.1178 -0.1027 -0.0203
 2793TIP3    H1 8343   2.671   6.214   1.026 -1.4220  0.0186  2.2191
 2793TIP3    H2 8344   2.739   6.222   1.161  2.3119 -0.3452  0.4820
 2794TIP3   OH2 8345   4.534   0.662   1.228  0.7515 -0.1713  0.0114
 2794TIP3    H1 8346   4.497   0.573   1.223  0.8220 -0.1487 -1.6177
 2794TIP3    H2 8347   4.461   0.717   1.253  0.2993 -0.4817 -0.5970
 2795TIP3   OH2 8348   0.476   5.784   0.369 -0.1394 -0.2657 -0.1427
 2795TIP3    H1 8349   0.446   5.731   0.443 -0.8488  2.3241  1.5522
 2795TIP3    H2 8350   0.572   5.786   0.379 -0.1926 -0.3506  0.4442
 2796TIP3   OH2 8351   7.010   2.048   2.941 -0.2129  0.4677 -0.0145
 2796TIP3    H1 8352   7.084   1.991   2.921  1.0449  1.6765  0.9440
 2796TIP3    H2 8353   6.948   1.992   2.988  0.3927 -0.4074 -0.2357
 2797TIP3   OH2 8354   4.509   0.907   5.481 -0.9074 -0.0947  0.2002
 2797TIP3    H1 8355   4.505   0.863   5.566 -1.5598 -0.5132 -0.0417
 2797TIP3    H2 8356   4.516   0.835   5.418 -0.0579  0.2272 -0.0797
 2798TIP3   OH2 8357   6.963   4.875   5.470 -0.1977  0.2482  0.2230
 2798TIP3    H1 8358   7.055   4.870   5.495 -0.1545  0.2153  0.0605
 2798TIP3    H2 8359   6.957   4.821   5.391 -0.8357 -1.8218  1.5838
 2799TIP3   OH2 8360   5.649   1.196   3.705 -0.1694  0.2859 -0.1820
 2799TIP3    H1 8361   5.728   1.225   3.752 -0.9261  1.6370  0.3194
 2799TIP3    H2 8362   5.672   1.204   3.613  0.8353 -0.9637 -0.0717
 2800TIP3   OH2 8363   5.437   5.602   1.790 -0.0951  0.4755 -0.3117
 2800TIP3    H1 8364   5.526   5.576   1.813 -0.2844  0.9229  1.0039
 2800TIP3    H2 8365   5.382   5.561   1.857 -0.8617  0.4422 -0.9458
 2801TIP3   OH2 8366   3.729   4.645   5.160  0.3125  0.0065 -0.5615
 2801TIP3    H1 8367   3.658   4.582   5.163  1.7423 -1.7154 -0.8159
 2801TIP3    H2 8368   3.692   4.726   5.193 -1.6577 -0.9122 -0.4113
 2802TIP3   OH2 8369   5.388   2.948   3.603 -0.1938  0.0904  0.2606
 2802TIP3    H1 8370   5.424   3.015   3.661  0.5268  0.4601 -0.5774
 2802TIP3    H2 8371   5.430   2.965   3.518 -1.4811 -0.1974 -0.4661
 2803TIP3   OH2 8372   1.822   3.882   1.848  1.0656 -0.4237  0.0341
 2803TIP3    H1 8373   1.843   3.964   1.805 -1.3367  0.6232  0.6887
 2803TIP3    H2 8374   1.848   3.814   1.786  0.9800  0.9061 -1.4937
 2804TIP3   OH2 8375   5.186   5.003   4.017 -0.5121 -0.3136  0.0992
 2804TIP3    H1 8376   5.252   5.035   3.956 -0.6782  0.9583  0.5649
 2804TIP3    H2 8377   5.235   4.984   4.098 -0.4530 -1.0348 -0.0979
 2805TIP3   OH2 8378   6.881   3.938   4.061 -0.1047 -0.1151 -0.1756
 2805TIP3    H1 8379   6.867   3.957   3.968 -0.3721 -1.3952 -0.4060
 2805TIP3    H2 8380   6.935   3.859   4.061  0.3540  0.1896  0.7646
 2806TIP3   OH2 8381   7.137   6.814   3.913  0.1908  0.3120  0.2033
 2806TIP3    H1 8382   7.187   6.782   3.987 -1.8106  0.0539  1.5184
 2806TIP3    H2 8383   7.067   6.750   3.901 -0.6005  1.3035 -0.7033
 2807TIP3   OH2 8384   5.863   6.474   0.666 -0.8868  0.5754  0.5507
 2807TIP3    H1 8385   5.797   6.537   0.635 -1.6416  0.3269  1.6045
 2807TIP3    H2 8386   5.812   6.398   0.694 -0.1531  0.3812  1.4091
 2808TIP3   OH2 8387   1.356   3.889   4.857 -0.2355 -0.7300  0.3658
 2808TIP3    H1 8388   1.420   3.874   4.927 -0.4660  1.4756  1.1422
 2808TIP3    H2 8389   1.271   3.872   4.898 -0.2563 -2.9905 -0.4758
 2809TIP3   OH2 8390   2.686   3.007   0.637 -0.3449 -0.4604  0.1600
 2809TIP3    H1 8391   2.624   3.056   0.690  0.1776  1.2645 -0.7305
 2809TIP3    H2 8392   2.720   3.071   0.574  0.5029 -1.9428 -0.9746
 2810TIP3   OH2 8393   6.109   0.439   0.423 -0.2476 -0.0282 -0.0951
 2810TIP3    H1 8394   6.051   0.514   0.439  0.3689  0.0932  1.8326
 2810TIP3    H2 8395   6.068   0.394   0.349 -0.5911  2.2126 -1.3794
 2811TIP3   OH2 8396   4.735   4.829   5.161  0.0105  0.6086 -0.1482
 2811TIP3    H1 8397   4.750   4.815   5.255  2.4294 -0.8221 -0.6634
 2811TIP3    H2 8398   4.822   4.844   5.125 -0.8280  0.7243 -2.2556
 2812TIP3   OH2 8399   5.892   3.319   2.202  0.2307 -0.1299  0.8703
 2812TIP3    H1 8400   5.814   3.263   2.195  0.3265 -0.2082  0.3336
 2812TIP3    H2 8401   5.859   3.407   2.185  0.6537 -0.4492 -2.2816
 2813TIP3   OH2 8402   2.137   6.616   3.490  0.0766  0.8304  0.2184
 2813TIP3    H1 8403   2.103   6.566   3.564  0.4896  1.1339  0.6231
 2813TIP3    H2 8404   2.161   6.701   3.527  0.1315  1.0464 -0.2984
 2814TIP3   OH2 8405   5.261   3.918   0.533  0.2238  0.5652  0.5939
 2814TIP3    H1 8406   5.269   3.823   0.521 -1.1027  0.5581 -0.4866
 2814TIP3    H2 8407   5.346   3.945   0.567  0.5624 -1.0394  1.1392
 2815TIP3   OH2 8408   1.140   4.737   3.740  0.4308  0.1093 -0.0152
 2815TIP3    H1 8409   1.096   4.821   3.733 -0.8014 -0.5456 -0.5409
 2815TIP3    H2 8410   1.200   4.735   3.666  0.7927  0.7048  0.2613
 2816TIP3   OH2 8411   6.817   5.197   5.648  0.0129 -0.8343  0.1184
 2816TIP3    H1 8412   6.835   5.175   5.556  0.9802 -0.8565  0.3053
 2816TIP3    H2 8413   6.835   5.116   5.696  0.7641 -0.4576  0.4745
 2817TIP3   OH2 8414  -0.015   1.461   5.572  0.2647  0.2718 -0.4335
 2817TIP3    H1 8415  -0.007   1.434   5.663  0.9385 -0.7070 -0.7706
 2817TIP3    H2 8416   0.047   1.533   5.562  0.4271  0.1649 -0.1988
 2818TIP3   OH2 8417   5.809   3.507   0.704 -0.1911  0.4367 -0.0704
 2818TIP3    H1 8418   5.828   3.468   0.790 -2.7235  0.2229  0.4512
 2818TIP3    H2 8419   5.811   3.433   0.643  1.6050  0.5879 -0.2555
 2819TIP3   OH2 8420   5.830   3.155   5.652 -0.2650  0.0798 -0.5810
 2819TIP3    H1 8421   5.765   3.085   5.645  0.2863 -0.7517  1.6914
 2819TIP3    H2 8422   5.914   3.109   5.650  0.0961  0.3857  2.4621
 2820TIP3   OH2 8423   0.396   4.487   0.552 -0.0371  0.1050  0.5977
 2820TIP3    H1 8424   0.329   4.426   0.584  0.7085 -0.4253  1.1790
 2820TIP3    H2 8425   0.352   4.572   0.551 -1.4356 -0.5827 -1.2843
 2821TIP3   OH2 8426   1.324   1.478   5.832 -0.4059 -0.0259  0.2785
 2821TIP3    H1 8427   1.273   1.544   5.878 -0.0877 -0.0574  0.6838
 2821TIP3    H2 8428   1.271   1.398   5.835 -0.2016 -0.1402  0.9695
 2822TIP3   OH2 8429   3.955   5.172   1.604 -0.2424 -0.2137  0.6558
 2822TIP3    H1 8430   3.947   5.195   1.697  0.3713  0.5516  0.5318
 2822TIP3    H2 8431   3.900   5.236   1.559  0.6392  0.3635  0.3827
 2823TIP3   OH2 8432   1.273   2.460   2.214 -0.2582  0.6372 -0.0504
 2823TIP3    H1 8433   1.255   2.542   2.167 -0.0278  0.9640  0.4258
 2823TIP3    H2 8434   1.189   2.435   2.252  0.0486  1.6672  1.3896
 2824TIP3   OH2 8435   4.974   0.611   3.755  0.0867 -0.2715  0.2301
 2824TIP3    H1 8436   5.033   0.612   3.830 -0.7566 -0.7314  0.9104
 2824TIP3    H2 8437   4.948   0.519   3.746 -1.3461  0.0655  0.6087
 2825TIP3   OH2 8438   6.054   1.844   3.730 -0.2831 -0.0849 -0.1456
 2825TIP3    H1 8439   6.096   1.827   3.645  1.4042  0.2484  0.5905
 2825TIP3    H2 8440   6.113   1.904   3.774 -2.1031  1.2880  0.5281
 2826TIP3   OH2 8441   6.944   2.894   3.958 -0.0846 -0.1259 -0.3601
 2826TIP3    H1 8442   6.910   2.983   3.947  1.6058  0.6159 -0.0007
 2826TIP3    H2 8443   6.952   2.860   3.869 -0.9571 -0.0162 -0.4884
 2827TIP3   OH2 8444   5.581   0.601   4.229 -0.5585 -0.3037 -0.2673
 2827TIP3    H1 8445   5.487   0.587   4.239 -0.5260 -0.6276 -0.3820
 2827TIP3    H2 8446   5.612   0.522   4.185 -0.1640 -0.3804  0.1407
 2828TIP3   OH2 8447   7.032   4.229   4.308  0.2580  0.6223  0.9191
 2828TIP3    H1 8448   6.996   4.155   4.356 -1.9436  0.4016 -0.9030
 2828TIP3    H2 8449   6.984   4.305   4.342  0.7891  0.8900  1.0888
 2829TIP3   OH2 8450   3.041   3.530   5.664 -0.5077 -0.0276  0.5761
 2829TIP3    H1 8451   3.018   3.536   5.757  0.3058  2.7482  0.6882
 2829TIP3    H2 8452   3.125   3.484   5.663 -0.5535 -0.1319  1.2158
 2830TIP3   OH2 8453   2.169   0.626   1.971 -0.2883 -0.1607  0.9838
 2830TIP3    H1 8454   2.123   0.708   1.988 -2.4730 -1.1631  0.3466
 2830TIP3    H2 8455   2.240   0.649   1.911  0.3655  1.5243  2.3224
 2831TIP3   OH2 8456   0.107   4.855   0.844  0.2894 -0.1530 -0.2638
 2831TIP3    H1 8457   0.202   4.857   0.857  0.0581  0.2196  1.5465
 2831TIP3    H2 8458   0.080   4.947   0.845 -0.2889 -0.3129  1.0647
 2832TIP3   OH2 8459   1.022   6.791   5.141  0.5226  0.4587  0.2227
 2832TIP3    H1 8460   1.051   6.778   5.050 -1.6219  1.4357 -0.6690
 2832TIP3    H2 8461   0.973   6.712   5.162 -0.9446  1.1757 -0.3463
 2833TIP3   OH2 8462   0.509   5.865   1.236 -0.0225  0.0939 -0.3712
 2833TIP3    H1 8463   0.578   5.932   1.233 -0.4299  0.5162 -0.3746
 2833TIP3    H2 8464   0.489   5.855   1.329  1.4580 -1.5069 -0.1740
 2834TIP3   OH2 8465   1.590   0.450   4.409  0.3090  0.4855  0.3829
 2834TIP3    H1 8466   1.501   0.440   4.375  0.2561 -0.7330  0.8331
 2834TIP3    H2 8467   1.646   0.436   4.333  0.1319  0.1589  0.3085
 2835TIP3   OH2 8468   4.933   3.125   2.163  0.1732  0.5062  0.2069
 2835TIP3    H1 8469   5.001   3.175   2.118 -0.4949  0.6000 -0.7355
 2835TIP3    H2 8470   4.863   3.117   2.098 -0.7435  0.4722  1.1780
 2836TIP3   OH2 8471   1.908   2.447   4.947  0.2165  0.0445 -0.6723
 2836TIP3    H1 8472   1.982   2.422   5.002 -0.0958 -1.1955 -0.7805
 2836TIP3    H2 8473   1.900   2.542   4.959  1.3472  0.0832 -0.0861
 2837TIP3   OH2 8474   5.693   5.869   4.879 -0.0040 -0.4253 -0.5524
 2837TIP3    H1 8475   5.636   5.848   4.805  0.5616 -1.4523 -0.7061
 2837TIP3    H2 8476   5.677   5.800   4.943 -0.7235  0.6242  0.4493
 2838TIP3   OH2 8477   0.929   5.587   5.633 -0.1035 -0.8606 -0.3328
 2838TIP3    H1 8478   1.000   5.630   5.585 -1.0011  0.8695 -0.1937
 2838TIP3    H2 8479   0.892   5.525   5.570  1.1617 -1.4083 -0.5750
 2839TIP3   OH2 8480   1.681   2.486   2.949  0.2790 -0.2528  0.3381
 2839TIP3    H1 8481   1.670   2.391   2.944 -0.4293 -0.1309 -0.6792
 2839TIP3    H2 8482   1.663   2.507   3.041 -1.8123 -0.8531  0.1244
 2840TIP3   OH2 8483   3.031   2.936   1.579 -0.0106  0.5362 -0.5485
 2840TIP3    H1 8484   3.106   2.876   1.582 -0.5642 -0.2250 -1.3063
 2840TIP3    H2 8485   2.957   2.883   1.607 -0.4979  0.8892 -1.1404
 2841TIP3   OH2 8486   0.748   6.754   5.321 -0.3680  0.0779  0.5638
 2841TIP3    H1 8487   0.755   6.740   5.227  0.4174 -1.3800  0.8161
 2841TIP3    H2 8488   0.746   6.850   5.331 -4.2221  0.3646 -1.1451
 2842TIP3   OH2 8489   4.532   5.674   1.641 -0.1906  0.0566  0.1531
 2842TIP3    H1 8490   4.557   5.750   1.694  0.2815 -1.3274  2.0379
 2842TIP3    H2 8491   4.440   5.658   1.664  0.1224 -0.7724  0.9030
 2843TIP3   OH2 8492   1.791   4.366   1.802  0.3080 -0.4344 -0.1400
 2843TIP3    H1 8493   1.793   4.456   1.770  1.7945 -0.8988 -1.5175
 2843TIP3    H2 8494   1.857   4.364   1.872  3.0437 -1.1882 -2.5431
 2844TIP3   OH2 8495   2.260   3.228   3.955 -0.0695  0.2658  0.3868
 2844TIP3    H1 8496   2.279   3.282   3.878 -0.7452 -0.2172 -0.1339
 2844TIP3    H2 8497   2.294   3.279   4.028  0.0438  1.0219 -0.1713
 2845TIP3   OH2 8498   4.677   0.252   5.059  0.5628 -0.0991 -0.1803
 2845TIP3    H1 8499   4.615   0.179   5.063  1.6697 -1.2272 -2.0153
 2845TIP3    H2 8500   4.723   0.239   4.976  1.1276  2.4469 -0.3370
 2846TIP3   OH2 8501   2.242   1.812   0.081 -0.0574 -0.1798 -0.0290
 2846TIP3    H1 8502   2.213   1.860   0.158  1.5582  0.7765  0.0227
 2846TIP3    H2 8503   2.274   1.879   0.021  2.1177 -1.1167 -0.0148
 2847TIP3   OH2 8504   3.572   0.036   5.868 -0.1694  0.2123 -0.2482
 2847TIP3    H1 8505   3.624  -0.044   5.860  0.1566  0.1000  2.1894
 2847TIP3    H2 8506   3.613   0.097   5.807  2.4674 -0.1024  1.0258
 2848TIP3   OH2 8507   4.086   6.729   0.128 -0.2854  0.0735 -0.4114
 2848TIP3    H1 8508   4.072   6.784   0.051  1.2689  0.4064 -0.4941
 2848TIP3    H2 8509   4.002   6.730   0.174 -0.0795  3.3810  0.1513
 2849TIP3   OH2 8510   1.881   2.109   2.345 -0.3421 -0.3331  0.0705
 2849TIP3    H1 8511   1.853   2.052   2.417 -0.7214  0.1780  0.3377
 2849TIP3    H2 8512   1.869   2.056   2.266 -0.1894 -0.8006  0.3577
 2850TIP3   OH2 8513   1.706   1.934   2.520 -0.0547  0.2642 -0.0925
 2850TIP3    H1 8514   1.681   1.885   2.598 -0.6552  0.3890 -0.2034
 2850TIP3    H2 8515   1.628   1.984   2.497  0.1706  0.3511 -0.6819
 2851TIP3   OH2 8516   1.681   1.547   2.456  1.0137  0.5315 -0.0600
 2851TIP3    H1 8517   1.683   1.460   2.497  0.7519  0.8440  0.6220
 2851TIP3    H2 8518   1.719   1.533   2.369  0.0763 -0.4658 -0.3330
 2852TIP3   OH2 8519   1.374   3.862   0.354  0.1675  0.4462 -0.3624
 2852TIP3    H1 8520   1.446   3.847   0.414  0.8689  1.0463 -1.0233
 2852TIP3    H2 8521   1.359   3.957   0.358 -0.4149  0.3597 -0.4126
 2853TIP3   OH2 8522   2.078   0.635   4.579 -0.0467  0.4617 -0.2952
 2853TIP3    H1 8523   2.069   0.627   4.674 -0.5803  2.2397 -0.1425
 2853TIP3    H2 8524   2.159   0.589   4.558  1.0487  1.5593  1.2887
 2854TIP3   OH2 8525   3.826   6.391   1.536  0.3099  0.0367 -0.2017
 2854TIP3    H1 8526   3.803   6.344   1.455 -0.7554  0.7022 -0.3037
 2854TIP3    H2 8527   3.847   6.480   1.507 -0.8755  0.5091  0.3166
 2855TIP3   OH2 8528   6.631   2.919   5.683 -0.4310  0.0978 -0.3017
 2855TIP3    H1 8529   6.648   2.886   5.771  0.4068  0.8348 -0.1768
 2855TIP3    H2 8530   6.593   2.844   5.636  0.4085 -0.7153  0.2864
 2856TIP3   OH2 8531   2.449   4.393   1.743 -0.2252 -0.1242  0.1547
 2856TIP3    H1 8532   2.401   4.403   1.661  0.0879 -0.1133 -0.0295
 2856TIP3    H2 8533   2.435   4.475   1.790 -0.5523 -0.1998  0.1926
 2857TIP3   OH2 8534   0.454   1.164   5.247  0.0718 -0.1517  0.8041
 2857TIP3    H1 8535   0.489   1.115   5.173 -0.1356 -1.0531  1.2868
 2857TIP3    H2 8536   0.532   1.193   5.295  0.1969  0.0281  0.4965
 2858TIP3   OH2 8537   6.445   2.115   0.057 -0.1635  0.0923  0.3288
 2858TIP3    H1 8538   6.399   2.055  -0.001 -1.0596 -0.0816  1.1874
 2858TIP3    H2 8539   6.468   2.062   0.133 -0.0786  0.5920  0.6585
 2859TIP3   OH2 8540   1.405   5.493   0.838 -0.5734 -0.6147  0.4510
 2859TIP3    H1 8541   1.344   5.522   0.905 -0.1584 -0.3231  0.7056
 2859TIP3    H2 8542   1.416   5.399   0.854  2.3281 -0.0037  3.1556
 2860TIP3   OH2 8543   5.181   4.271   4.208  0.9618 -0.4045 -0.3315
 2860TIP3    H1 8544   5.107   4.318   4.246  0.8143 -1.1401  0.3351
 2860TIP3    H2 8545   5.173   4.182   4.242  1.5738 -0.7607 -1.0761
 2861TIP3   OH2 8546   1.017   1.378   3.182  0.0943  0.4065 -0.1785
 2861TIP3    H1 8547   1.009   1.444   3.112  0.7174  0.2465 -0.4140
 2861TIP3    H2 8548   0.992   1.424   3.262 -0.6750  0.5801 -0.5116
 2862TIP3   OH2 8549   5.223   3.368   5.867  0.8378 -0.5909 -0.2351
 2862TIP3    H1 8550   5.318   3.358   5.859  1.0104  0.8253 -0.2540
 2862TIP3    H2 8551   5.187   3.302   5.808  1.8726  0.2176 -1.8640
 2863TIP3   OH2 8552   6.227   3.211   5.835  0.2998  0.7454 -0.2805
 2863TIP3    H1 8553   6.210   3.128   5.878  1.4355  0.8986  0.4901
 2863TIP3    H2 8554   6.146   3.262   5.849  1.0876  1.3248  2.9859
 2864TIP3   OH2 8555   4.608   3.406   2.041 -0.9282  0.4823  0.5843
 2864TIP3    H1 8556   4.610   3.324   1.990  0.3665  1.3972 -0.9170
 2864TIP3    H2 8557   4.695   3.443   2.029 -1.5824  2.2145  1.0196
 2865TIP3   OH2 8558   6.273   3.437   5.185  0.0984  0.0364 -0.2752
 2865TIP3    H1 8559   6.180   3.422   5.165 -0.0339 -1.4956  1.1879
 2865TIP3    H2 8560   6.307   3.485   5.109 -1.6509 -0.2781 -1.3194
 2866TIP3   OH2 8561   0.486   5.261   0.799 -0.4932 -0.4720  0.0986
 2866TIP3    H1 8562   0.423   5.294   0.864 -0.1251  0.0141  0.2144
 2866TIP3    H2 8563   0.572   5.281   0.837 -0.2450 -1.9456  0.3530
 2867TIP3   OH2 8564   0.341   4.574   0.236 -0.3246  0.0031 -0.6004
 2867TIP3    H1 8565   0.409   4.602   0.175  0.8094  0.9709  1.0450
 2867TIP3    H2 8566   0.302   4.656   0.268 -2.2339 -0.5197 -1.4190
 2868TIP3   OH2 8567   7.061   2.256   0.674  0.3337 -0.1200  0.1106
 2868TIP3    H1 8568   7.140   2.220   0.714  1.2726  1.4175 -0.2680
 2868TIP3    H2 8569   6.999   2.265   0.746  0.8032 -0.5627  0.5748
 2869TIP3   OH2 8570   4.261   0.033   1.218  0.2243  0.0850 -0.9959
 2869TIP3    H1 8571   4.194   0.088   1.261 -0.5190 -0.1834 -1.7877
 2869TIP3    H2 8572   4.228  -0.056   1.227  2.3745 -0.5628  2.0544
 2870TIP3   OH2 8573   4.934   0.866   2.815  0.0544 -0.3053 -0.7615
 2870TIP3    H1 8574   4.934   0.799   2.883 -1.4647  1.0392  0.6403
 2870TIP3    H2 8575   5.015   0.850   2.766  1.4538 -1.0332  1.6191
 2871TIP3   OH2 8576   6.514   4.258   4.771  0.1738  0.2317 -0.3995
 2871TIP3    H1 8577   6.435   4.281   4.819 -0.1153 -0.5250 -0.4950
 2871TIP3    H2 8578   6.484   4.197   4.703  0.6431  0.9307 -1.2543
 2872TIP3   OH2 8579   0.426   2.526   1.450  0.3769 -0.1427 -0.0295
 2872TIP3    H1 8580   0.486   2.457   1.476  0.0410 -1.0206 -1.4662
 2872TIP3    H2 8581   0.450   2.546   1.359 -1.6579 -0.7351 -0.7493
 2873TIP3   OH2 8582   6.452   0.657   5.717 -1.1556  0.0931 -0.6784
 2873TIP3    H1 8583   6.444   0.750   5.696  1.6879  0.6556  0.2865
 2873TIP3    H2 8584   6.546   0.642   5.726 -1.5694 -2.6740  0.1624
 2874TIP3   OH2 8585   1.504   2.688   0.768 -0.8152  0.3384 -0.3610
 2874TIP3    H1 8586   1.497   2.593   0.780 -0.7825  0.5148  1.2361
 2874TIP3    H2 8587   1.558   2.698   0.690  0.8000 -0.9714  0.5149
 2875TIP3   OH2 8588   5.397   4.421   5.706  0.1550  0.0505 -0.6710
 2875TIP3    H1 8589   5.453   4.491   5.672 -0.8974  0.3917 -1.8053
 2875TIP3    H2 8590   5.310   4.462   5.713 -0.4057 -1.0397 -1.0255
 2876TIP3   OH2 8591   2.585   6.515   0.182  0.9043  0.2562 -0.3472
 2876TIP3    H1 8592   2.570   6.569   0.105  0.0071  1.4438  0.6233
 2876TIP3    H2 8593   2.532   6.555   0.251  0.5387 -1.6234  0.5322
 2877TIP3   OH2 8594   4.864   0.538   4.060  0.0574  0.6665  0.6757
 2877TIP3    H1 8595   4.839   0.490   3.982 -0.2986 -1.1440  1.8436
 2877TIP3    H2 8596   4.782   0.575   4.093  0.0279  0.5041  0.7855
 2878TIP3   OH2 8597   6.656   3.342   1.151 -0.0812 -0.0127  0.4614
 2878TIP3    H1 8598   6.691   3.362   1.238 -0.1394  1.3122  0.1967
 2878TIP3    H2 8599   6.712   3.272   1.119  0.0385 -0.4206  1.5012
 2879TIP3   OH2 8600   0.747   4.828   3.885  0.0616 -0.0159  0.3903
 2879TIP3    H1 8601   0.821   4.849   3.943 -0.5620  1.6695  0.6251
 2879TIP3    H2 8602   0.768   4.873   3.803 -0.7662  0.6271  0.5190
 2880TIP3   OH2 8603   4.600   0.184   3.512  0.2304 -0.5932 -0.3974
 2880TIP3    H1 8604   4.567   0.140   3.434  0.1118  0.2516 -0.8351
 2880TIP3    H2 8605   4.529   0.179   3.576 -0.6392  0.8600 -1.1935
 2881TIP3   OH2 8606   5.538   6.602   3.029 -0.3580  0.1262  0.2394
 2881TIP3    H1 8607   5.541   6.531   2.965  1.2458 -1.1184  1.5946
 2881TIP3    H2 8608   5.597   6.669   2.994 -1.0241  0.3538 -0.5009
 2882TIP3   OH2 8609   0.390   4.289   3.196 -0.0957  0.3535  0.3989
 2882TIP3    H1 8610   0.478   4.317   3.223 -0.3742  1.1024  0.5438
 2882TIP3    H2 8611   0.356   4.241   3.272 -0.0191  0.5186  0.5376
 2883TIP3   OH2 8612   0.780   4.998   4.320 -0.3531 -0.0890 -0.3046
 2883TIP3    H1 8613   0.792   5.075   4.265  0.4692 -0.2600 -0.3709
 2883TIP3    H2 8614   0.694   4.964   4.296 -1.7193  2.0167  1.2274
 2884TIP3   OH2 8615   5.570   1.784   4.378 -0.7858  0.8014 -0.3251
 2884TIP3    H1 8616   5.514   1.800   4.302 -0.2756  2.5106 -0.3710
 2884TIP3    H2 8617   5.645   1.735   4.343 -0.8986  0.9539 -0.7774
 2885TIP3   OH2 8618   2.083   4.636  -0.011  0.2234 -0.1393  0.2943
 2885TIP3    H1 8619   2.091   4.731  -0.018  1.1536  0.1502  3.4632
 2885TIP3    H2 8620   2.008   4.622   0.047  0.1528 -1.3252 -0.0550
 2886TIP3   OH2 8621   5.491   1.260   2.406  0.1216  0.0768  0.1005
 2886TIP3    H1 8622   5.446   1.187   2.449  0.7000  0.4096  1.3300
 2886TIP3    H2 8623   5.422   1.305   2.357 -0.3065 -1.0902 -0.4062
 2887TIP3   OH2 8624   2.901   5.567   1.622  0.3070  0.3766  0.2837
 2887TIP3    H1 8625   2.922   5.648   1.669  1.0340  0.1203  0.4084
 2887TIP3    H2 8626   2.918   5.497   1.685  0.0117  0.1087  0.0667
 2888TIP3   OH2 8627   3.379   2.081   1.965  0.0043  0.4861 -0.2667
 2888TIP3    H1 8628   3.318   2.146   1.931 -0.3875 -0.1560 -0.8117
 2888TIP3    H2 8629   3.335   1.997   1.952  0.1444  0.1563  1.1815
 2889TIP3   OH2 8630   3.396   2.307   4.414  0.1240  0.0275  0.2581
 2889TIP3    H1 8631   3.420   2.348   4.331 -1.9125  1.6921  0.4202
 2889TIP3    H2 8632   3.370   2.218   4.391 -1.8886  0.9228 -1.1832
 2890TIP3   OH2 8633   0.240   6.518   3.383  0.2287 -0.0444  0.2178
 2890TIP3    H1 8634   0.169   6.534   3.320 -0.1434 -1.0561  0.3604
 2890TIP3    H2 8635   0.304   6.466   3.335  1.1230  1.2590 -0.0520
 2891TIP3   OH2 8636   5.170   0.762   2.713 -0.0063  0.6416  0.0252
 2891TIP3    H1 8637   5.256   0.784   2.749  0.6309 -1.6352  0.0460
 2891TIP3    H2 8638   5.175   0.786   2.621  0.2791  1.4478  0.2442
 2892TIP3   OH2 8639   2.416   4.781   4.049  0.2839 -0.4625  0.4365
 2892TIP3    H1 8640   2.490   4.824   4.008  0.1299 -0.1340  0.5043
 2892TIP3    H2 8641   2.390   4.713   3.985  0.2532 -0.1736  0.1399
 2893TIP3   OH2 8642   3.571   2.719   1.604 -0.0580  0.4002 -0.1032
 2893TIP3    H1 8643   3.596   2.627   1.604 -0.4303  0.2399 -2.1467
 2893TIP3    H2 8644   3.609   2.755   1.684 -0.4717 -1.6544  1.0796
 2894TIP3   OH2 8645   1.267   1.472   2.130 -0.8135 -0.7637 -0.0555
 2894TIP3    H1 8646   1.358   1.442   2.138  0.9422  3.8839  0.1399
 2894TIP3    H2 8647   1.246   1.462   2.037  1.3647  1.3797 -0.8817
 2895TIP3   OH2 8648   6.724   4.449   2.685 -0.0023  0.2486  0.5366
 2895TIP3    H1 8649   6.790   4.491   2.630 -0.4676 -0.5017 -0.6275
 2895TIP3    H2 8650   6.694   4.518   2.743  0.3907  1.1050 -0.2569
 2896TIP3   OH2 8651   7.025   6.724   0.356 -0.4135 -0.6194  0.3528
 2896TIP3    H1 8652   7.029   6.641   0.308 -0.5684 -0.1431 -0.5119
 2896TIP3    H2 8653   7.013   6.791   0.288 -3.0394 -0.1248  1.1762
 2897TIP3   OH2 8654   6.341   4.006   0.534 -0.4032  0.2870  0.0652
 2897TIP3    H1 8655   6.369   4.031   0.622 -0.0029  1.7484 -0.4402
 2897TIP3    H2 8656   6.419   3.972   0.491 -1.0512 -2.5196  0.9085
 2898TIP3   OH2 8657   1.640   0.746   2.174 -0.2973  0.3211 -0.2820
 2898TIP3    H1 8658   1.698   0.782   2.242 -0.7680 -0.7496  0.7212
 2898TIP3    H2 8659   1.699   0.699   2.115 -0.2193 -2.3376  1.7439
 2899TIP3   OH2 8660   6.815   5.990   5.266  0.1907  0.4955 -0.3073
 2899TIP3    H1 8661   6.771   5.905   5.263 -1.2251  1.0717  1.6009
 2899TIP3    H2 8662   6.895   5.973   5.316 -0.6272  0.4277  1.0578
 2900TIP3   OH2 8663   5.952   5.578   4.849 -0.1364  0.3175 -0.2621
 2900TIP3    H1 8664   5.992   5.666   4.853  1.6455 -0.4634  0.2783
 2900TIP3    H2 8665   6.027   5.518   4.849 -1.2707 -1.3619  3.2980
 2901TIP3   OH2 8666   5.063   3.483   2.702 -0.2133  0.3414 -0.4812
 2901TIP3    H1 8667   5.074   3.443   2.616  0.8995 -1.5567  0.4913
 2901TIP3    H2 8668   5.021   3.416   2.755  0.9214  0.7276  0.9718
 2902TIP3   OH2 8669   5.217   6.788   1.371 -0.7249  0.1820  0.5852
 2902TIP3    H1 8670   5.181   6.709   1.411  0.1459 -1.1523 -1.1230
 2902TIP3    H2 8671   5.278   6.756   1.305  0.3977  2.3203  0.4955
 2903TIP3   OH2 8672   6.198   1.719   0.795 -0.3516  0.2664 -0.1245
 2903TIP3    H1 8673   6.213   1.777   0.720 -0.3142 -0.8132 -0.9768
 2903TIP3    H2 8674   6.103   1.712   0.801 -0.4539  2.2565  1.4640
 2904TIP3   OH2 8675   1.090   6.633   1.929  0.3864  0.0022  0.6012
 2904TIP3    H1 8676   1.067   6.634   1.836 -0.0450  0.6111  0.7111
 2904TIP3    H2 8677   1.146   6.556   1.939  1.8881  0.8809 -0.5180
 2905TIP3   OH2 8678   3.130   5.867   0.776  0.6054 -0.0511 -0.1224
 2905TIP3    H1 8679   3.198   5.817   0.731 -0.2026 -1.1803 -0.1405
 2905TIP3    H2 8680   3.164   5.957   0.779  1.6340 -0.3862 -1.0302
 2906TIP3   OH2 8681   6.986   0.095   1.551  0.1437  0.3053  0.5029
 2906TIP3    H1 8682   6.989   0.140   1.467  1.9652 -1.8382 -0.6713
 2906TIP3    H2 8683   6.917   0.029   1.541  1.0032 -0.5762  0.3390
 2907TIP3   OH2 8684   3.364   5.665   4.699 -0.1021 -0.0383 -0.1563
 2907TIP3    H1 8685   3.290   5.702   4.747  0.6062 -0.2873  1.1593
 2907TIP3    H2 8686   3.438   5.673   4.759  0.8341 -0.2922 -1.2412
 2908TIP3   OH2 8687   5.614   2.209   5.519 -0.5936 -0.8072  0.1754
 2908TIP3    H1 8688   5.696   2.168   5.545 -0.2203  0.5545  1.2671
 2908TIP3    H2 8689   5.637   2.263   5.444 -0.1023  0.7404  1.3711
 2909TIP3   OH2 8690   6.086   4.197   0.584 -0.2280  0.2257 -0.4552
 2909TIP3    H1 8691   6.010   4.141   0.594  0.5246 -0.9153 -0.9494
 2909TIP3    H2 8692   6.161   4.138   0.593  0.6016  1.2611 -0.3207
 2910TIP3   OH2 8693   3.459   3.718   1.898  0.2585 -0.0792  0.1224
 2910TIP3    H1 8694   3.367   3.707   1.925  0.3302 -3.5729 -0.5863
 2910TIP3    H2 8695   3.456   3.718   1.802  1.0014 -0.4848  0.0932
 2911TIP3   OH2 8696   1.598   3.332   3.348 -0.4590 -0.3676 -0.1304
 2911TIP3    H1 8697   1.560   3.261   3.399  0.8765  0.1102  1.6493
 2911TIP3    H2 8698   1.557   3.325   3.262  0.3585 -3.9262 -0.3785
 2912TIP3   OH2 8699   6.508   3.360   5.837  0.1439 -0.4938  0.2535
 2912TIP3    H1 8700   6.414   3.353   5.851 -0.1035 -0.4438 -1.2758
 2912TIP3    H2 8701   6.539   3.270   5.836 -0.3744 -0.7111 -2.1368
 2913TIP3   OH2 8702   2.705   3.139   0.114 -0.6468 -0.4685 -0.1938
 2913TIP3    H1 8703   2.784   3.089   0.134 -0.9974 -0.5139  1.2157
 2913TIP3    H2 8704   2.661   3.148   0.199 -2.0241 -0.2220 -0.9102
 2914TIP3   OH2 8705   6.767   5.664   2.962  0.1702  0.0752  0.0219
 2914TIP3    H1 8706   6.847   5.708   2.932  0.1511  1.1309  1.4347
 2914TIP3    H2 8707   6.697   5.727   2.946 -0.2587 -0.4920 -0.3804
 2915TIP3   OH2 8708   3.409   0.557   3.090  0.4172  0.4302  0.0198
 2915TIP3    H1 8709   3.436   0.599   3.009  0.8168  0.2559  0.0609
 2915TIP3    H2 8710   3.474   0.584   3.155  0.2108  0.4119  0.2363
 2916TIP3   OH2 8711   5.259   4.306   1.401 -0.6836  0.1586  0.5085
 2916TIP3    H1 8712   5.317   4.278   1.472 -0.5629 -0.6572  0.1060
 2916TIP3    H2 8713   5.241   4.225   1.352  2.0920  1.1300 -2.5298
 2917TIP3   OH2 8714   6.323   5.700   4.139 -0.4366 -0.1283  0.2478
 2917TIP3    H1 8715   6.246   5.736   4.184 -0.7831  1.3242 -1.3994
 2917TIP3    H2 8716   6.363   5.776   4.096  1.0194 -1.1326 -0.2505
 2918TIP3   OH2 8717   3.018   4.519   2.549  0.3744  0.7399  0.7144
 2918TIP3    H1 8718   2.961   4.527   2.473  0.1438  1.0070  0.9101
 2918TIP3    H2 8719   3.036   4.426   2.557  0.7726  0.7562  0.0625
 2919TIP3   OH2 8720   5.623   4.994   0.880 -0.0322 -0.5519  0.4370
 2919TIP3    H1 8721   5.640   4.919   0.938  1.1674 -0.1688  0.6142
 2919TIP3    H2 8722   5.646   4.962   0.793 -0.5340 -0.7071  0.3578
 2920TIP3   OH2 8723   0.138   2.507   5.264  0.0752 -0.2454  0.0655
 2920TIP3    H1 8724   0.045   2.526   5.253 -0.3158 -2.6221 -1.3498
 2920TIP3    H2 8725   0.147   2.485   5.356 -0.5676  0.7883  0.3986
 2921TIP3   OH2 8726   6.555   1.449   0.222  0.7223  0.2591  0.1563
 2921TIP3    H1 8727   6.482   1.498   0.185  0.3478  0.1608  0.7619
 2921TIP3    H2 8728   6.584   1.502   0.297  0.5886 -0.2239  0.5550
 2922TIP3   OH2 8729   6.697   5.182   0.326 -0.1260  0.2239 -0.7197
 2922TIP3    H1 8730   6.691   5.105   0.270 -0.5906 -0.7132  0.5796
 2922TIP3    H2 8731   6.732   5.149   0.409  0.6357  1.5934 -0.4617
 2923TIP3   OH2 8732   4.344   0.574   3.042 -0.4347  0.3141  0.6511
 2923TIP3    H1 8733   4.258   0.590   3.004  0.8285  0.8018 -2.2666
 2923TIP3    H2 8734   4.350   0.637   3.114 -0.8131  3.7012 -2.0326
 2924TIP3   OH2 8735   5.566   3.190   3.990 -0.7153  0.3838 -0.1878
 2924TIP3    H1 8736   5.507   3.243   4.043  1.3954  1.0987  1.5616
 2924TIP3    H2 8737   5.615   3.137   4.054  0.2174 -0.5257 -1.5999
 2925TIP3   OH2 8738   6.170   3.365   0.258  0.3952  0.1914  0.0973
 2925TIP3    H1 8739   6.093   3.324   0.220  0.7543  1.2098 -1.8770
 2925TIP3    H2 8740   6.172   3.334   0.348 -1.8542 -0.4864 -0.0264
 2926TIP3   OH2 8741   1.751   2.342   5.710  0.1939 -0.7359 -0.1052
 2926TIP3    H1 8742   1.775   2.286   5.637 -2.6829 -1.9728 -0.1981
 2926TIP3    H2 8743   1.723   2.424   5.670  0.9577 -0.5146 -0.2001
 2927TIP3   OH2 8744   5.068   0.389   5.015  0.7226 -0.0187 -0.1084
 2927TIP3    H1 8745   5.156   0.418   4.993  0.4793 -0.2240 -1.4859
 2927TIP3    H2 8746   5.025   0.466   5.052  1.6777 -0.1070  1.2135
 2928TIP3   OH2 8747   5.310   2.347   2.256  0.0262  0.0534  0.3044
 2928TIP3    H1 8748   5.325   2.261   2.215  1.2633  0.6997 -0.6685
 2928TIP3    H2 8749   5.352   2.409   2.197  0.0030  1.2462  1.5010
 2929TIP3   OH2 8750   7.181   1.900   2.744 -0.1348  0.6794 -0.4346
 2929TIP3    H1 8751   7.090   1.870   2.749  0.2461 -0.3087  1.7063
 2929TIP3    H2 8752   7.221   1.870   2.826  2.0822  1.2608 -1.2256
 2930TIP3   OH2 8753   6.841   3.406   4.803  0.0476 -0.4376  0.2790
 2930TIP3    H1 8754   6.810   3.398   4.713  0.2290  0.5388  0.1124
 2930TIP3    H2 8755   6.763   3.426   4.854 -0.3716 -2.8129  0.6640
 2931TIP3   OH2 8756   0.470   5.683   1.776  0.1931 -0.7053 -0.0004
 2931TIP3    H1 8757   0.506   5.756   1.828 -1.7124  0.4057 -0.1576
 2931TIP3    H2 8758   0.450   5.616   1.841  1.3027 -0.8361  0.2323
 2932TIP3   OH2 8759   1.749   5.238   5.157  0.4641 -0.1518 -0.2501
 2932TIP3    H1 8760   1.830   5.280   5.185 -0.5395  1.0768  0.9528
 2932TIP3    H2 8761   1.776   5.179   5.086  2.6351 -1.0115  1.1796
 2933TIP3   OH2 8762   0.940   3.284   1.235 -0.3871 -0.0786  0.2765
 2933TIP3    H1 8763   0.902   3.201   1.263  0.0137  0.0798  1.3318
 2933TIP3    H2 8764   0.884   3.313   1.163 -0.0130 -1.6837 -0.7051
 2934TIP3   OH2 8765   2.664   2.081   3.838  0.1336  0.4051  0.8400
 2934TIP3    H1 8766   2.615   2.065   3.919 -1.4374 -0.9476 -0.3168
 2934TIP3    H2 8767   2.676   2.176   3.836 -1.3001  0.6411  1.8417
 2935TIP3   OH2 8768   3.573   0.710   5.760 -0.4677  0.3827  0.4471
 2935TIP3    H1 8769   3.483   0.685   5.777 -0.6845  0.2653 -0.7575
 2935TIP3    H2 8770   3.566   0.795   5.716 -0.0962 -0.2968 -0.9798
 2936TIP3   OH2 8771   4.862   1.631   5.637  0.1102  0.2851 -0.1206
 2936TIP3    H1 8772   4.830   1.593   5.555  1.1519  1.7574 -1.2648
 2936TIP3    H2 8773   4.833   1.570   5.705 -0.2514 -1.2997 -1.6361
 2937TIP3   OH2 8774   4.074   3.786   3.478 -0.3398  0.1703  0.3853
 2937TIP3    H1 8775   4.124   3.753   3.404 -0.3270  1.3638 -0.1681
 2937TIP3    H2 8776   4.137   3.836   3.530 -0.2261 -1.0977  1.5147
 2938TIP3   OH2 8777   6.652   3.541   2.705  0.2973 -0.5183  0.1395
 2938TIP3    H1 8778   6.655   3.587   2.789 -0.3237 -0.5630  0.1853
 2938TIP3    H2 8779   6.722   3.475   2.711  1.1908  0.4025  0.0737
 2939TIP3   OH2 8780   3.486   5.800   2.395  0.5753 -0.4939  0.0536
 2939TIP3    H1 8781   3.436   5.750   2.461  0.9374  1.3907  1.8469
 2939TIP3    H2 8782   3.424   5.866   2.364  1.0032 -0.1531 -0.0750
 2940TIP3   OH2 8783   6.581   3.277   0.532  0.5952 -0.1337 -0.0294
 2940TIP3    H1 8784   6.504   3.230   0.502  0.5048 -0.1694  0.2509
 2940TIP3    H2 8785   6.563   3.296   0.624 -0.2050  2.1259 -0.5993
 2941TIP3   OH2 8786   2.412   5.319   2.336 -0.2081  0.3584  0.0848
 2941TIP3    H1 8787   2.467   5.250   2.300 -0.6107  0.2903 -0.4220
 2941TIP3    H2 8788   2.453   5.400   2.305 -0.0926  0.3262  0.1528
 2942TIP3   OH2 8789   4.731   4.450   4.716  0.0471 -0.5573 -0.1392
 2942TIP3    H1 8790   4.654   4.416   4.760 -1.4186  1.1248 -1.2790
 2942TIP3    H2 8791   4.757   4.381   4.656 -1.1697 -0.7744 -0.4364
 2943TIP3   OH2 8792   7.076   1.944   2.335  0.8889  0.1869  0.1125
 2943TIP3    H1 8793   7.056   1.975   2.246  0.3281  1.0969  0.5425
 2943TIP3    H2 8794   7.081   2.023   2.388  1.1511 -0.3524  0.9148
 2944TIP3   OH2 8795   5.659   3.871   4.513 -0.2121 -0.5507 -0.4324
 2944TIP3    H1 8796   5.651   3.837   4.424 -1.9092  0.2399 -0.6241
 2944TIP3    H2 8797   5.727   3.938   4.508 -0.3850 -0.4210 -1.1714
 2945TIP3   OH2 8798   6.632   4.301   2.291 -0.8557  0.8550  0.3922
 2945TIP3    H1 8799   6.696   4.284   2.360  0.3049 -1.6876 -1.1660
 2945TIP3    H2 8800   6.674   4.364   2.233  0.0878 -0.4206 -0.3509
 2946TIP3   OH2 8801   6.357   0.385   5.031 -0.1973  0.4820  0.2575
 2946TIP3    H1 8802   6.392   0.417   4.948  1.7781 -1.2718  0.3178
 2946TIP3    H2 8803   6.298   0.315   5.006  3.3054 -2.7932  0.1935
 2947TIP3   OH2 8804   2.523   3.003   2.725 -0.2067  0.0044 -1.0676
 2947TIP3    H1 8805   2.458   3.060   2.766  0.3820 -0.2623  0.3067
 2947TIP3    H2 8806   2.481   2.972   2.645 -2.3895 -1.3126  0.4753
 2948TIP3   OH2 8807   3.180   2.286   0.283  0.1744 -0.4052 -0.4602
 2948TIP3    H1 8808   3.090   2.274   0.311  0.0765  1.2668  0.0150
 2948TIP3    H2 8809   3.232   2.238   0.348 -0.2902 -0.3054 -0.0168
 2949TIP3   OH2 8810   6.443   1.861   4.028  0.4108  0.2394  0.4117
 2949TIP3    H1 8811   6.377   1.808   3.982  0.0697  0.4689  0.6309
 2949TIP3    H2 8812   6.513   1.800   4.048  0.5631  0.1351 -0.4136
 2950TIP3   OH2 8813   3.089   6.184   0.630 -0.6030  0.0341 -0.8784
 2950TIP3    H1 8814   3.171   6.231   0.647 -0.6822 -0.4106  0.8932
 2950TIP3    H2 8815   3.103   6.142   0.545  1.3039 -0.6331 -0.2910
 2951TIP3   OH2 8816   5.017   6.477   1.282  0.0480 -0.0505 -0.6397
 2951TIP3    H1 8817   4.964   6.449   1.208 -1.0056 -2.6244  0.9388
 2951TIP3    H2 8818   4.956   6.518   1.342  0.6390  0.8147 -0.6174
 2952TIP3   OH2 8819   1.443   1.705   4.131  0.4739  0.6045  0.2526
 2952TIP3    H1 8820   1.472   1.641   4.065  0.1327  1.1045 -0.3895
 2952TIP3    H2 8821   1.510   1.774   4.129 -0.0490  1.1037 -0.2803
 2953TIP3   OH2 8822   7.031   3.285   3.627 -0.2952 -0.0814  0.0856
 2953TIP3    H1 8823   7.101   3.231   3.664 -1.6892 -2.2619 -0.2752
 2953TIP3    H2 8824   6.960   3.223   3.611 -1.6682  1.7522 -1.2082
 2954TIP3   OH2 8825   6.891   5.848   0.115 -0.4043 -0.2485 -0.0353
 2954TIP3    H1 8826   6.879   5.755   0.094  1.3729 -0.5647  0.1888
 2954TIP3    H2 8827   6.808   5.875   0.154 -0.6310 -1.9971  0.7721
 2955TIP3   OH2 8828   0.640   6.754   1.636 -0.4688  0.2381  0.4161
 2955TIP3    H1 8829   0.560   6.703   1.626 -0.9252  1.1383 -0.7243
 2955TIP3    H2 8830   0.704   6.691   1.670 -0.8788 -1.2254 -1.3761
 2956TIP3   OH2 8831   6.935   2.085   1.820 -0.0826 -0.2754 -0.2470
 2956TIP3    H1 8832   6.917   2.166   1.772 -0.0301  0.3848  0.8191
 2956TIP3    H2 8833   6.861   2.028   1.799 -1.0725  0.7199  0.4448
 2957TIP3   OH2 8834   2.452   4.818   4.322  0.5414  0.0790 -0.3789
 2957TIP3    H1 8835   2.511   4.893   4.331  0.2154  0.2013  0.9679
 2957TIP3    H2 8836   2.415   4.828   4.234  1.3334  0.8666 -0.6493
 2958TIP3   OH2 8837   0.733   3.635   0.498 -0.2925  0.0710  0.2471
 2958TIP3    H1 8838   0.740   3.569   0.429 -2.7909  0.7419 -0.7754
 2958TIP3    H2 8839   0.709   3.585   0.576  0.0215 -0.4336  0.0278
 2959TIP3   OH2 8840   0.904   5.330   2.527 -0.4180 -0.2922  0.1332
 2959TIP3    H1 8841   0.910   5.305   2.435 -0.7873 -0.0909  0.0523
 2959TIP3    H2 8842   0.811   5.328   2.547 -0.6044  1.9649 -0.1677
 2960TIP3   OH2 8843   6.101   3.085   4.735 -0.2898 -0.2642  0.3052
 2960TIP3    H1 8844   6.056   3.059   4.815 -0.7510 -3.2881 -0.8036
 2960TIP3    H2 8845   6.190   3.053   4.746  0.2437  1.1847  0.4151
 2961TIP3   OH2 8846   6.144   6.701   3.367  0.5831  0.3315  0.2492
 2961TIP3    H1 8847   6.070   6.737   3.416 -0.4862 -0.9627 -0.3422
 2961TIP3    H2 8848   6.211   6.685   3.433 -0.5373 -0.6492  1.1915
 2962TIP3   OH2 8849   5.068   0.060   0.333 -0.3549  0.0417  0.2692
 2962TIP3    H1 8850   5.014   0.139   0.339 -1.4994 -0.4504 -2.3909
 2962TIP3    H2 8851   5.038   0.006   0.406 -1.8164  0.7476  0.2231
 2963TIP3   OH2 8852   2.053   0.632   4.024 -0.7079 -0.2471  0.3526
 2963TIP3    H1 8853   2.020   0.662   3.940  1.9464 -2.5636 -1.7247
 2963TIP3    H2 8854   2.082   0.711   4.068  0.2008  0.8970 -2.1079
 2964TIP3   OH2 8855   4.932   2.372   0.315 -0.5271 -0.2942  0.7546
 2964TIP3    H1 8856   4.884   2.344   0.237 -0.6321 -1.1024  1.1013
 2964TIP3    H2 8857   4.886   2.331   0.388 -0.9356  1.1405  1.3318
 2965TIP3   OH2 8858   1.725   2.691   3.219 -0.3369 -0.0866  0.7421
 2965TIP3    H1 8859   1.642   2.648   3.194 -0.2829  1.1520 -1.9415
 2965TIP3    H2 8860   1.707   2.784   3.211  1.5774  0.1953 -1.0575
 2966TIP3   OH2 8861   0.246   1.907   4.348  0.0791  0.1434  0.6808
 2966TIP3    H1 8862   0.291   1.822   4.346  0.6493  0.4243  1.1478
 2966TIP3    H2 8863   0.187   1.901   4.423  0.7806  0.4771  1.2704
 2967TIP3   OH2 8864   2.596   5.345   0.241  0.1581 -0.3893 -0.0721
 2967TIP3    H1 8865   2.610   5.437   0.262  0.5007 -0.1191 -1.4027
 2967TIP3    H2 8866   2.527   5.316   0.301 -0.9705  1.1159 -0.5884
 2968TIP3   OH2 8867   1.301   2.602   5.002  0.3125  0.0686  0.2750
 2968TIP3    H1 8868   1.277   2.516   4.968 -0.4038 -0.0092  0.9597
 2968TIP3    H2 8869   1.218   2.648   5.013  0.6995  0.9132 -0.2334
 2969TIP3   OH2 8870   6.010   3.401   5.129  0.4917  0.6353  0.0489
 2969TIP3    H1 8871   5.979   3.426   5.216  0.3771  2.3479 -0.4404
 2969TIP3    H2 8872   6.025   3.485   5.084  0.3706 -0.1967 -1.6367
 2970TIP3   OH2 8873   3.018   0.432   2.067  0.4074  0.1149 -0.3187
 2970TIP3    H1 8874   3.058   0.436   2.153  1.1517  1.3386 -0.7006
 2970TIP3    H2 8875   3.075   0.374   2.017 -1.4951 -2.8445  0.7036
 2971TIP3   OH2 8876   4.815   5.677  -0.006  0.5780 -0.7252  0.7715
 2971TIP3    H1 8877   4.830   5.764  -0.043 -1.2461 -0.7204 -0.0491
 2971TIP3    H2 8878   4.852   5.682   0.083  1.0617  0.6641  0.5153
 2972TIP3   OH2 8879   4.674   5.731   2.433  0.3380 -0.0181 -0.2402
 2972TIP3    H1 8880   4.701   5.814   2.474  0.5121  0.5424 -1.4359
 2972TIP3    H2 8881   4.602   5.755   2.376  1.0387 -0.5080 -1.3586
 2973TIP3   OH2 8882   5.188   6.013   0.904 -0.0319 -0.2543  0.5029
 2973TIP3    H1 8883   5.131   5.948   0.863  1.2906 -0.4335 -1.1542
 2973TIP3    H2 8884   5.158   6.097   0.870  0.5392 -0.3317 -0.2121
 2974TIP3   OH2 8885   2.674   6.513   5.073 -0.4941 -0.4439  0.1809
 2974TIP3    H1 8886   2.732   6.474   5.007 -1.0722  1.0920 -1.3119
 2974TIP3    H2 8887   2.604   6.448   5.085  1.5504 -2.4413  2.2042
 2975TIP3   OH2 8888   1.993   5.645   4.708  0.5374  0.1908 -0.3743
 2975TIP3    H1 8889   1.980   5.662   4.615 -1.1324  0.2896 -0.1484
 2975TIP3    H2 8890   2.083   5.613   4.714  0.0710 -1.7072 -2.3060
 2976TIP3   OH2 8891   2.838   4.257   1.204  0.0506  0.2231  0.1693
 2976TIP3    H1 8892   2.901   4.287   1.138  0.0820  0.7043  0.4138
 2976TIP3    H2 8893   2.883   4.269   1.288  0.6531 -1.9702  0.2125
 2977TIP3   OH2 8894   1.956   5.424   2.682  0.4570 -0.4356  0.3231
 2977TIP3    H1 8895   1.981   5.512   2.707  1.6914 -0.7386  0.1965
 2977TIP3    H2 8896   1.862   5.420   2.699  0.6853  0.3599  1.8994
 2978TIP3   OH2 8897   4.130   0.098   1.605 -0.0567  0.1904  0.1138
 2978TIP3    H1 8898   4.093   0.090   1.517 -2.0274 -0.7301  0.9671
 2978TIP3    H2 8899   4.148   0.008   1.632 -0.4321  0.3816  1.0320
 2979TIP3   OH2 8900   4.904   0.477   5.648  0.3969 -0.0342 -0.0231
 2979TIP3    H1 8901   4.871   0.392   5.619  3.7644 -1.4877 -0.0944
 2979TIP3    H2 8902   4.954   0.510   5.573  1.9026  0.3730  1.0994
 2980TIP3   OH2 8903   2.210   6.616   4.201 -0.9555  0.4100 -0.1762
 2980TIP3    H1 8904   2.287   6.637   4.254 -0.0679 -1.0741 -0.8461
 2980TIP3    H2 8905   2.140   6.605   4.265 -0.3039  0.4153  0.5526
 2981TIP3   OH2 8906   6.137   6.199   3.752 -0.0581 -0.1703  0.1367
 2981TIP3    H1 8907   6.126   6.287   3.787  0.7923 -0.4071  1.0329
 2981TIP3    H2 8908   6.053   6.156   3.770  0.4073 -0.3442  2.1213
 2982TIP3   OH2 8909   3.539   6.144   3.828  0.1812 -0.5288 -0.2278
 2982TIP3    H1 8910   3.464   6.160   3.770  0.1911  3.1625  0.5603
 2982TIP3    H2 8911   3.507   6.080   3.891 -3.1154  2.1560  1.1473
 2983TIP3   OH2 8912   0.143   6.710   4.402 -0.1130  0.0536  0.0380
 2983TIP3    H1 8913   0.164   6.655   4.478  1.7693 -1.1153 -1.2495
 2983TIP3    H2 8914   0.148   6.800   4.435  1.0408 -0.4171  1.2115
 2984TIP3   OH2 8915   3.330   5.480   4.106 -0.0474  0.3503  0.4739
 2984TIP3    H1 8916   3.238   5.453   4.106 -0.2668  1.1040  0.0522
 2984TIP3    H2 8917   3.351   5.496   4.015 -0.3487  3.0100  0.7862
 2985TIP3   OH2 8918   4.678   2.990   5.403  0.7211  0.7535  0.7289
 2985TIP3    H1 8919   4.689   2.909   5.453  0.5917  0.6161  0.5394
 2985TIP3    H2 8920   4.584   2.998   5.390  0.8152  0.1258 -0.5450
 2986TIP3   OH2 8921   2.138   3.735   4.505  0.2238 -0.1581 -0.0145
 2986TIP3    H1 8922   2.109   3.826   4.508  1.0807  0.2270 -2.0951
 2986TIP3    H2 8923   2.163   3.715   4.596  2.6415  2.5767  0.0549
 2987TIP3   OH2 8924   2.899   2.631   5.218 -0.3550 -0.1162  0.0020
 2987TIP3    H1 8925   2.987   2.601   5.240 -1.0223 -1.1578  1.3618
 2987TIP3    H2 8926   2.875   2.690   5.290 -0.4487  0.8995 -0.8278
 2988TIP3   OH2 8927   1.068   1.546   4.325  0.1766 -0.0923  0.4248
 2988TIP3    H1 8928   1.114   1.507   4.250 -2.2666 -0.9635 -0.7151
 2988TIP3    H2 8929   1.038   1.472   4.376  1.5675  0.4957  2.2147
 2989TIP3   OH2 8930   5.991   2.826   1.522  0.2833 -0.3350  0.2789
 2989TIP3    H1 8931   5.946   2.900   1.563  0.2753 -1.0024  1.5145
 2989TIP3    H2 8932   6.040   2.785   1.594 -0.9212 -2.4371 -0.0359
 2990TIP3   OH2 8933   3.804   3.865   3.398 -0.2973  0.5524  0.2138
 2990TIP3    H1 8934   3.888   3.848   3.440  0.2777  2.3823 -0.0679
 2990TIP3    H2 8935   3.806   3.814   3.317  0.5350  0.5500  0.2333
 2991TIP3   OH2 8936   2.453   1.279   3.175 -0.5578  0.2026  0.5955
 2991TIP3    H1 8937   2.471   1.288   3.081 -0.2504  0.3259  0.6659
 2991TIP3    H2 8938   2.370   1.232   3.178 -2.8343  3.8670  0.1888
 2992TIP3   OH2 8939   0.027   4.818   5.588  0.2748  0.1987 -0.2699
 2992TIP3    H1 8940   0.010   4.783   5.676  2.6662  0.8620  0.5305
 2992TIP3    H2 8941   0.116   4.852   5.593 -0.2136  1.9931 -2.4287
 2993TIP3   OH2 8942   2.462   4.266   3.373  0.5720  0.0183  0.0439
 2993TIP3    H1 8943   2.521   4.316   3.316 -0.2165 -0.9553 -1.7414
 2993TIP3    H2 8944   2.393   4.327   3.396 -0.8176 -0.3103 -2.7708
 2994TIP3   OH2 8945   2.283   6.064   4.710 -0.2569  0.1018  0.0245
 2994TIP3    H1 8946   2.332   5.992   4.749  1.8471  0.7803 -1.2152
 2994TIP3    H2 8947   2.260   6.033   4.622 -1.5804  0.0288  0.3707
 2995TIP3   OH2 8948   5.782   0.708   3.588 -0.3486  0.1039 -0.0844
 2995TIP3    H1 8949   5.866   0.750   3.605  0.1718 -0.5520 -0.9300
 2995TIP3    H2 8950   5.721   0.780   3.576  0.1458  0.5933  0.3135
 2996TIP3   OH2 8951   1.442   6.513   2.678 -0.2659 -0.7785  0.4501
 2996TIP3    H1 8952   1.406   6.441   2.627 -1.1411 -0.2484  0.3017
 2996TIP3    H2 8953   1.499   6.471   2.742 -0.7434 -1.6035  0.3415
 2997TIP3   OH2 8954   6.302   5.393   5.509 -0.0871 -0.1976 -0.2542
 2997TIP3    H1 8955   6.262   5.396   5.423 -1.2626 -1.0902  0.2298
 2997TIP3    H2 8956   6.368   5.323   5.502 -1.0086 -1.1115 -0.1274
 2998TIP3   OH2 8957   6.823   6.054   1.620 -0.0461 -0.2676  0.2329
 2998TIP3    H1 8958   6.905   6.024   1.581  0.4664 -1.5017  2.1445
 2998TIP3    H2 8959   6.844   6.069   1.712 -2.2700 -2.0484  1.1293
 2999TIP3   OH2 8960   1.570   1.678   0.567 -0.3173 -0.3978  0.0714
 2999TIP3    H1 8961   1.488   1.629   0.568  0.1007 -1.1222 -0.5782
 2999TIP3    H2 8962   1.637   1.614   0.587 -0.0520  0.5500  2.5471
 3000TIP3   OH2 8963   1.697   5.350   2.720  0.0250 -0.2773 -0.0370
 3000TIP3    H1 8964   1.662   5.296   2.650  0.6194 -0.9369  0.1612
 3000TIP3    H2 8965   1.722   5.288   2.789 -0.4563  0.3519  0.7251
 3001TIP3   OH2 8966   6.448   5.939   3.537  0.1568 -0.8429 -0.4725
 3001TIP3    H1 8967   6.514   5.988   3.489 -0.6229  1.7878  0.9193
 3001TIP3    H2 8968   6.423   5.996   3.610 -0.7064 -3.4547  1.4636
 3002TIP3   OH2 8969   6.085   3.109   3.978  0.2182 -0.3003 -0.6116
 3002TIP3    H1 8970   6.150   3.077   4.040 -0.0841 -0.7412 -0.5238
 3002TIP3    H2 8971   6.136   3.130   3.899  0.3662 -1.3516 -0.8009
 3003TIP3   OH2 8972   2.526   4.809   1.841 -0.2100 -0.2688  0.3717
 3003TIP3    H1 8973   2.569   4.895   1.839  0.3112 -0.4556  1.9144
 3003TIP3    H2 8974   2.598   4.747   1.851 -0.6184 -0.8519 -0.2887
 3004TIP3   OH2 8975   2.033   4.409   4.958 -0.4066 -0.6381  0.2036
 3004TIP3    H1 8976   2.009   4.393   5.049 -1.9444 -0.2051 -0.0988
 3004TIP3    H2 8977   1.949   4.415   4.912  0.2228  1.8638 -0.7737
 3005TIP3   OH2 8978   5.515   5.140   3.148  0.4028 -0.1853  0.3222
 3005TIP3    H1 8979   5.429   5.118   3.114  1.0271 -0.2684 -1.3203
 3005TIP3    H2 8980   5.574   5.075   3.109  1.3848  0.6485  0.3498
 3006TIP3   OH2 8981   2.757   4.637   0.594 -0.2319 -0.2037  0.2287
 3006TIP3    H1 8982   2.796   4.653   0.508  0.5641  0.5710  0.7160
 3006TIP3    H2 8983   2.734   4.544   0.593 -0.2786 -0.1966 -0.8350
 3007TIP3   OH2 8984   7.145   2.110   1.433  0.1252 -0.1693  0.1170
 3007TIP3    H1 8985   7.112   2.156   1.510  0.0906  1.0101 -0.5827
 3007TIP3    H2 8986   7.181   2.179   1.378 -2.4323 -0.5765 -2.2587
 3008TIP3   OH2 8987   5.518   3.662   0.402 -0.5576 -0.3500  0.5019
 3008TIP3    H1 8988   5.602   3.631   0.435 -0.5902  0.5774  1.5191
 3008TIP3    H2 8989   5.530   3.757   0.392 -1.0548 -0.3840 -0.6936
 3009TIP3   OH2 8990   5.819   5.421   5.209  0.1569 -0.1836  0.2213
 3009TIP3    H1 8991   5.748   5.447   5.267  0.3361  1.7063 -0.3613
 3009TIP3    H2 8992   5.808   5.326   5.200 -0.9955 -0.2444  1.8144
 3010TIP3   OH2 8993   3.220   2.100   1.475  0.7119 -0.2026 -0.1485
 3010TIP3    H1 8994   3.201   2.007   1.486  1.1506 -0.3341 -0.5198
 3010TIP3    H2 8995   3.313   2.108   1.494  0.4154  0.3666  1.1693
 3011TIP3   OH2 8996   0.903   4.497   5.109 -0.3970 -0.4267  0.2154
 3011TIP3    H1 8997   0.954   4.534   5.037 -0.2252  0.1363  0.6190
 3011TIP3    H2 8998   0.936   4.408   5.119 -1.1236 -0.8598 -1.0577
 3012TIP3   OH2 8999   3.616   4.254   2.948 -0.2210 -0.1603  0.3002
 3012TIP3    H1 9000   3.667   4.180   2.979  1.9268  0.7167 -0.9083
 3012TIP3    H2 9001   3.545   4.215   2.897  0.3677 -1.4068  0.4081
 3013TIP3   OH2 9002   5.955   1.351   3.301  0.2397 -0.3760 -0.3314
 3013TIP3    H1 9003   5.957   1.447   3.305  0.8226 -0.4079  0.3511
 3013TIP3    H2 9004   5.897   1.325   3.372 -0.8764 -0.5041 -1.2618
 3014TIP3   OH2 9005   0.088   5.893   2.306 -0.1185  0.1254 -0.1729
 3014TIP3    H1 9006  -0.001   5.923   2.326  0.1481  0.2664  0.8980
 3014TIP3    H2 9007   0.144   5.966   2.335  0.4820 -0.9405  1.5304
 3015TIP3   OH2 9008   1.507   1.520   3.676  0.1418  0.2818 -0.2558
 3015TIP3    H1 9009   1.415   1.542   3.669  0.1853  0.7708  0.6235
 3015TIP3    H2 9010   1.519   1.447   3.615 -0.9480 -0.1765  0.0613
 3016TIP3   OH2 9011   6.503   4.202   3.781 -0.2906 -0.2727 -0.1895
 3016TIP3    H1 9012   6.516   4.265   3.853 -1.0304  1.2696 -1.3513
 3016TIP3    H2 9013   6.412   4.216   3.754 -0.1720 -1.1983 -1.1068
 3017TIP3   OH2 9014   2.827   1.037   4.626 -0.2078 -0.3143 -0.7714
 3017TIP3    H1 9015   2.867   0.987   4.697 -0.7660 -1.4868 -1.2687
 3017TIP3    H2 9016   2.790   1.114   4.670  1.3254  0.1010 -0.1142
 3018TIP3   OH2 9017   4.890   3.984   5.473  0.8124 -0.2312 -0.1506
 3018TIP3    H1 9018   4.901   4.061   5.417  0.1079 -0.7867 -1.0856
 3018TIP3    H2 9019   4.954   3.921   5.440  0.5297 -0.4905 -0.2063
 3019TIP3   OH2 9020   1.905   5.664   1.819 -0.4322  0.3143 -0.0118
 3019TIP3    H1 9021   1.835   5.700   1.873 -1.8272 -0.4385 -1.2189
 3019TIP3    H2 9022   1.865   5.655   1.732  1.0890 -0.3947 -0.6711
 3020TIP3   OH2 9023   3.613   3.602   3.649 -0.4539  0.0920 -0.0807
 3020TIP3    H1 9024   3.570   3.642   3.725  1.2043  0.9036  0.4913
 3020TIP3    H2 9025   3.570   3.642   3.573 -0.2117  1.4694  0.4705
 3021TIP3   OH2 9026   1.655   5.109   3.665  0.3354 -0.2244  0.1152
 3021TIP3    H1 9027   1.597   5.046   3.623 -1.8821  0.9625  1.2535
 3021TIP3    H2 9028   1.691   5.161   3.592  1.5636 -2.1719 -0.7568
 3022TIP3   OH2 9029   3.586   5.976   1.386 -0.0985  0.1230  0.6750
 3022TIP3    H1 9030   3.543   5.905   1.434 -1.5356  1.2007  1.0471
 3022TIP3    H2 9031   3.541   6.055   1.416  0.6761  1.0728 -0.6015
 3023TIP3   OH2 9032   0.971   1.482   0.078 -0.4194 -0.0653 -0.3034
 3023TIP3    H1 9033   0.947   1.395   0.110  0.7160  0.2186  1.4917
 3023TIP3    H2 9034   1.036   1.467   0.009  0.5734 -0.6540  0.7289
 3024TIP3   OH2 9035   4.990   1.591   4.340 -0.1464 -0.5844  0.2043
 3024TIP3    H1 9036   4.969   1.520   4.280 -0.0784 -1.1911  0.8846
 3024TIP3    H2 9037   4.962   1.670   4.294 -0.2903 -1.0511 -0.5304
 3025TIP3   OH2 9038   2.956   6.308   5.386 -0.1871 -0.6364  0.1690
 3025TIP3    H1 9039   3.026   6.342   5.330  0.6667 -0.3926  1.3341
 3025TIP3    H2 9040   2.974   6.214   5.392 -0.9642 -0.8588 -0.8911
 3026TIP3   OH2 9041   7.015   6.532   1.945  0.1121 -0.4287  0.1211
 3026TIP3    H1 9042   6.948   6.521   2.013 -1.3314 -0.7556 -1.2753
 3026TIP3    H2 9043   7.053   6.445   1.935 -0.1235 -0.5283  0.0775
 3027TIP3   OH2 9044   2.099   6.319   0.552  0.5808  0.0562 -0.1768
 3027TIP3    H1 9045   2.109   6.291   0.643 -1.2033 -0.8879 -0.2339
 3027TIP3    H2 9046   2.126   6.411   0.553  1.5844 -0.2131  1.0807
 3028TIP3   OH2 9047   6.635   2.678   4.053  0.2285  0.1653 -0.4186
 3028TIP3    H1 9048   6.566   2.648   4.111 -0.4622  0.9811 -0.7884
 3028TIP3    H2 9049   6.622   2.773   4.047  2.4763  0.6516  0.9302
 3029TIP3   OH2 9050   0.203   3.129   2.712  0.1640  0.2250 -0.7782
 3029TIP3    H1 9051   0.184   3.036   2.712 -1.7748  0.5383 -2.1538
 3029TIP3    H2 9052   0.230   3.148   2.622  0.0668  1.0605 -0.6459
 3030TIP3   OH2 9053   5.817   4.094   0.299  0.1397 -0.0885 -0.2998
 3030TIP3    H1 9054   5.904   4.055   0.291 -0.3224 -1.1697 -0.1616
 3030TIP3    H2 9055   5.828   4.163   0.365  0.7182 -0.7361  0.2931
 3031TIP3   OH2 9056   7.128   5.088   4.233 -0.2126  0.4042 -0.2156
 3031TIP3    H1 9057   7.217   5.055   4.231 -0.5119 -0.9138  2.9613
 3031TIP3    H2 9058   7.118   5.128   4.319 -2.6243  0.7535 -0.5687
 3032TIP3   OH2 9059   5.127   3.846   4.782  0.3011  0.6991  0.2727
 3032TIP3    H1 9060   5.149   3.937   4.799  2.2187  0.4718 -0.7103
 3032TIP3    H2 9061   5.201   3.796   4.816  1.1865 -0.1750 -2.6010
 3033TIP3   OH2 9062   3.982   0.980   5.580  0.2867 -0.1321 -0.3426
 3033TIP3    H1 9063   4.076   0.988   5.599  0.1074  0.7599  0.2017
 3033TIP3    H2 9064   3.954   1.069   5.559 -0.6426 -0.2311  0.4483
 3034TIP3   OH2 9065   5.947   5.089   2.025 -0.6779 -0.0654 -0.0714
 3034TIP3    H1 9066   6.024   5.106   1.971  0.3960  0.9688  1.6903
 3034TIP3    H2 9067   5.887   5.162   2.005 -0.0621  0.6091  0.5162
 3035TIP3   OH2 9068   3.033   0.654   4.474 -0.3339 -0.2576  0.1369
 3035TIP3    H1 9069   3.016   0.683   4.384 -2.5825 -1.7421 -0.0107
 3035TIP3    H2 9070   3.030   0.559   4.470 -0.0481 -0.3674  1.7234
 3036TIP3   OH2 9071   1.512   0.299   1.476  0.3914 -0.1394  0.5079
 3036TIP3    H1 9072   1.470   0.297   1.562 -0.1488 -0.9947  0.2299
 3036TIP3    H2 9073   1.603   0.273   1.494 -0.0973 -1.8944  0.6288
 3037TIP3   OH2 9074   6.936   1.386   4.801 -0.1837 -0.3572 -0.4749
 3037TIP3    H1 9075   6.858   1.350   4.758  0.7441 -2.0432 -0.8681
 3037TIP3    H2 9076   6.919   1.479   4.808 -1.9887 -0.5981 -1.0748
 3038TIP3   OH2 9077   6.821   0.222   5.142 -0.4401  0.0173  1.1718
 3038TIP3    H1 9078   6.736   0.206   5.184 -0.7904 -0.7836  0.1902
 3038TIP3    H2 9079   6.824   0.316   5.126 -1.9622 -0.1771 -0.4670
 3039TIP3   OH2 9080   6.641   4.015   2.420  0.3801 -0.2321 -0.3408
 3039TIP3    H1 9081   6.711   4.073   2.452  1.4602 -1.5074 -0.3444
 3039TIP3    H2 9082   6.658   4.006   2.327 -1.3579  1.5346 -0.8932
 3040TIP3   OH2 9083   3.321   3.815   1.011  0.0767  0.1453  0.3966
 3040TIP3    H1 9084   3.313   3.861   0.928  0.5602  0.8605  0.7357
 3040TIP3    H2 9085   3.234   3.779   1.028  0.2820 -1.1891 -1.0795
 3041TIP3   OH2 9086   4.631   6.316   1.618  0.0172  0.4831 -0.2181
 3041TIP3    H1 9087   4.551   6.287   1.573  0.0304  0.0475  0.0339
 3041TIP3    H2 9088   4.600   6.365   1.693 -0.0182  0.1326 -0.0016
 3042TIP3   OH2 9089   1.723   5.719   4.694 -0.2558  0.6554 -0.2794
 3042TIP3    H1 9090   1.699   5.634   4.730  0.8043  0.0555 -0.9335
 3042TIP3    H2 9091   1.818   5.722   4.701 -0.2473  1.6152 -0.6334
 3043TIP3   OH2 9092   6.219   6.296   3.453 -0.1709 -0.2138  0.0840
 3043TIP3    H1 9093   6.191   6.340   3.534  1.4710  0.5898  0.2545
 3043TIP3    H2 9094   6.210   6.363   3.385 -2.5739 -1.2021 -0.6588
 3044TIP3   OH2 9095   0.025   5.927   4.395 -0.3427 -0.7658  0.1359
 3044TIP3    H1 9096   0.113   5.948   4.366  0.0769  1.2915  2.5034
 3044TIP3    H2 9097   0.013   5.835   4.372  2.9726 -1.5299  0.9102
 3045TIP3   OH2 9098   3.990   2.139   3.847  0.4335 -0.0484 -0.4859
 3045TIP3    H1 9099   3.916   2.198   3.836  0.1828 -0.2577  0.0658
 3045TIP3    H2 9100   4.008   2.107   3.758  0.4036  0.6467 -0.7478
 3046TIP3   OH2 9101   3.031   0.851   4.242  0.0352  0.2645 -0.0883
 3046TIP3    H1 9102   3.034   0.928   4.185  0.3651  0.4571  0.1898
 3046TIP3    H2 9103   2.991   0.783   4.187  1.7608 -0.0031 -1.0971
 3047TIP3   OH2 9104   5.101   3.370   3.423 -0.3904  0.0115  0.0958
 3047TIP3    H1 9105   5.160   3.432   3.380 -0.9279  0.5409  0.1184
 3047TIP3    H2 9106   5.158   3.299   3.451  0.4529  1.1493  1.3435
 3048TIP3   OH2 9107   0.353   0.782   2.245 -0.0244  0.0236  0.3867
 3048TIP3    H1 9108   0.278   0.737   2.206  0.3752 -0.5854  0.3026
 3048TIP3    H2 9109   0.315   0.842   2.308 -0.6262  0.2456 -0.1770
 3049TIP3   OH2 9110   5.697   0.054   0.198  0.5646 -0.1364 -0.4729
 3049TIP3    H1 9111   5.783   0.015   0.184  2.6210  1.4146  5.0488
 3049TIP3    H2 9112   5.706   0.144   0.166  1.3326  0.2333  0.7325
 3050TIP3   OH2 9113   6.280   2.957   0.871  0.3424  0.0758  0.2450
 3050TIP3    H1 9114   6.346   2.889   0.886  0.9142  0.8565  1.4831
 3050TIP3    H2 9115   6.220   2.949   0.946 -1.7271 -1.3928 -1.4508
 3051TIP3   OH2 9116   4.239   6.051   2.458 -0.1652  0.5379  0.1013
 3051TIP3    H1 9117   4.202   6.112   2.522 -1.7160 -0.4125  0.1404
 3051TIP3    H2 9118   4.201   5.966   2.479  0.7624 -0.1729 -0.9183
 3052TIP3   OH2 9119   0.288   5.527   3.834  0.4112 -0.3953  0.0293
 3052TIP3    H1 9120   0.348   5.592   3.871  2.6121 -2.5595  0.5368
 3052TIP3    H2 9121   0.308   5.527   3.741  0.2893 -0.2187  0.0034
 3053TIP3   OH2 9122   0.832   5.496   4.020  0.0777  0.2812 -0.0117
 3053TIP3    H1 9123   0.762   5.435   4.044  1.5368 -1.4778  0.0050
 3053TIP3    H2 9124   0.880   5.512   4.101  0.7343  0.0493 -0.3433
 3054TIP3   OH2 9125   1.378   6.407   3.914 -0.3781 -0.2538 -0.3534
 3054TIP3    H1 9126   1.427   6.348   3.856  0.6129  0.9432 -0.7841
 3054TIP3    H2 9127   1.355   6.481   3.859 -1.8600 -0.3479  0.1085
 3055TIP3   OH2 9128   2.211   3.827   0.592  0.3468 -0.5856 -0.1552
 3055TIP3    H1 9129   2.284   3.853   0.648  0.7485 -1.2301 -0.3661
 3055TIP3    H2 9130   2.160   3.766   0.646 -0.1620  0.0180  0.0653
 3056TIP3   OH2 9131   4.085   2.370   0.665 -0.3606  0.4558  0.6298
 3056TIP3    H1 9132   4.037   2.427   0.725  1.5612  1.9516  0.8604
 3056TIP3    H2 9133   4.038   2.376   0.582 -2.3246 -0.6336  1.6091
 3057TIP3   OH2 9134   1.746   5.882   0.925 -0.4810 -0.0474 -0.4309
 3057TIP3    H1 9135   1.734   5.801   0.875 -0.2887 -0.3721  0.0396
 3057TIP3    H2 9136   1.823   5.865   0.980 -2.3625 -0.8191  2.1395
 3058TIP3   OH2 9137   0.354   2.632   3.719  0.3181 -0.1182 -0.2860
 3058TIP3    H1 9138   0.312   2.702   3.669  1.4519  0.3656 -0.5910
 3058TIP3    H2 9139   0.448   2.646   3.705  0.6707 -0.1597  1.7075
 3059TIP3   OH2 9140   6.398   5.711   3.705  0.4169  0.0750  0.5086
 3059TIP3    H1 9141   6.377   5.719   3.798  2.2017 -1.3665  1.0779
 3059TIP3    H2 9142   6.490   5.736   3.699  0.6010 -0.8334 -0.7140
 3060TIP3   OH2 9143   1.354   1.555   4.351 -0.5392  0.1030 -0.9478
 3060TIP3    H1 9144   1.260   1.554   4.370 -0.1281  0.8838  1.5339
 3060TIP3    H2 9145   1.361   1.601   4.268 -2.3375  0.1075 -1.1411
 3061TIP3   OH2 9146   5.669   2.929   1.509 -0.4157  0.2565  0.1470
 3061TIP3    H1 9147   5.673   2.931   1.414 -0.4074 -1.8019  0.0719
 3061TIP3    H2 9148   5.668   2.836   1.532 -0.1127  0.6968  2.1745
 3062TIP3   OH2 9149   6.763   3.375   2.301 -0.7617  0.6795 -0.7459
 3062TIP3    H1 9150   6.762   3.399   2.209  0.5028 -0.5951 -1.1271
 3062TIP3    H2 9151   6.730   3.285   2.303 -0.7927  0.6950  0.0460
 3063TIP3   OH2 9152   2.990   2.063   2.516 -0.2527 -0.1757 -0.1948
 3063TIP3    H1 9153   3.085   2.057   2.508 -0.0636  0.4129  1.4080
 3063TIP3    H2 9154   2.964   2.126   2.449  0.7778  1.5078  0.9228
 3064TIP3   OH2 9155   5.894   2.402   4.946 -0.1382 -0.0898 -0.2943
 3064TIP3    H1 9156   5.837   2.330   4.974 -0.4859  0.1633 -0.3477
 3064TIP3    H2 9157   5.834   2.474   4.925 -0.0290 -0.7590 -3.2899
 3065TIP3   OH2 9158   6.138   6.245   3.177  0.0904 -0.4090 -0.1442
 3065TIP3    H1 9159   6.124   6.340   3.172  0.6774 -0.1087  2.2870
 3065TIP3    H2 9160   6.160   6.230   3.269  1.5910 -2.6967 -0.8037
 3066TIP3   OH2 9161   3.897   3.971   4.449  0.0312 -0.4552 -0.4735
 3066TIP3    H1 9162   3.851   3.890   4.469 -0.1523 -0.2222  0.0930
 3066TIP3    H2 9163   3.897   3.977   4.354 -1.4257 -0.3015 -0.4874
 3067TIP3   OH2 9164   6.339   4.513   3.010  0.8071 -0.1610 -0.1692
 3067TIP3    H1 9165   6.406   4.496   2.944  0.1031  0.9293 -1.2103
 3067TIP3    H2 9166   6.355   4.604   3.037 -0.7144  0.3970 -1.0342
 3068TIP3   OH2 9167   4.011   4.193   5.560  0.0938  0.0194 -0.3464
 3068TIP3    H1 9168   4.096   4.167   5.525  0.5958 -1.0291  1.5428
 3068TIP3    H2 9169   3.948   4.142   5.510  0.8407 -2.0106  0.6764
 3069TIP3   OH2 9170   6.143   4.213   2.896 -0.0267 -0.1289 -0.0049
 3069TIP3    H1 9171   6.147   4.182   2.806  0.9478  2.3780 -0.9140
 3069TIP3    H2 9172   6.094   4.295   2.891  0.7521  0.4772  1.6036
 3070TIP3   OH2 9173   6.501   2.494   4.237 -0.5712 -0.3477 -0.4917
 3070TIP3    H1 9174   6.525   2.402   4.228 -1.5089 -0.5960 -0.5212
 3070TIP3    H2 9175   6.548   2.523   4.315 -1.7492 -1.3663  0.6321
 3071TIP3   OH2 9176   1.121   0.542   0.288  0.1946 -0.0798  0.0939
 3071TIP3    H1 9177   1.215   0.558   0.283  0.2771 -0.5409  0.1688
 3071TIP3    H2 9178   1.084   0.626   0.315  0.5630  0.1580 -0.1423
 3072TIP3   OH2 9179   3.427   5.730   4.161 -0.4209  0.1064 -0.1758
 3072TIP3    H1 9180   3.399   5.639   4.169  0.0109 -0.1204 -1.1133
 3072TIP3    H2 9181   3.373   5.777   4.225 -1.8318 -0.5389 -0.8459
 3073TIP3   OH2 9182   4.075   1.347   2.139 -0.1747  0.0972 -0.6251
 3073TIP3    H1 9183   4.157   1.371   2.183 -0.7522 -1.1048  1.2053
 3073TIP3    H2 9184   4.101   1.327   2.049  1.3147  0.9974 -0.4392
 3074TIP3   OH2 9185   3.509   6.627   5.891  0.3035 -0.1091 -0.5858
 3074TIP3    H1 9186   3.520   6.722   5.881 -0.8945  0.1435  0.2331
 3074TIP3    H2 9187   3.418   6.611   5.863 -0.0370 -0.7644  0.8228
 3075TIP3   OH2 9188   6.769   0.530   3.560  0.8042  0.4262  0.2140
 3075TIP3    H1 9189   6.699   0.464   3.563  0.8725  0.0419 -2.9864
 3075TIP3    H2 9190   6.724   0.613   3.576  0.3178 -0.1048  1.8956
 3076TIP3   OH2 9191   5.232   1.131   4.962  0.1175 -0.2153 -0.3005
 3076TIP3    H1 9192   5.195   1.077   5.032 -1.3101  0.2097 -0.7029
 3076TIP3    H2 9193   5.303   1.078   4.926  0.3462 -0.7783  0.9282
 3077TIP3   OH2 9194   1.552   0.236   4.135  0.2783  0.4314  0.0613
 3077TIP3    H1 9195   1.643   0.266   4.132  0.9657 -1.3847  0.8897
 3077TIP3    H2 9196   1.511   0.289   4.203  1.0717  0.4553  0.5359
 3078TIP3   OH2 9197   2.183   1.237   4.467 -0.1805 -0.2284  0.0322
 3078TIP3    H1 9198   2.244   1.257   4.539  0.6818 -0.7445 -0.5393
 3078TIP3    H2 9199   2.238   1.234   4.389 -1.1197  0.3509 -0.6646
 3079TIP3   OH2 9200   6.861   5.599   1.728  0.1186 -0.5246 -0.0203
 3079TIP3    H1 9201   6.829   5.621   1.816  1.7192  0.7062  0.2988
 3079TIP3    H2 9202   6.787   5.557   1.685 -1.5225  1.1250  1.0706
 3080TIP3   OH2 9203   4.297   0.390   5.836 -0.0168  0.0668  0.2683
 3080TIP3    H1 9204   4.256   0.470   5.869  0.1821 -0.7878  2.7627
 3080TIP3    H2 9205   4.362   0.422   5.773  1.1570  2.0557  2.3311
 3081TIP3   OH2 9206   1.241   1.173   3.325  0.4814 -0.3034  0.0786
 3081TIP3    H1 9207   1.238   1.267   3.308 -1.3928 -0.2320  0.6272
 3081TIP3    H2 9208   1.281   1.165   3.411  3.0728 -0.2149 -1.0360
 3082TIP3   OH2 9209   4.532   4.660   0.934 -0.1615 -0.2398 -0.2773
 3082TIP3    H1 9210   4.492   4.737   0.975 -1.2130 -0.6724 -0.4647
 3082TIP3    H2 9211   4.472   4.588   0.954  1.5735 -1.3512  1.2334
 3083TIP3   OH2 9212   4.372   1.750   3.464 -0.5493  0.5552 -0.4549
 3083TIP3    H1 9213   4.427   1.768   3.388 -2.9472  0.7853 -2.2579
 3083TIP3    H2 9214   4.381   1.655   3.477  0.9775  0.7237 -0.0742
 3084TIP3   OH2 9215   4.292   3.546   0.526  0.0879 -0.6078 -0.1660
 3084TIP3    H1 9216   4.284   3.592   0.442  3.0607 -0.3012 -0.4049
 3084TIP3    H2 9217   4.379   3.570   0.558 -0.9714 -0.6895  3.0871
 3085TIP3   OH2 9218   0.584   5.107   3.756  0.0958 -0.4449 -0.2514
 3085TIP3    H1 9219   0.649   5.063   3.702 -0.3141 -1.6999  0.2305
 3085TIP3    H2 9220   0.514   5.132   3.696  1.2022  1.3392 -0.8511
 3086TIP3   OH2 9221   1.111   2.892   0.427  0.4828  0.0185  0.1652
 3086TIP3    H1 9222   1.031   2.840   0.439  1.0384 -0.8300  0.3559
 3086TIP3    H2 9223   1.081   2.979   0.404 -0.4792 -0.6358 -1.1602
 3087TIP3   OH2 9224   3.557   1.824   1.086  0.0050  0.0613 -0.2902
 3087TIP3    H1 9225   3.553   1.740   1.040  0.1109 -0.3403  0.4216
 3087TIP3    H2 9226   3.648   1.851   1.078 -0.4194  1.1183 -2.2569
 3088TIP3   OH2 9227   1.858   2.332   2.520 -0.3461 -0.7904 -0.1477
 3088TIP3    H1 9228   1.768   2.364   2.524  0.0278  0.3096 -0.1664
 3088TIP3    H2 9229   1.856   2.259   2.459 -0.8133  0.6911 -1.9654
 3089TIP3   OH2 9230   1.881   2.283   5.466 -0.1242 -0.2584  0.2751
 3089TIP3    H1 9231   1.836   2.281   5.381 -0.5423 -0.2267  0.4978
 3089TIP3    H2 9232   1.952   2.347   5.453 -0.3176 -0.0938  0.0182
 3090TIP3   OH2 9233   4.856   6.694   3.014 -0.1209  0.6334  0.5956
 3090TIP3    H1 9234   4.857   6.627   2.946  0.3667  1.3877 -0.1661
 3090TIP3    H2 9235   4.892   6.772   2.972  1.5073  0.7563  2.1128
 3091TIP3   OH2 9236   5.069   5.231   3.718 -0.2112 -0.3207  0.1106
 3091TIP3    H1 9237   5.003   5.282   3.671 -0.5514 -2.3964 -1.8041
 3091TIP3    H2 9238   5.021   5.157   3.754  0.9024 -1.4316 -0.6121
 3092TIP3   OH2 9239   2.404   5.968   5.697  0.8986  0.0871  0.1850
 3092TIP3    H1 9240   2.380   5.894   5.752  0.8671  0.4705  0.6989
 3092TIP3    H2 9241   2.456   5.931   5.626  1.7325 -0.2966  0.9795
 3093TIP3   OH2 9242   0.622   3.826   5.370  1.0439 -0.6383 -0.0817
 3093TIP3    H1 9243   0.632   3.743   5.324  0.5794 -0.4929 -0.4501
 3093TIP3    H2 9244   0.528   3.841   5.373  1.1239 -0.1050 -0.0533
 3094TIP3   OH2 9245   5.338   0.736   0.136  1.0800  0.1170 -0.2196
 3094TIP3    H1 9246   5.305   0.687   0.060  0.4062 -0.5762  0.4954
 3094TIP3    H2 9247   5.427   0.704   0.149  0.5028 -1.2980  0.5069
 3095TIP3   OH2 9248   3.374   4.339   4.815 -0.7980  0.0631  0.0529
 3095TIP3    H1 9249   3.361   4.313   4.907 -1.9203 -0.0110 -0.1138
 3095TIP3    H2 9250   3.286   4.337   4.777 -0.5246  1.3313 -0.7075
 3096TIP3   OH2 9251   2.034   0.324   2.790 -0.4134 -0.3815  0.5709
 3096TIP3    H1 9252   2.116   0.323   2.742 -0.5594 -2.2730  0.3048
 3096TIP3    H2 9253   2.049   0.385   2.862  1.3375 -0.9360  0.7056
 3097TIP3   OH2 9254   7.034   4.062   2.658 -0.5318 -0.2910 -0.1112
 3097TIP3    H1 9255   7.034   4.083   2.751 -0.8491  0.8425 -0.3628
 3097TIP3    H2 9256   6.982   3.982   2.652 -2.6831  1.0194  0.3841
 3098TIP3   OH2 9257   7.104   4.855   4.813 -0.5030  0.1480 -0.0308
 3098TIP3    H1 9258   7.148   4.777   4.848  1.3914  1.1301 -0.1022
 3098TIP3    H2 9259   7.151   4.875   4.733  0.5817  2.6575  1.1386
 3099TIP3   OH2 9260   0.902   6.210   2.515 -0.1784  0.8565 -0.0977
 3099TIP3    H1 9261   0.933   6.146   2.452 -0.8987  0.7669 -0.3665
 3099TIP3    H2 9262   0.981   6.248   2.552  0.2478  1.0711 -1.2157
 3100TIP3   OH2 9263   2.383   1.013   1.461  0.4884 -0.2037 -0.6162
 3100TIP3    H1 9264   2.322   1.066   1.409  2.7306  0.9072 -2.2692
 3100TIP3    H2 9265   2.384   0.928   1.417  0.4399 -0.0880 -0.8436
 3101TIP3   OH2 9266   2.316   4.457   0.702 -0.5543 -0.5660  0.4813
 3101TIP3    H1 9267   2.396   4.429   0.746 -0.0793 -1.4470 -0.8577
 3101TIP3    H2 9268   2.326   4.551   0.690  1.2040 -0.8970 -1.3149
 3102TIP3   OH2 9269   5.903   0.015   2.157 -0.3013  0.1459 -0.4182
 3102TIP3    H1 9270   5.842   0.080   2.192 -0.0048  0.3675 -0.3085
 3102TIP3    H2 9271   5.990   0.050   2.179 -0.1136 -1.6986  2.3574
 3103TIP3   OH2 9272   6.953   1.717   4.515  0.4874  0.6080  0.3017
 3103TIP3    H1 9273   7.012   1.642   4.507  1.2518  1.1800  0.4336
 3103TIP3    H2 9274   7.004   1.792   4.483 -0.6944  0.8895 -1.0358
 3104TIP3   OH2 9275   2.012   0.510   2.992 -0.7363  0.3560 -0.1087
 3104TIP3    H1 9276   1.922   0.490   3.019  0.2222 -1.2374  2.2661
 3104TIP3    H2 9277   2.040   0.580   3.051 -0.5838  1.2681 -1.2370
 3105TIP3   OH2 9278   0.341   5.584   1.330  0.1179  0.0554 -0.2059
 3105TIP3    H1 9279   0.374   5.629   1.407  0.5322 -1.4916  0.5599
 3105TIP3    H2 9280   0.269   5.639   1.298  0.6798  1.2873  0.6002
 3106TIP3   OH2 9281   6.810   4.435   2.130 -0.0799 -0.2676  0.3281
 3106TIP3    H1 9282   6.886   4.443   2.189  0.9034 -0.8547 -0.8140
 3106TIP3    H2 9283   6.784   4.526   2.112  0.3859 -0.0581  0.6895
 3107TIP3   OH2 9284   6.242   5.981   0.457 -0.3288  0.0806 -0.3604
 3107TIP3    H1 9285   6.269   5.899   0.498 -0.0418 -0.0541 -0.8195
 3107TIP3    H2 9286   6.228   6.040   0.531  0.8960  0.0586 -0.0864
 3108TIP3   OH2 9287   6.032   3.189   2.414 -0.0062 -0.2071  0.1688
 3108TIP3    H1 9288   6.008   3.281   2.410 -1.3628 -0.5926 -2.4583
 3108TIP3    H2 9289   6.083   3.174   2.334  1.1807 -1.5077  1.1169
 3109TIP3   OH2 9290   6.895   3.861   3.372 -0.2681 -0.3013 -0.0750
 3109TIP3    H1 9291   6.804   3.856   3.344  0.2632 -0.9342 -1.8547
 3109TIP3    H2 9292   6.939   3.908   3.301  0.6036  1.1555  1.3484
 3110TIP3   OH2 9293   1.749   0.415   4.194 -0.4199  0.1567 -0.7962
 3110TIP3    H1 9294   1.723   0.501   4.161  0.3351  0.9516  0.5964
 3110TIP3    H2 9295   1.830   0.396   4.148 -0.7193  0.0562 -1.2956
 3111TIP3   OH2 9296   0.163   6.559   2.849 -0.1190  0.7283  0.2575
 3111TIP3    H1 9297   0.121   6.598   2.773  0.2235 -0.7770 -0.7218
 3111TIP3    H2 9298   0.096   6.563   2.918 -0.9205  0.8002 -0.5123
 3112TIP3   OH2 9299   6.867   1.849   5.426 -0.3613 -0.2118 -0.5917
 3112TIP3    H1 9300   6.953   1.811   5.409 -0.2902 -0.0092 -0.6800
 3112TIP3    H2 9301   6.810   1.773   5.440 -0.2274 -0.3522 -0.8053
 3113TIP3   OH2 9302   2.592   1.627   5.259  0.1837  0.3700  0.0113
 3113TIP3    H1 9303   2.652   1.563   5.299 -0.4685  0.2549  0.8331
 3113TIP3    H2 9304   2.530   1.648   5.329  0.1902  1.6655 -0.3526
 3114TIP3   OH2 9305   6.371   5.235   0.360  0.0184  0.5065  0.8768
 3114TIP3    H1 9306   6.367   5.158   0.303 -2.2054  1.0032  0.2309
 3114TIP3    H2 9307   6.365   5.200   0.449  1.7807 -0.1837  0.7478
 3115TIP3   OH2 9308   5.033   5.205   4.094  0.3346  0.5108 -0.1001
 3115TIP3    H1 9309   5.050   5.127   4.042 -0.5803  1.1055 -1.3387
 3115TIP3    H2 9310   4.959   5.180   4.151  1.1614 -0.0515  0.7558
 3116TIP3   OH2 9311   0.504   4.877   2.431  0.0311  0.1582 -0.3287
 3116TIP3    H1 9312   0.414   4.909   2.430  0.1240  0.4334  0.2028
 3116TIP3    H2 9313   0.542   4.911   2.349 -0.7459 -1.1539 -1.2818
 3117TIP3   OH2 9314   0.753   3.096   5.006  0.3074  0.3513 -0.2880
 3117TIP3    H1 9315   0.823   3.089   5.072  1.1032  1.3842 -0.9926
 3117TIP3    H2 9316   0.707   3.177   5.028 -0.6241 -0.2612  0.1005
 3118TIP3   OH2 9317   6.650   1.376   1.440 -0.1558  0.0766 -0.2228
 3118TIP3    H1 9318   6.665   1.433   1.365 -1.5901  1.7188  0.6467
 3118TIP3    H2 9319   6.717   1.401   1.503  0.7006 -0.9177 -0.6982
 3119TIP3   OH2 9320   2.717   2.875   2.028 -0.5651  0.2909  0.4001
 3119TIP3    H1 9321   2.685   2.949   2.080 -0.4770  1.5693 -1.2570
 3119TIP3    H2 9322   2.644   2.856   1.968  0.7711  1.5971 -1.7487
 3120TIP3   OH2 9323   5.344   3.299   1.640  0.1444 -0.0572 -0.2212
 3120TIP3    H1 9324   5.251   3.323   1.635  0.4392  0.9038 -1.9224
 3120TIP3    H2 9325   5.390   3.383   1.648  0.9250 -0.4191 -0.8041
 3121TIP3   OH2 9326   4.998   4.069   3.874  0.7203 -0.4976  0.4922
 3121TIP3    H1 9327   4.993   4.055   3.969 -1.8590 -1.0738  0.3456
 3121TIP3    H2 9328   5.033   3.988   3.839 -0.5464 -1.2003  0.8026
 3122TIP3   OH2 9329   4.182   2.684   1.555  0.4817  0.1244  0.4907
 3122TIP3    H1 9330   4.118   2.713   1.490  1.4249  0.8639 -0.1305
 3122TIP3    H2 9331   4.164   2.737   1.632  0.9744  1.0540 -0.0168
 3123TIP3   OH2 9332   7.018   5.053   2.523 -0.2660  0.1848  0.0203
 3123TIP3    H1 9333   6.958   4.989   2.484 -1.5829  1.9187 -0.9215
 3123TIP3    H2 9334   7.085   4.999   2.567 -1.1703 -1.8177 -0.9239
 3124TIP3   OH2 9335   1.827   1.575   1.599 -0.4253  0.7070  0.2865
 3124TIP3    H1 9336   1.814   1.654   1.650 -2.7267 -0.1860  1.2264
 3124TIP3    H2 9337   1.920   1.574   1.579  0.1508  2.2382  2.5706
 3125TIP3   OH2 9338   2.433   5.536   4.259  0.1139 -0.2637 -0.4319
 3125TIP3    H1 9339   2.463   5.479   4.188 -0.3475 -0.7007 -0.2731
 3125TIP3    H2 9340   2.354   5.577   4.225 -0.4309 -0.9070  0.0387
 3126TIP3   OH2 9341   0.102   2.807   2.100 -0.0919 -0.2884 -0.4445
 3126TIP3    H1 9342   0.127   2.898   2.084  0.4987 -0.5823 -1.3005
 3126TIP3    H2 9343   0.025   2.812   2.157 -0.4450  0.7654 -0.9923
 3127TIP3   OH2 9344   3.897   1.944   2.556 -0.1837 -0.1468 -0.3491
 3127TIP3    H1 9345   3.953   2.022   2.550 -1.4505  0.9478  1.0993
 3127TIP3    H2 9346   3.828   1.959   2.491 -1.1755  0.6516  0.8295
 3128TIP3   OH2 9347   4.148   1.853   0.233 -0.0911  0.3156 -0.5317
 3128TIP3    H1 9348   4.219   1.798   0.267 -0.3134 -0.1605 -0.8140
 3128TIP3    H2 9349   4.070   1.797   0.238 -0.0644  0.0856 -2.1554
 3129TIP3   OH2 9350   1.450   2.069   5.066  0.1440  0.2671 -0.5278
 3129TIP3    H1 9351   1.406   1.985   5.051 -0.2295  0.3937 -0.1656
 3129TIP3    H2 9352   1.478   2.097   4.979 -0.4809  0.1683 -0.7705
 3130TIP3   OH2 9353   0.956   0.374   2.474  0.1953 -0.2489 -0.1706
 3130TIP3    H1 9354   0.975   0.413   2.389 -0.1493 -0.6265 -0.4253
 3130TIP3    H2 9355   0.866   0.402   2.493  0.5765  0.5744  0.4862
 3131TIP3   OH2 9356   0.870   1.952   3.882  0.0280  0.2651 -0.0138
 3131TIP3    H1 9357   0.839   1.918   3.966 -1.2767  0.6908 -0.3033
 3131TIP3    H2 9358   0.829   2.038   3.874  0.8631  0.6156 -0.6825
 3132TIP3   OH2 9359   3.537   6.270   5.284 -0.3543 -0.4074 -0.2173
 3132TIP3    H1 9360   3.482   6.228   5.218  0.3254 -0.6360 -0.6490
 3132TIP3    H2 9361   3.510   6.230   5.367 -0.6915 -0.6680 -0.4493
 3133TIP3   OH2 9362   6.876   0.221   5.472 -0.2998  0.3105  0.1790
 3133TIP3    H1 9363   6.895   0.312   5.449  1.3640  0.3874  1.6705
 3133TIP3    H2 9364   6.945   0.170   5.428  0.1422  0.0245  1.1675
 3134TIP3   OH2 9365   0.661   3.976   3.912 -0.1311 -0.3403 -0.3880
 3134TIP3    H1 9366   0.658   4.052   3.970 -0.0450  0.3355 -1.2433
 3134TIP3    H2 9367   0.580   3.928   3.931  0.2693 -0.5571  0.8286
 3135TIP3   OH2 9368   3.678   6.027   0.920 -0.3417  0.2111  0.1837
 3135TIP3    H1 9369   3.654   5.995   1.008 -0.6821  0.7434  0.2909
 3135TIP3    H2 9370   3.722   5.953   0.879 -1.2372 -0.4558  0.3758
 3136TIP3   OH2 9371   0.053   2.489   1.863 -0.5803 -0.5263  0.3230
 3136TIP3    H1 9372   0.098   2.409   1.888  1.6071  1.1919  2.2543
 3136TIP3    H2 9373   0.068   2.496   1.768  0.0561 -1.8370  0.2988
 3137TIP3   OH2 9374   0.246   6.725   1.780 -0.1672 -0.2025 -0.3132
 3137TIP3    H1 9375   0.294   6.663   1.834 -1.5018 -0.0426  1.1344
 3137TIP3    H2 9376   0.154   6.705   1.796 -0.6541  2.1789  0.2673
 3138TIP3   OH2 9377   1.179   0.145   2.808  0.3367 -0.7120 -0.6178
 3138TIP3    H1 9378   1.146   0.056   2.798  0.1824 -0.7632  0.3140
 3138TIP3    H2 9379   1.167   0.165   2.901 -1.7784  1.1405 -1.2156
 3139TIP3   OH2 9380   5.488   4.233   0.323  0.5835  0.2315 -0.0697
 3139TIP3    H1 9381   5.568   4.239   0.375  1.3974 -0.8253 -1.1223
 3139TIP3    H2 9382   5.417   4.250   0.384  1.6600  2.5371  0.6260
 3140TIP3   OH2 9383   5.972   2.692   5.670  0.1101  0.0917  0.8417
 3140TIP3    H1 9384   6.062   2.667   5.650  0.0163 -1.0163  1.6723
 3140TIP3    H2 9385   5.945   2.630   5.739 -1.6740 -0.4009 -0.2233
 3141TIP3   OH2 9386   4.331   6.481   2.244  0.0173  0.5614 -0.0909
 3141TIP3    H1 9387   4.298   6.549   2.303 -0.3886  1.5350 -1.3808
 3141TIP3    H2 9388   4.353   6.528   2.163 -1.1234 -0.9534 -1.3419
 3142TIP3   OH2 9389   4.088   4.137   4.570 -0.1183 -0.6416 -0.1234
 3142TIP3    H1 9390   4.015   4.077   4.559 -1.6327  0.5916  2.3227
 3142TIP3    H2 9391   4.072   4.180   4.654  3.0651  0.2212  0.1794
 3143TIP3   OH2 9392   2.941   4.277   5.750 -0.3011  0.2747  0.5833
 3143TIP3    H1 9393   2.964   4.226   5.672  0.8646  1.0593  0.3859
 3143TIP3    H2 9394   2.971   4.223   5.824  1.1652  0.7501  0.3665
 3144TIP3   OH2 9395   7.191   2.375   0.008  0.3862  0.3346 -0.5132
 3144TIP3    H1 9396   7.231   2.292   0.035  0.9762  0.8239  0.1681
 3144TIP3    H2 9397   7.148   2.407   0.087  0.0969  0.6417 -0.7949
 3145TIP3   OH2 9398   0.772   1.014   2.812  0.0094  0.0501 -0.4136
 3145TIP3    H1 9399   0.731   1.012   2.726 -1.0420 -1.9190  0.0810
 3145TIP3    H2 9400   0.742   1.096   2.852 -3.3238 -1.1786 -0.1621
 3146TIP3   OH2 9401   1.827   6.058   5.811 -0.2190  0.0481 -0.5699
 3146TIP3    H1 9402   1.897   6.027   5.870 -1.5908 -1.2793  0.4528
 3146TIP3    H2 9403   1.768   6.107   5.869 -0.7648  0.0988 -1.1666
 3147TIP3   OH2 9404   2.430   0.720   4.335  0.1934  0.4749 -0.6696
 3147TIP3    H1 9405   2.391   0.792   4.385  0.0516 -0.9834  1.4716
 3147TIP3    H2 9406   2.358   0.659   4.321  0.9567 -0.7645  0.5262
 3148TIP3   OH2 9407   1.445   6.631   4.675  0.3261 -0.6526 -0.3828
 3148TIP3    H1 9408   1.454   6.724   4.655 -1.2176 -0.0305  1.5106
 3148TIP3    H2 9409   1.410   6.593   4.594 -2.4550  1.1315 -0.1852
 3149TIP3   OH2 9410   4.193   6.522   2.823 -0.4573  0.0708 -0.2025
 3149TIP3    H1 9411   4.268   6.576   2.801 -0.0974  1.2419  3.3051
 3149TIP3    H2 9412   4.219   6.474   2.902 -1.8711 -2.9564 -1.3931
 3150TIP3   OH2 9413   5.949   1.837   4.576  0.1872 -0.0411  0.0807
 3150TIP3    H1 9414   6.024   1.835   4.635  1.2238  1.8171 -1.0540
 3150TIP3    H2 9415   5.874   1.812   4.631  1.5045 -1.1977  1.4257
 3151TIP3   OH2 9416   0.788   4.495   4.786  0.0639 -0.5653 -0.4049
 3151TIP3    H1 9417   0.813   4.487   4.694  1.6428  0.8156 -0.1498
 3151TIP3    H2 9418   0.847   4.437   4.833  0.9159  0.5455 -0.0615
 3152TIP3   OH2 9419   3.682   5.505   5.677  0.1820 -0.0113  0.5220
 3152TIP3    H1 9420   3.622   5.444   5.720  0.6552  1.1800  3.0965
 3152TIP3    H2 9421   3.768   5.464   5.688  0.4367  0.7892  1.8049
 3153TIP3   OH2 9422   5.647   0.831   4.349 -0.6824  0.2882 -0.2566
 3153TIP3    H1 9423   5.607   0.755   4.307 -1.1584  1.1833 -1.4834
 3153TIP3    H2 9424   5.630   0.903   4.289 -0.3910  1.4108  0.9664
 3154TIP3   OH2 9425   1.714   1.044   2.255 -0.1785 -0.3011 -0.1917
 3154TIP3    H1 9426   1.648   1.092   2.306  0.4622 -0.4979  0.8532
 3154TIP3    H2 9427   1.750   0.981   2.317 -0.0277 -1.1899 -1.1603
 3155TIP3   OH2 9428   1.602   3.743   4.337  0.1039  0.2523 -0.4262
 3155TIP3    H1 9429   1.658   3.707   4.406 -2.5694 -0.5501  1.4924
 3155TIP3    H2 9430   1.560   3.819   4.378 -0.7359  0.4210 -1.5600
 3156TIP3   OH2 9431   0.245   3.824   4.561  0.0484  0.0316 -0.0118
 3156TIP3    H1 9432   0.335   3.809   4.588  0.8167 -1.5005 -2.9196
 3156TIP3    H2 9433   0.202   3.739   4.572 -0.7240  0.4543  0.3025
 3157TIP3   OH2 9434   4.477   3.888   0.413 -0.2140 -0.7551  0.0223
 3157TIP3    H1 9435   4.544   3.823   0.436 -0.2836 -1.4252 -1.5560
 3157TIP3    H2 9436   4.414   3.840   0.360 -0.8134  0.3685 -0.3190
 3158TIP3   OH2 9437   4.576   3.935   2.277 -0.2987 -0.1655  0.0293
 3158TIP3    H1 9438   4.582   3.882   2.197  1.6029 -0.5820  0.4120
 3158TIP3    H2 9439   4.663   3.931   2.315 -1.1831 -0.0481  2.2039
 3159TIP3   OH2 9440   1.600   1.949   0.739 -0.7112 -0.5427  1.3247
 3159TIP3    H1 9441   1.689   1.933   0.770 -0.2216  0.0738  0.3201
 3159TIP3    H2 9442   1.550   1.873   0.769  0.4415 -1.5417  0.8265
 3160TIP3   OH2 9443   3.169   1.817   1.519 -0.1323 -0.4976 -0.1648
 3160TIP3    H1 9444   3.190   1.735   1.476  0.3992 -1.1867  1.3564
 3160TIP3    H2 9445   3.080   1.804   1.553 -0.0144 -0.4607  0.1521
 3161TIP3   OH2 9446   3.609   1.143   2.033  0.1642 -0.2261  0.3619
 3161TIP3    H1 9447   3.556   1.101   1.965 -0.7431  1.2926  0.0701
 3161TIP3    H2 9448   3.699   1.135   2.001 -0.2886  0.9749 -1.3835
 3162TIP3   OH2 9449   5.155   5.609   3.624  0.5890  0.3479 -0.7158
 3162TIP3    H1 9450   5.213   5.539   3.654 -1.4531 -1.9491 -1.7625
 3162TIP3    H2 9451   5.107   5.635   3.703  0.4259 -0.4067 -0.5571
 3163TIP3   OH2 9452   0.934   0.664   3.739  0.4556  0.0861  0.2156
 3163TIP3    H1 9453   1.001   0.596   3.748  0.1651 -0.3045 -0.4631
 3163TIP3    H2 9454   0.959   0.711   3.659 -0.9597 -1.1099 -1.0066
 3164TIP3   OH2 9455   5.782   2.468   1.101 -0.1772 -0.7858  0.3248
 3164TIP3    H1 9456   5.761   2.513   1.183 -0.4214  1.5204 -0.8939
 3164TIP3    H2 9457   5.874   2.446   1.108  0.6620  2.1475  0.1500
 3165TIP3   OH2 9458   6.330   0.090   3.778 -0.2133 -0.1321 -0.2939
 3165TIP3    H1 9459   6.343   0.012   3.830 -1.1801 -0.9036 -1.1756
 3165TIP3    H2 9460   6.308   0.058   3.691 -0.8047  1.1086 -0.6315
 3166TIP3   OH2 9461   2.136   4.607   1.884 -1.1481  0.3453 -0.1202
 3166TIP3    H1 9462   2.196   4.633   1.814 -0.4459 -2.3648 -0.6007
 3166TIP3    H2 9463   2.174   4.647   1.963  0.0064  0.5480 -0.7492
 3167TIP3   OH2 9464   5.728   0.550   3.803 -0.3507  0.9879 -0.3324
 3167TIP3    H1 9465   5.782   0.568   3.880 -0.0559 -1.1054  0.0079
 3167TIP3    H2 9466   5.770   0.600   3.733  1.5816  0.1252  0.1188
 3168TIP3   OH2 9467   4.421   2.351   3.935 -0.2083  0.4391  0.5777
 3168TIP3    H1 9468   4.331   2.354   3.904  0.2243  0.0812 -0.7996
 3168TIP3    H2 9469   4.448   2.443   3.938 -0.7991  0.5878  1.5941
 3169TIP3   OH2 9470   6.648   5.035   0.786  0.0812  0.6954  0.0961
 3169TIP3    H1 9471   6.696   5.033   0.868 -0.1339  1.1052  0.2320
 3169TIP3    H2 9472   6.602   5.119   0.786 -1.6293 -0.2039  0.5309
 3170TIP3   OH2 9473   1.377   0.827   4.726 -0.0433  0.2283  0.1361
 3170TIP3    H1 9474   1.374   0.786   4.640  0.6275 -1.2475  0.7821
 3170TIP3    H2 9475   1.307   0.785   4.775 -1.0003  1.6920  0.0753
 3171TIP3   OH2 9476   3.163   6.205   4.657  0.1407 -0.8059  0.0705
 3171TIP3    H1 9477   3.224   6.269   4.620 -0.4172 -0.1010  0.3547
 3171TIP3    H2 9478   3.087   6.256   4.684 -0.2250 -1.5600  0.5129
 3172TIP3   OH2 9479   0.980   6.743   1.202 -0.2484  0.1720  0.3731
 3172TIP3    H1 9480   0.906   6.726   1.260 -0.7887  1.9755  0.2750
 3172TIP3    H2 9481   1.002   6.835   1.218 -0.3380  0.6981 -2.1796
 3173TIP3   OH2 9482   3.327   3.687   0.543 -0.5597 -0.6821 -0.5048
 3173TIP3    H1 9483   3.378   3.610   0.567 -0.4619 -0.6962 -0.7607
 3173TIP3    H2 9484   3.362   3.714   0.458  0.3006  0.4297  0.1761
 3174TIP3   OH2 9485   5.093   4.991   2.358 -0.7107 -0.1576  0.1469
 3174TIP3    H1 9486   5.019   4.999   2.418 -0.9362 -0.9106 -0.0205
 3174TIP3    H2 9487   5.169   5.012   2.411 -1.1561  2.5780 -0.1240
 3175TIP3   OH2 9488   6.083   6.576   0.229 -0.3051 -0.0891  0.6341
 3175TIP3    H1 9489   6.110   6.524   0.154  0.5017  0.4330  0.5549
 3175TIP3    H2 9490   6.072   6.512   0.300  0.5607 -0.3805  0.5107
 3176TIP3   OH2 9491   1.019   5.768   2.978 -0.5075 -0.4762  0.1504
 3176TIP3    H1 9492   1.001   5.757   2.885 -1.5029  1.0281  0.1345
 3176TIP3    H2 9493   1.060   5.686   3.005  0.0423 -0.8341 -1.6662
 3177TIP3   OH2 9494   5.008   4.350   2.022  0.0481 -0.1417 -0.1033
 3177TIP3    H1 9495   4.994   4.378   1.931 -1.8278 -0.5072  0.0444
 3177TIP3    H2 9496   4.985   4.426   2.075  0.0111 -0.3031  0.1135
 3178TIP3   OH2 9497   2.485   2.727   2.780 -0.5643  0.8203 -0.1950
 3178TIP3    H1 9498   2.525   2.812   2.759  0.0791  0.0888 -2.0748
 3178TIP3    H2 9499   2.551   2.683   2.833 -0.8849  1.4538  0.7592
 3179TIP3   OH2 9500   2.537   4.745   2.868  0.1678  0.6373  0.2761
 3179TIP3    H1 9501   2.579   4.687   2.805 -0.0486  0.8148 -0.0371
 3179TIP3    H2 9502   2.449   4.759   2.832 -0.6393 -0.7791  1.5664
 3180TIP3   OH2 9503   7.133   6.432   5.091  0.3738 -0.3335  0.4692
 3180TIP3    H1 9504   7.055   6.376   5.086  1.7545 -2.4641  1.5271
 3180TIP3    H2 9505   7.159   6.428   5.182  1.6282  0.5125  0.1646
 3181TIP3   OH2 9506   0.290   4.234   0.706 -0.0467  0.1465 -1.2158
 3181TIP3    H1 9507   0.241   4.153   0.696 -0.6879  0.4736 -0.7825
 3181TIP3    H2 9508   0.382   4.206   0.710 -0.3344 -0.7066  0.3373
 3182TIP3   OH2 9509   2.538   0.454   2.562 -0.1016 -0.3229 -0.5248
 3182TIP3    H1 9510   2.477   0.524   2.539  0.9769  0.7074 -0.3424
 3182TIP3    H2 9511   2.516   0.432   2.652 -0.5828 -0.3699 -0.6517
 3183TIP3   OH2 9512   3.266   3.268   0.955 -0.0080  0.0491  0.3869
 3183TIP3    H1 9513   3.185   3.260   0.904 -0.6541 -1.0125  1.5184
 3183TIP3    H2 9514   3.243   3.328   1.026  0.4402  0.3483  0.2817
 3184TIP3   OH2 9515   1.600   5.454   4.746 -0.4976  0.3440 -0.1834
 3184TIP3    H1 9516   1.605   5.369   4.702  0.9676 -0.7802  1.9786
 3184TIP3    H2 9517   1.544   5.438   4.823  2.3784  0.3436  2.0804
 3185TIP3   OH2 9518   2.141   5.099   3.543 -0.1241 -0.5461  0.2368
 3185TIP3    H1 9519   2.135   5.172   3.481  1.4712 -0.4255  0.1886
 3185TIP3    H2 9520   2.171   5.140   3.624 -0.4302 -0.9812  0.5730
 3186TIP3   OH2 9521   0.780   0.813   0.176 -0.2743 -0.2987 -0.1177
 3186TIP3    H1 9522   0.768   0.755   0.102 -2.6392  0.5850 -0.5421
 3186TIP3    H2 9523   0.738   0.768   0.249  1.5950 -0.9374  0.6216
 3187TIP3   OH2 9524   7.210   0.543   0.674  0.1893  0.2147  0.0187
 3187TIP3    H1 9525   7.156   0.622   0.680  0.9911  0.7597  0.2106
 3187TIP3    H2 9526   7.147   0.471   0.679 -0.5526  0.8365 -0.1272
 3188TIP3   OH2 9527   4.623   2.275   3.785  0.3606  0.2639  0.4527
 3188TIP3    H1 9528   4.696   2.260   3.845 -0.1327 -0.4950  0.8690
 3188TIP3    H2 9529   4.549   2.297   3.842  0.7198  3.1497 -0.0340
 3189TIP3   OH2 9530   0.521   6.045   5.539  0.1732 -0.2370  0.0407
 3189TIP3    H1 9531   0.429   6.036   5.513  0.2116 -0.1095 -0.1405
 3189TIP3    H2 9532   0.571   6.032   5.458  0.2143  1.9739 -0.3730
 3190TIP3   OH2 9533   2.942   1.264   0.717  0.0923 -0.1847  0.0631
 3190TIP3    H1 9534   2.913   1.253   0.626 -2.8052  1.3456  0.6819
 3190TIP3    H2 9535   2.974   1.354   0.720  0.8134 -0.4512  0.4147
 3191TIP3   OH2 9536   5.163   1.874   3.449  0.5221  0.3374  0.0337
 3191TIP3    H1 9537   5.092   1.935   3.468  0.9225  1.0742 -0.7436
 3191TIP3    H2 9538   5.122   1.806   3.396  0.0552 -0.1214  0.9641
 3192TIP3   OH2 9539   0.117   4.104   0.999 -0.1061  0.6157 -0.2658
 3192TIP3    H1 9540   0.032   4.144   1.018  0.4084  1.2325  0.8614
 3192TIP3    H2 9541   0.097   4.031   0.940 -1.4291  0.6369  0.1246
 3193TIP3   OH2 9542   1.083   4.618   2.659  0.6965  0.7239 -0.0233
 3193TIP3    H1 9543   1.090   4.646   2.750 -0.5115  0.4395  0.1724
 3193TIP3    H2 9544   0.998   4.574   2.653  0.6293  0.9733 -1.3538
 3194TIP3   OH2 9545   4.743   0.814   4.802  0.0176  0.0510 -0.2399
 3194TIP3    H1 9546   4.796   0.742   4.767  0.5200  0.0313  0.5476
 3194TIP3    H2 9547   4.800   0.856   4.867 -0.7209  0.4067  0.1828
 3195TIP3   OH2 9548   5.284   4.554   1.548 -0.3321  0.0392 -0.1537
 3195TIP3    H1 9549   5.241   4.474   1.521 -1.5522  0.0745  1.5421
 3195TIP3    H2 9550   5.229   4.624   1.514  0.9459  0.2211 -1.9825
 3196TIP3   OH2 9551   5.930   6.075   3.600  0.2455  0.4868 -0.1257
 3196TIP3    H1 9552   6.001   6.031   3.555  0.4694  0.5973  0.1165
 3196TIP3    H2 9553   5.879   6.117   3.531  0.1590  0.0306 -0.3359
 3197TIP3   OH2 9554   2.320   4.504   5.196  0.1352  0.0781  0.3465
 3197TIP3    H1 9555   2.376   4.573   5.159 -1.0665  0.6785 -0.4181
 3197TIP3    H2 9556   2.338   4.428   5.142  0.7309  0.0513  0.5660
 3198TIP3   OH2 9557   0.803   4.146   0.613  0.0801 -0.0430 -0.2406
 3198TIP3    H1 9558   0.881   4.149   0.558 -1.2491 -0.7396 -2.2768
 3198TIP3    H2 9559   0.791   4.053   0.631  0.6569  0.1974  1.5391
 3199TIP3   OH2 9560   5.285   2.660   1.480 -0.7566 -0.0410 -0.5240
 3199TIP3    H1 9561   5.345   2.637   1.410 -0.6001  0.3626 -0.5243
 3199TIP3    H2 9562   5.202   2.619   1.455 -0.7474  0.2373 -1.0288
 3200TIP3   OH2 9563   2.370   1.182   0.934 -0.0880 -0.5192  0.1864
 3200TIP3    H1 9564   2.304   1.147   0.873  0.6654 -1.0230 -0.3601
 3200TIP3    H2 9565   2.421   1.105   0.959  0.6517 -0.0451  0.1548
 3201TIP3   OH2 9566   2.457   6.331   5.048 -0.2718 -0.2752  0.0020
 3201TIP3    H1 9567   2.399   6.260   5.074 -0.8925  0.6793  1.3767
 3201TIP3    H2 9568   2.400   6.408   5.046  0.8690  0.6585  1.1975
 3202TIP3   OH2 9569   6.478   4.784   4.636  0.7929 -0.1914  0.2406
 3202TIP3    H1 9570   6.561   4.808   4.595  0.6589 -0.9278 -0.4821
 3202TIP3    H2 9571   6.438   4.721   4.576 -0.5563  0.5776  0.2959
 3203TIP3   OH2 9572   0.200   5.072   4.298  0.0302 -0.3354 -0.2573
 3203TIP3    H1 9573   0.266   5.097   4.234  1.5720 -0.9863  1.0250
 3203TIP3    H2 9574   0.216   5.130   4.372  0.6143 -1.9299  0.9173
 3204TIP3   OH2 9575   4.285   6.348   2.501 -0.1519  0.2248  0.4933
 3204TIP3    H1 9576   4.218   6.396   2.453  0.1082 -0.0144 -0.1341
 3204TIP3    H2 9577   4.241   6.316   2.580 -0.4828  0.9663  0.6136
 3205TIP3   OH2 9578   1.305   2.736   2.791 -0.2855  0.4203 -0.1357
 3205TIP3    H1 9579   1.228   2.738   2.734  0.4203  0.6126 -1.0932
 3205TIP3    H2 9580   1.364   2.673   2.749  0.4845  0.9991  0.0672
 3206TIP3   OH2 9581   5.953   5.191   4.926  0.4436 -0.0568  0.0557
 3206TIP3    H1 9582   5.881   5.133   4.901 -0.1971  0.8274 -0.1653
 3206TIP3    H2 9583   5.917   5.279   4.920  0.4927  0.2867  3.2339
 3207TIP3   OH2 9584   5.220   2.127   2.884 -0.4331 -0.1124  0.7146
 3207TIP3    H1 9585   5.238   2.129   2.790 -0.5445 -1.3366  0.6518
 3207TIP3    H2 9586   5.267   2.203   2.919  0.4767 -0.2397 -0.1780
 3208TIP3   OH2 9587   5.127   4.397   3.160  0.4328  0.1637 -0.2481
 3208TIP3    H1 9588   5.075   4.323   3.130  0.3360  0.0792  0.1360
 3208TIP3    H2 9589   5.200   4.401   3.097  0.1293  0.1044 -0.6100
 3209TIP3   OH2 9590   5.050   4.155   0.899  0.7206 -0.0851 -0.1524
 3209TIP3    H1 9591   5.032   4.090   0.831  2.4730 -1.3826  0.5539
 3209TIP3    H2 9592   5.076   4.103   0.975  0.8538  1.4105  0.8576
 3210TIP3   OH2 9593   0.000   1.474   4.174  0.1350 -0.2841 -0.2634
 3210TIP3    H1 9594   0.052   1.394   4.163  0.6934 -0.1166  0.9678
 3210TIP3    H2 9595   0.056   1.543   4.139  0.8122 -0.0978  1.1021
 3211TIP3   OH2 9596   0.476   6.240   4.373 -0.3049 -1.0061 -0.8430
 3211TIP3    H1 9597   0.489   6.334   4.382 -1.5169 -0.9344  0.5553
 3211TIP3    H2 9598   0.441   6.229   4.285  0.8070 -0.2961 -1.4091
 3212TIP3   OH2 9599   4.696   3.274   1.337 -0.4553  0.7020  0.1535
 3212TIP3    H1 9600   4.725   3.352   1.384 -1.4620  0.8901  0.4892
 3212TIP3    H2 9601   4.671   3.306   1.250  0.1122  0.5766 -0.0601
 3213TIP3   OH2 9602   4.402   6.689   1.531  0.5875  0.5001 -0.1646
 3213TIP3    H1 9603   4.358   6.690   1.446  0.1427 -1.1382  0.0187
 3213TIP3    H2 9604   4.435   6.599   1.540 -0.0429  0.4257  1.7227
 3214TIP3   OH2 9605   6.950   4.557   3.322  0.6143 -0.4593 -0.3309
 3214TIP3    H1 9606   6.931   4.642   3.361  0.7002 -0.7995  0.4683
 3214TIP3    H2 9607   6.863   4.521   3.301  0.4230 -1.2178  1.6086
 3215TIP3   OH2 9608   3.376   6.635   5.015 -0.0571 -0.2326  0.3139
 3215TIP3    H1 9609   3.312   6.706   5.005  1.6988  1.4992  0.7923
 3215TIP3    H2 9610   3.338   6.561   4.967 -2.6284  0.5369  1.0019
 3216TIP3   OH2 9611   2.047   5.933   2.920  0.4303  0.2855 -0.1094
 3216TIP3    H1 9612   2.116   5.928   2.986  1.5604  1.7366 -1.1120
 3216TIP3    H2 9613   2.054   6.021   2.885 -0.3202 -0.3393 -1.9623
 3217TIP3   OH2 9614   5.725   6.322   5.221  0.0122  0.5231 -0.2097
 3217TIP3    H1 9615   5.662   6.312   5.149 -0.9590  0.3928  0.6238
 3217TIP3    H2 9616   5.757   6.233   5.237 -1.9838  0.0118  1.4029
 3218TIP3   OH2 9617   3.765   3.116   4.709  0.0990  0.3409  0.2161
 3218TIP3    H1 9618   3.744   3.033   4.752  1.6030 -0.4339 -0.4862
 3218TIP3    H2 9619   3.724   3.182   4.764 -3.0155 -0.9428 -0.3669
 3219TIP3   OH2 9620   2.044   2.065   1.928 -0.1475 -0.4976  0.0188
 3219TIP3    H1 9621   2.006   2.040   2.012 -3.0304 -1.0852 -1.3174
 3219TIP3    H2 9622   2.063   1.981   1.885  1.4972 -0.2026  0.1341
 3220TIP3   OH2 9623   2.340   1.492   1.908  0.8923 -0.1480  0.1724
 3220TIP3    H1 9624   2.255   1.524   1.881  0.6217 -1.3082 -0.4195
 3220TIP3    H2 9625   2.340   1.501   2.004  0.9356  1.7658  0.0314
 3221TIP3   OH2 9626   1.273   3.110   5.054  0.6515  0.2699 -0.4684
 3221TIP3    H1 9627   1.235   3.189   5.017  1.1094  1.7541  1.9875
 3221TIP3    H2 9628   1.360   3.137   5.083  0.5391 -0.8896  1.0825
 3222TIP3   OH2 9629   6.772   3.974   1.538 -0.2007 -0.1248  0.7298
 3222TIP3    H1 9630   6.745   3.982   1.629 -0.0086  0.6098  0.7351
 3222TIP3    H2 9631   6.852   3.923   1.541  0.0695  0.3061  1.0312
 3223TIP3   OH2 9632   1.345   3.118   4.472  0.1726  0.7916 -0.3364
 3223TIP3    H1 9633   1.252   3.098   4.462  0.1599 -0.8018  2.1199
 3223TIP3    H2 9634   1.351   3.212   4.457 -1.6498  0.7687 -1.5217
 3224TIP3   OH2 9635   4.637   3.343   4.289 -0.0622 -0.0693  0.3056
 3224TIP3    H1 9636   4.585   3.323   4.212 -1.8447  2.9091  0.6205
 3224TIP3    H2 9637   4.662   3.257   4.323 -2.3715 -1.5650 -1.4770
 3225TIP3   OH2 9638   6.615   4.531   1.481 -0.2121  0.2768 -0.3861
 3225TIP3    H1 9639   6.634   4.442   1.511  2.0358  0.8792  0.1570
 3225TIP3    H2 9640   6.692   4.557   1.432 -0.6401  2.0947 -0.1706
 3226TIP3   OH2 9641   4.303   2.461   0.559  0.2080  0.1842 -0.3251
 3226TIP3    H1 9642   4.263   2.532   0.507  1.9581  1.5322  0.0507
 3226TIP3    H2 9643   4.229   2.416   0.599 -1.0881  0.4102 -2.3264
 3227TIP3   OH2 9644   3.287   6.292   1.236 -0.2426  0.3380  0.4105
 3227TIP3    H1 9645   3.280   6.197   1.230  1.9639  0.1566 -0.3157
 3227TIP3    H2 9646   3.205   6.325   1.198 -0.3895 -1.2666 -0.7678
 3228TIP3   OH2 9647   3.009   3.371   2.020 -0.2698  0.2323  0.0321
 3228TIP3    H1 9648   2.990   3.291   2.069  2.1739 -0.0883  0.5844
 3228TIP3    H2 9649   3.052   3.340   1.940  2.9907  0.9511  1.3569
 3229TIP3   OH2 9650   0.159   4.751   1.451  0.3749  0.6393  0.1680
 3229TIP3    H1 9651   0.072   4.768   1.487  0.2773  0.7078 -0.0992
 3229TIP3    H2 9652   0.204   4.836   1.455  0.9108  0.3157  1.5902
 3230TIP3   OH2 9653   3.611   5.298   4.951  0.3288 -0.0906  0.1237
 3230TIP3    H1 9654   3.680   5.342   4.900 -0.2640  1.5978  0.7184
 3230TIP3    H2 9655   3.654   5.222   4.989  1.3445 -0.1710 -1.1152
 3231TIP3   OH2 9656   0.408   4.811   3.577 -0.2841 -0.6557  0.1744
 3231TIP3    H1 9657   0.345   4.786   3.509 -0.2921 -0.8717  0.2632
 3231TIP3    H2 9658   0.382   4.901   3.600 -0.3668 -0.6301 -0.0093
 3232TIP3   OH2 9659   3.014   1.244   5.032  0.6639  0.1696  0.7034
 3232TIP3    H1 9660   2.920   1.262   5.038  0.8143  1.2068  0.2387
 3232TIP3    H2 9661   3.021   1.149   5.043 -0.4476  0.0641  0.6468
 3233TIP3   OH2 9662   2.484   6.080   0.454  0.5404  0.1553  0.0565
 3233TIP3    H1 9663   2.503   6.157   0.508  0.1864 -0.1702  0.6546
 3233TIP3    H2 9664   2.560   6.023   0.465 -0.0088 -0.3973  1.0983
 3234TIP3   OH2 9665   5.694   1.819   2.736 -0.1199 -0.2015  0.0365
 3234TIP3    H1 9666   5.660   1.762   2.667  1.5999  0.4826 -1.4558
 3234TIP3    H2 9667   5.638   1.896   2.732 -3.4940 -2.1761  3.1192
 3235TIP3   OH2 9668   1.616   0.406   1.986  0.5835 -0.0163  0.5840
 3235TIP3    H1 9669   1.680   0.455   1.933  1.1655 -0.5484  0.7757
 3235TIP3    H2 9670   1.607   0.323   1.940  0.1280  0.0026  0.6387
 3236TIP3   OH2 9671   6.845   0.428   2.689  0.0242  0.1213  0.6233
 3236TIP3    H1 9672   6.895   0.346   2.693  1.8506  1.1853  0.9439
 3236TIP3    H2 9673   6.788   0.425   2.765  0.1160 -0.8312  0.6679
 3237TIP3   OH2 9674   6.083   2.787   2.864 -0.0688  0.0735 -0.2020
 3237TIP3    H1 9675   6.158   2.769   2.921 -0.1612 -0.5739 -0.2829
 3237TIP3    H2 9676   6.092   2.726   2.792 -0.2885  0.4789 -0.5786
 3238TIP3   OH2 9677   5.999   4.201   1.643 -0.0024  0.0491 -0.0339
 3238TIP3    H1 9678   5.945   4.158   1.577  0.0185  0.7961 -0.5627
 3238TIP3    H2 9679   5.966   4.291   1.645  1.6967  0.7254 -0.9184
 3239TIP3   OH2 9680   0.202   3.725   2.887  0.2368 -0.1768  0.7502
 3239TIP3    H1 9681   0.199   3.789   2.958  1.5175 -0.5587  1.1780
 3239TIP3    H2 9682   0.249   3.650   2.923 -1.6809 -1.6376  0.4461
 3240TIP3   OH2 9683   0.281   4.814   4.367  0.3601  0.3543  0.0884
 3240TIP3    H1 9684   0.224   4.887   4.345  0.4359  0.0679 -1.1272
 3240TIP3    H2 9685   0.369   4.851   4.368  0.3813  0.3190 -0.3589
 3241TIP3   OH2 9686   5.637   5.528   5.400 -0.1017  0.5173 -0.3503
 3241TIP3    H1 9687   5.544   5.535   5.425 -0.2786  0.0224 -0.8547
 3241TIP3    H2 9688   5.684   5.559   5.477 -0.5466 -2.5621  1.3403
 3242TIP3   OH2 9689   0.000   6.645   1.214  0.4672 -0.0239 -0.3864
 3242TIP3    H1 9690   0.050   6.591   1.277  0.0654  0.0699  0.0205
 3242TIP3    H2 9691  -0.035   6.581   1.152 -0.3130 -0.2961  0.3039
 3243TIP3   OH2 9692   6.996   3.774   0.977  0.8943 -0.3785  0.3851
 3243TIP3    H1 9693   6.998   3.732   0.891  1.5382 -0.5756  0.4920
 3243TIP3    H2 9694   6.982   3.867   0.958 -0.0132 -0.5556  0.1249
 3244TIP3   OH2 9695   2.415   1.039   3.375 -0.1417  0.0006 -0.3895
 3244TIP3    H1 9696   2.465   1.115   3.346 -0.6079  0.8548  0.9296
 3244TIP3    H2 9697   2.461   1.008   3.454 -1.0642  0.1447  0.2235
 3245TIP3   OH2 9698   2.837   3.620   5.480 -0.2622 -0.6433  0.4127
 3245TIP3    H1 9699   2.905   3.601   5.545  1.7137  0.4086 -1.2621
 3245TIP3    H2 9700   2.883   3.624   5.397 -2.3934  0.1214 -0.8061
 3246TIP3   OH2 9701   4.966   0.993   0.021  0.6051  0.8195  0.0522
 3246TIP3    H1 9702   4.931   0.967   0.107  0.2486  1.1765  0.0168
 3246TIP3    H2 9703   4.960   1.088   0.021  0.5825  0.8172 -0.3845
 3247TIP3   OH2 9704   6.195   6.358   4.280  0.0912 -0.2155 -0.1586
 3247TIP3    H1 9705   6.140   6.292   4.323  0.3958 -0.5179 -0.2277
 3247TIP3    H2 9706   6.171   6.441   4.323  0.3699 -0.5090  0.5745
 3248TIP3   OH2 9707   2.062   4.965   5.783  0.2490  0.1875  0.0525
 3248TIP3    H1 9708   2.040   4.942   5.874  1.2606  0.2019  0.3135
 3248TIP3    H2 9709   1.978   4.963   5.737 -0.0760 -1.4589  0.6300
 3249TIP3   OH2 9710   1.140   0.705   4.904 -0.4286  0.1971  0.8215
 3249TIP3    H1 9711   1.061   0.725   4.854  0.8451  0.1988 -1.3799
 3249TIP3    H2 9712   1.150   0.610   4.897 -0.5484  0.1226  1.6103
 3250TIP3   OH2 9713   2.425   2.442   3.274 -0.2903  0.0367  0.5848
 3250TIP3    H1 9714   2.484   2.381   3.230 -1.8364 -0.9969 -0.1186
 3250TIP3    H2 9715   2.368   2.475   3.204 -0.1503  1.5151  1.1338
 3251TIP3   OH2 9716   0.602   3.612   5.169  0.3966 -0.9213  0.3343
 3251TIP3    H1 9717   0.601   3.556   5.092 -0.5387 -0.4841  0.0178
 3251TIP3    H2 9718   0.513   3.646   5.176  0.8305  0.2120  0.7419
 3252TIP3   OH2 9719   3.409   5.943   1.831 -0.2445  0.0992  0.4127
 3252TIP3    H1 9720   3.460   5.994   1.768  1.5315 -1.0324  0.8536
 3252TIP3    H2 9721   3.434   5.978   1.916 -2.4167  1.4254  0.5751
 3253TIP3   OH2 9722   3.623   2.069   2.091  0.1988 -0.3552  0.7560
 3253TIP3    H1 9723   3.639   1.975   2.083 -1.0029 -0.5117 -0.0789
 3253TIP3    H2 9724   3.538   2.082   2.049  0.6507  1.2078  0.2738
 3254TIP3   OH2 9725   4.866   3.705   2.738  0.1846  0.0989  0.5086
 3254TIP3    H1 9726   4.889   3.791   2.774 -0.0378  0.5543 -0.4011
 3254TIP3    H2 9727   4.950   3.665   2.716  0.2402  1.1101 -1.3416
 3255TIP3   OH2 9728   0.211   4.408   5.058  0.1370  0.4628  0.3510
 3255TIP3    H1 9729   0.120   4.409   5.087  0.7334  1.0959  2.3857
 3255TIP3    H2 9730   0.251   4.335   5.105  1.1040  1.4232  1.1083
 3256TIP3   OH2 9731   6.460   1.130   3.298  0.5123 -0.1072 -0.0944
 3256TIP3    H1 9732   6.431   1.085   3.377 -0.2826 -0.4164 -0.5425
 3256TIP3    H2 9733   6.483   1.059   3.237  1.0223  0.1245 -0.1762
 3257TIP3   OH2 9734   3.720   3.408   5.883  0.1083 -0.1429  0.3255
 3257TIP3    H1 9735   3.634   3.404   5.925 -0.2585 -0.1759 -0.4194
 3257TIP3    H2 9736   3.705   3.454   5.801  0.9379  0.4842  0.5018
 3258TIP3   OH2 9737   6.743   4.036   3.218 -0.5132  0.2523 -0.0191
 3258TIP3    H1 9738   6.659   4.080   3.234 -0.2123  1.2493 -1.0069
 3258TIP3    H2 9739   6.747   4.028   3.122 -0.1683 -1.1937  0.1043
 3259TIP3   OH2 9740   2.313   2.803   2.238 -0.3327  0.0000  0.0321
 3259TIP3    H1 9741   2.261   2.857   2.297  0.9896 -0.4406  1.6895
 3259TIP3    H2 9742   2.342   2.862   2.169 -1.3594  0.6889  0.1717
 3260TIP3   OH2 9743   1.673   3.565   0.158 -0.1749 -0.2344  0.0981
 3260TIP3    H1 9744   1.660   3.561   0.063 -0.7354  0.8336  0.1113
 3260TIP3    H2 9745   1.662   3.658   0.179  1.2256 -0.2620  1.0338
 3261TIP3   OH2 9746   5.790   0.612   1.618 -0.0921  0.6498 -0.5765
 3261TIP3    H1 9747   5.718   0.626   1.556 -0.5054 -0.4353 -0.3630
 3261TIP3    H2 9748   5.815   0.700   1.645  0.3089  1.1702 -2.4987
 3262TIP3   OH2 9749   2.758   1.290   4.318  0.2281  0.6557  0.1945
 3262TIP3    H1 9750   2.811   1.275   4.396 -0.3050  1.1989  0.6735
 3262TIP3    H2 9751   2.762   1.385   4.305 -2.4288  1.0400  1.5735
 3263TIP3   OH2 9752   2.556   6.736   5.723  0.0719  0.3775  0.1066
 3263TIP3    H1 9753   2.516   6.819   5.697 -0.0689  0.4566  0.5576
 3263TIP3    H2 9754   2.612   6.712   5.649  0.2200  0.9476  0.0283
 3264TIP3   OH2 9755   6.448   0.146   2.270 -0.2969  0.4393 -0.3340
 3264TIP3    H1 9756   6.433   0.177   2.180  0.1836 -0.8149 -0.8698
 3264TIP3    H2 9757   6.516   0.204   2.304  0.1508  0.3779 -1.0958
 3265TIP3   OH2 9758   2.757   2.909   4.803  0.6609 -0.6592 -0.4085
 3265TIP3    H1 9759   2.753   2.957   4.721  0.4372 -0.2694 -0.1763
 3265TIP3    H2 9760   2.667   2.882   4.819  0.5569 -0.0544  0.0959
 3266TIP3   OH2 9761   2.682   1.077   3.747 -0.4241  0.0682  0.6310
 3266TIP3    H1 9762   2.654   1.116   3.829 -1.4547 -0.4089  0.5223
 3266TIP3    H2 9763   2.745   1.009   3.772  1.7513  2.0050  0.7959
 3267TIP3   OH2 9764   3.923   1.161   0.536  0.7091  0.0883  0.0868
 3267TIP3    H1 9765   3.970   1.236   0.499 -0.3921  0.0012 -1.6286
 3267TIP3    H2 9766   3.882   1.196   0.615  1.0618  1.0175 -0.1177
 3268TIP3   OH2 9767   6.138   6.706   0.836 -0.1091  0.5741 -0.3284
 3268TIP3    H1 9768   6.056   6.665   0.864  0.3598  0.9328  1.7424
 3268TIP3    H2 9769   6.202   6.678   0.901  0.9986  1.7565 -0.8722
 3269TIP3   OH2 9770   6.936   4.328   5.335 -0.1761 -0.0610 -0.2764
 3269TIP3    H1 9771   7.000   4.278   5.386 -0.9391 -0.8996 -0.1263
 3269TIP3    H2 9772   6.852   4.289   5.357 -0.6542  0.4409 -1.1729
 3270TIP3   OH2 9773   5.490   3.328   1.131  0.1807 -0.9961  0.0375
 3270TIP3    H1 9774   5.465   3.393   1.065  1.0640 -1.1131 -0.4320
 3270TIP3    H2 9775   5.557   3.371   1.183  0.1361 -1.2245  0.2869
 3271TIP3   OH2 9776   0.828   2.085   1.234  0.2138  0.1478 -0.4811
 3271TIP3    H1 9777   0.784   2.168   1.255  0.8924  0.3626  0.1514
 3271TIP3    H2 9778   0.907   2.111   1.187  0.9338 -0.0533  0.5705
 3272TIP3   OH2 9779   0.402   0.168   4.909  0.9047  0.7466 -0.5257
 3272TIP3    H1 9780   0.483   0.201   4.871  0.6959 -0.8362 -2.4835
 3272TIP3    H2 9781   0.351   0.137   4.834 -0.5465 -0.3913  0.8663
 3273TIP3   OH2 9782   3.130   3.812   3.282  0.0888 -0.1863 -0.6622
 3273TIP3    H1 9783   3.122   3.899   3.322  0.6061 -0.4482  0.0216
 3273TIP3    H2 9784   3.154   3.830   3.191  0.0527  0.3895 -0.5631
 3274TIP3   OH2 9785   0.758   1.043   5.653  0.3114  0.5145 -0.7693
 3274TIP3    H1 9786   0.730   0.979   5.587  0.7775  0.1419 -0.6071
 3274TIP3    H2 9787   0.806   0.992   5.718  0.7223  1.0315 -0.6586
 3275TIP3   OH2 9788   4.890   4.932   0.845 -0.1583  0.0426  0.2472
 3275TIP3    H1 9789   4.860   5.021   0.829 -0.5585  0.0362  0.8931
 3275TIP3    H2 9790   4.983   4.933   0.825 -0.2342  0.5203 -0.0756
 3276TIP3   OH2 9791   1.319   3.169   0.143  0.0143 -0.2124 -0.8199
 3276TIP3    H1 9792   1.247   3.203   0.090  0.9613 -0.3694 -2.2730
 3276TIP3    H2 9793   1.375   3.244   0.160 -0.8659  0.0801  1.0175
 3277TIP3   OH2 9794   1.828   4.981   2.892  0.5272  0.2279 -0.5287
 3277TIP3    H1 9795   1.807   4.907   2.950  0.0208 -0.0729 -1.0877
 3277TIP3    H2 9796   1.867   4.940   2.815 -0.5214  0.4673 -1.1994
 3278TIP3   OH2 9797   2.711   2.490   5.494  0.3637  0.3178  0.5627
 3278TIP3    H1 9798   2.655   2.416   5.516  1.3025 -0.1831  1.3484
 3278TIP3    H2 9799   2.782   2.486   5.558  1.5228  0.6932 -0.6688
 3279TIP3   OH2 9800   3.574   2.147   0.820  0.0670 -0.5609 -0.1388
 3279TIP3    H1 9801   3.492   2.121   0.861 -0.7997  1.3516 -0.5218
 3279TIP3    H2 9802   3.642   2.128   0.885 -1.1040  1.1176  1.6838
 3280TIP3   OH2 9803   5.305   2.854   1.682 -0.9792 -0.0808  0.1615
 3280TIP3    H1 9804   5.313   2.793   1.609 -1.2500  0.1837 -0.0954
 3280TIP3    H2 9805   5.324   2.940   1.644  0.9589 -0.1623  0.8425
 3281TIP3   OH2 9806   0.163   6.302   3.092  0.0009  0.2074  0.4864
 3281TIP3    H1 9807   0.082   6.257   3.070 -0.1111  1.5172 -1.9922
 3281TIP3    H2 9808   0.137   6.391   3.115  0.6716  0.4233  0.4419
 3282TIP3   OH2 9809   7.127   5.001   3.938 -0.0102  0.1463  0.3177
 3282TIP3    H1 9810   7.072   5.069   3.978  1.5315  1.0874  0.8993
 3282TIP3    H2 9811   7.108   4.922   3.989 -2.1494 -0.0476 -0.6388
 3283TIP3   OH2 9812   0.540   6.232   1.909 -0.3620  0.1483 -0.0061
 3283TIP3    H1 9813   0.459   6.246   1.861 -1.2169  0.2530  1.4222
 3283TIP3    H2 9814   0.607   6.275   1.856 -1.0255 -0.9105 -1.7825
 3284TIP3   OH2 9815   0.618   0.489   4.991  0.5162 -0.6268  0.7862
 3284TIP3    H1 9816   0.608   0.501   4.897  0.3233 -0.9162  0.7693
 3284TIP3    H2 9817   0.595   0.574   5.029 -0.0469 -0.6994  0.6172
 3285TIP3   OH2 9818   0.088   3.170   2.312  0.6459 -0.8954 -0.3285
 3285TIP3    H1 9819   0.147   3.225   2.363 -1.2943  0.0597  1.0333
 3285TIP3    H2 9820   0.078   3.091   2.365 -0.4709 -0.3865  0.2616
 3286TIP3   OH2 9821   6.002   6.519   4.800  0.0101 -0.2780  0.4196
 3286TIP3    H1 9822   5.956   6.450   4.753 -0.1376  0.6485 -0.8628
 3286TIP3    H2 9823   5.996   6.494   4.892 -0.0476 -1.9517 -0.0039
 3287TIP3   OH2 9824   4.343   1.736   0.729  0.3059  0.5094 -0.3691
 3287TIP3    H1 9825   4.430   1.702   0.751  0.2429  0.4306 -0.2372
 3287TIP3    H2 9826   4.360   1.817   0.681  0.4388  1.4090  1.1382
 3288TIP3   OH2 9827   2.986   0.364   5.755 -0.3007 -0.7349 -0.1217
 3288TIP3    H1 9828   2.993   0.328   5.666  1.9466 -0.7440  0.0015
 3288TIP3    H2 9829   2.943   0.295   5.805  1.2151 -2.0707 -0.5583
 3289TIP3   OH2 9830   4.561   6.810   3.357 -0.8019 -0.2262  0.1785
 3289TIP3    H1 9831   4.499   6.764   3.300 -1.0078  1.8189 -1.4031
 3289TIP3    H2 9832   4.633   6.749   3.369 -1.6926 -1.4788 -0.6229
 3290TIP3   OH2 9833   6.549   0.227   5.160 -0.0740 -0.2248  0.0647
 3290TIP3    H1 9834   6.495   0.289   5.111  0.1225 -0.7232 -0.8039
 3290TIP3    H2 9835   6.490   0.157   5.185 -0.1173 -0.1000  0.3159
 3291TIP3   OH2 9836   1.567   3.134   3.507 -0.7464  0.5566  0.3409
 3291TIP3    H1 9837   1.636   3.119   3.573 -1.3169  1.3472  1.1433
 3291TIP3    H2 9838   1.487   3.104   3.549 -0.8549 -0.7686 -0.7554
 3292TIP3   OH2 9839   5.037   2.744   4.816 -0.4428 -0.0198  0.2739
 3292TIP3    H1 9840   5.041   2.731   4.911  0.1854 -0.7578  0.1634
 3292TIP3    H2 9841   5.032   2.838   4.804  1.0667  0.1930  1.0264
 3293TIP3   OH2 9842   4.912   1.878   5.743 -0.1393  0.3281  0.0954
 3293TIP3    H1 9843   4.899   1.787   5.718 -0.1327  0.4691 -0.4428
 3293TIP3    H2 9844   4.969   1.875   5.819  0.6309 -0.0789 -0.4804
 3294TIP3   OH2 9845   5.121   0.388   3.466  0.4129  0.3569  0.8202
 3294TIP3    H1 9846   5.152   0.475   3.442  1.4799 -1.0442 -4.0924
 3294TIP3    H2 9847   5.026   0.392   3.455  0.6653  0.3636 -2.6872
 3295TIP3   OH2 9848   5.230   4.909   0.382 -0.6123  0.2703 -0.0093
 3295TIP3    H1 9849   5.135   4.921   0.382 -0.7564 -0.6682  1.0859
 3295TIP3    H2 9850   5.256   4.919   0.474  0.3462  0.5161 -0.2942
 3296TIP3   OH2 9851   5.904   3.962   0.639 -0.1022 -0.2389  0.6735
 3296TIP3    H1 9852   5.934   3.921   0.558 -0.8179  0.5232 -0.0004
 3296TIP3    H2 9853   5.951   3.916   0.709 -0.7669 -2.1222 -0.0423
 3297TIP3   OH2 9854   0.113   4.068   2.727 -0.2885  0.1679 -0.3445
 3297TIP3    H1 9855   0.160   4.052   2.645 -0.6022  0.1954 -0.5287
 3297TIP3    H2 9856   0.044   4.130   2.704 -0.3990  0.1521 -0.0647
 3298TIP3   OH2 9857   2.229   2.396   0.060  0.7913  0.0159  0.2446
 3298TIP3    H1 9858   2.252   2.309   0.091 -1.0435 -0.3824  0.5983
 3298TIP3    H2 9859   2.175   2.380  -0.018 -1.4693  0.6993  1.5847
 3299TIP3   OH2 9860   4.680   4.199   1.910  0.4075 -0.3677 -0.5131
 3299TIP3    H1 9861   4.746   4.133   1.886  1.5817  0.9271 -0.9372
 3299TIP3    H2 9862   4.661   4.244   1.828  0.2203  0.3620 -0.0708
 3300TIP3   OH2 9863   3.310   5.649   3.845  0.1658  0.6135 -0.1254
 3300TIP3    H1 9864   3.217   5.672   3.837  0.0884 -0.1234 -1.6319
 3300TIP3    H2 9865   3.350   5.726   3.886 -1.2309  0.6057  1.3820
 3301TIP3   OH2 9866   6.504   2.395   5.485 -0.8467  0.5915  0.0603
 3301TIP3    H1 9867   6.415   2.369   5.507 -0.7925 -0.3079 -0.6840
 3301TIP3    H2 9868   6.547   2.410   5.569 -0.8256 -2.0364  0.6146
 3302TIP3   OH2 9869   3.769   5.389   1.927  0.0263  0.0674 -0.3657
 3302TIP3    H1 9870   3.676   5.388   1.906  0.0455  0.7434 -0.5080
 3302TIP3    H2 9871   3.775   5.440   2.008  0.0770 -1.5313  0.6739
 3303TIP3   OH2 9872   4.244   3.564   4.653 -0.1811 -0.1201  0.2227
 3303TIP3    H1 9873   4.276   3.602   4.571  0.5362 -0.0559  0.5233
 3303TIP3    H2 9874   4.154   3.594   4.660 -0.5285 -0.8138 -0.9601
 3304TIP3   OH2 9875   5.084   0.704   0.655 -0.4607 -0.4768 -0.1030
 3304TIP3    H1 9876   5.172   0.731   0.628 -0.4866  0.3024  0.5760
 3304TIP3    H2 9877   5.029   0.726   0.580 -0.5467  1.7599  0.5469
 3305TIP3   OH2 9878   0.759   0.689   4.104 -0.5175  0.2033  0.5337
 3305TIP3    H1 9879   0.715   0.670   4.022  0.2429 -0.1867  0.2033
 3305TIP3    H2 9880   0.833   0.745   4.079 -1.9177  2.5859  1.3102
 3306TIP3   OH2 9881   1.780   0.919   5.623 -0.1504  0.1861 -0.0744
 3306TIP3    H1 9882   1.731   0.980   5.568  1.1576  0.3760 -1.0675
 3306TIP3    H2 9883   1.732   0.917   5.706 -1.8602  0.3021 -1.0198
 3307TIP3   OH2 9884   2.808   4.707   5.324 -0.5504 -0.2895 -0.0839
 3307TIP3    H1 9885   2.724   4.750   5.310 -0.9850  0.2242  3.1591
 3307TIP3    H2 9886   2.786   4.623   5.364  0.4470 -1.3372 -1.6554
 3308TIP3   OH2 9887   0.704   4.006   1.502  0.0802 -0.0396  0.7010
 3308TIP3    H1 9888   0.739   3.918   1.488 -0.8709 -0.4497  0.8342
 3308TIP3    H2 9889   0.727   4.053   1.422 -0.5553 -0.7936  0.0593
 3309TIP3   OH2 9890   0.381   4.209   1.013  0.2678  0.1282  0.2982
 3309TIP3    H1 9891   0.377   4.222   0.919  0.6402 -1.6294 -0.0015
 3309TIP3    H2 9892   0.292   4.227   1.044  0.2553  1.1569 -0.3065
 3310TIP3   OH2 9893   3.832   6.626   0.526  0.6807  0.3475 -0.1764
 3310TIP3    H1 9894   3.767   6.556   0.519  0.7013  0.4287 -1.4264
 3310TIP3    H2 9895   3.781   6.705   0.543  0.5441  0.2520 -0.1410
 3311TIP3   OH2 9896   4.521   0.753   5.692  0.4093  0.8180 -0.5502
 3311TIP3    H1 9897   4.592   0.714   5.743 -1.8873 -2.8443  0.2980
 3311TIP3    H2 9898   4.469   0.801   5.756  0.2804  0.5305 -0.4347
 3312TIP3   OH2 9899   1.503   2.728   5.162  0.0053 -0.4492  0.0808
 3312TIP3    H1 9900   1.465   2.686   5.239  0.2040 -0.0229  0.4124
 3312TIP3    H2 9901   1.564   2.793   5.197  0.8348 -0.9238 -0.4350
 3313TIP3   OH2 9902   6.943   1.713   0.861 -0.3245 -0.1755 -0.1980
 3313TIP3    H1 9903   7.025   1.715   0.812  0.4646 -0.2879  1.0690
 3313TIP3    H2 9904   6.954   1.640   0.923 -0.5755  1.0012  1.3038
 3314TIP3   OH2 9905   1.957   6.513   3.675 -0.1678  0.2181  0.6385
 3314TIP3    H1 9906   1.890   6.452   3.705 -0.5346  0.9570  1.3653
 3314TIP3    H2 9907   1.975   6.569   3.751  2.2711 -0.7953  0.8932
 3315TIP3   OH2 9908   1.742   3.260   0.253  0.2218  0.6172 -0.5086
 3315TIP3    H1 9909   1.838   3.261   0.254  0.2454  0.5157 -1.4486
 3315TIP3    H2 9910   1.720   3.172   0.222 -0.2082  0.2294  0.8328
 3316TIP3   OH2 9911   4.575   0.901   2.760  0.1076  0.2769 -0.6627
 3316TIP3    H1 9912   4.660   0.874   2.724  0.8255 -1.8036  2.1962
 3316TIP3    H2 9913   4.511   0.852   2.709  0.9544 -1.2371 -0.3423
 3317TIP3   OH2 9914   4.057   4.534   4.201 -0.3031 -0.4629  0.2640
 3317TIP3    H1 9915   4.093   4.447   4.219  0.6920  0.0206  0.7130
 3317TIP3    H2 9916   4.064   4.544   4.106 -0.2003 -0.7793  0.2391
 3318TIP3   OH2 9917   4.029   1.743   1.067 -0.3173  0.0189 -0.5546
 3318TIP3    H1 9918   4.017   1.702   1.153 -0.7751 -1.3231 -1.2274
 3318TIP3    H2 9919   4.122   1.764   1.062  0.2002 -2.1536 -0.6827
 3319TIP3   OH2 9920   0.113   5.687   1.186 -0.1193  0.8671  0.2585
 3319TIP3    H1 9921   0.095   5.742   1.110 -2.7957 -0.0228  0.1311
 3319TIP3    H2 9922   0.069   5.604   1.167  0.2074  0.1758  2.2450
 3320TIP3   OH2 9923   5.453   2.433   3.277  0.2514  0.1255 -0.0330
 3320TIP3    H1 9924   5.364   2.457   3.305  0.4991  0.9931  0.0133
 3320TIP3    H2 9925   5.467   2.346   3.315 -0.3849  0.1994  0.3838
 3321TIP3   OH2 9926   4.004   3.472   3.900 -0.8230 -0.5468 -0.0669
 3321TIP3    H1 9927   3.928   3.461   3.843 -0.3683  0.1241 -0.8287
 3321TIP3    H2 9928   4.073   3.503   3.841 -0.6743  1.3733  1.0355
 3322TIP3   OH2 9929   6.983   4.085   5.069  0.0677  0.2969 -0.3002
 3322TIP3    H1 9930   6.916   4.089   5.136  1.7298  1.9479  1.3590
 3322TIP3    H2 9931   6.953   4.147   5.001 -0.9245 -0.3373 -0.4690
 3323TIP3   OH2 9932   5.333   5.073   0.040  0.0807 -0.8023 -0.0172
 3323TIP3    H1 9933   5.237   5.069   0.045  0.0087  0.3960 -0.0734
 3323TIP3    H2 9934   5.361   5.074   0.132 -0.1403  1.4901  0.0870
 3324TIP3   OH2 9935   2.761   6.442   0.388  0.2184 -0.3329 -0.6171
 3324TIP3    H1 9936   2.703   6.484   0.325  0.4846  1.0521  0.0187
 3324TIP3    H2 9937   2.837   6.414   0.336 -0.2360 -0.5981 -1.1507
 3325TIP3   OH2 9938   5.535   4.413   4.788  0.2522  0.2852 -0.3109
 3325TIP3    H1 9939   5.591   4.353   4.738 -0.3238 -1.5414  1.1287
 3325TIP3    H2 9940   5.595   4.479   4.822  1.0593 -0.0185 -1.1025
 3326TIP3   OH2 9941   1.684   4.840   4.910 -0.7467 -0.0147 -0.1983
 3326TIP3    H1 9942   1.762   4.800   4.949  0.1076 -0.6503 -2.3937
 3326TIP3    H2 9943   1.684   4.929   4.944 -1.6329 -1.2142  3.3175
 3327TIP3   OH2 9944   0.582   4.224   1.606  0.0484 -0.7993 -0.2370
 3327TIP3    H1 9945   0.640   4.152   1.581  0.9117  0.1020 -0.9444
 3327TIP3    H2 9946   0.589   4.286   1.533  0.3995  0.6220  0.9577
 3328TIP3   OH2 9947   2.071   0.181   0.554  0.1046 -0.3338 -0.3750
 3328TIP3    H1 9948   1.993   0.190   0.499  1.0956 -0.2475 -1.7998
 3328TIP3    H2 9949   2.040   0.200   0.643 -1.1382  1.3844 -1.1393
 3329TIP3   OH2 9950   6.806   3.172   1.525 -0.1827  0.4424 -0.3284
 3329TIP3    H1 9951   6.892   3.183   1.485  0.1258  0.1614  0.2512
 3329TIP3    H2 9952   6.779   3.261   1.549  0.2199  0.4640  0.0534
 3330TIP3   OH2 9953   6.272   1.358   5.730  0.0386 -0.2810 -0.0330
 3330TIP3    H1 9954   6.310   1.270   5.730 -1.0379 -1.1211 -5.3555
 3330TIP3    H2 9955   6.178   1.344   5.730 -0.1553  0.8598 -0.5455
 3331TIP3   OH2 9956   4.909   0.218   1.962 -0.1256  0.5191 -0.4618
 3331TIP3    H1 9957   4.992   0.207   1.915  0.1350  0.1970  0.0635
 3331TIP3    H2 9958   4.849   0.253   1.896  0.0975 -0.3825 -1.1760
 3332TIP3   OH2 9959   6.527   2.353   0.213 -1.0771  0.4539  0.7659
 3332TIP3    H1 9960   6.517   2.264   0.178  1.2666  0.1483  0.7250
 3332TIP3    H2 9961   6.609   2.351   0.261 -0.4794  2.8468 -0.0244
 3333TIP3   OH2 9962   5.940   4.279   5.285  0.4296 -0.0307 -0.6179
 3333TIP3    H1 9963   5.874   4.341   5.316 -0.5865 -2.0603  1.6801
 3333TIP3    H2 9964   6.011   4.286   5.349  0.3509 -1.0804 -0.3921
 3334TIP3   OH2 9965   6.571   2.472   2.362 -0.2186  0.0171 -0.3322
 3334TIP3    H1 9966   6.583   2.517   2.446  0.7932 -1.3842  0.3204
 3334TIP3    H2 9967   6.476   2.471   2.348 -0.5898 -1.4421  1.8194
 3335TIP3   OH2 9968   0.409   1.692   3.040  0.0369  0.3488  0.2452
 3335TIP3    H1 9969   0.481   1.678   2.979  1.1237  1.1674  1.2835
 3335TIP3    H2 9970   0.402   1.787   3.049 -0.9716  0.2750  0.4113
 3336TIP3   OH2 9971   2.165   0.182   0.231 -0.2891 -0.1507 -0.2506
 3336TIP3    H1 9972   2.228   0.218   0.170  1.6038 -2.6969  0.0091
 3336TIP3    H2 9973   2.166   0.241   0.306  1.2829  0.2425 -0.5612
 3337TIP3   OH2 9974   4.777   5.452   5.681 -0.2467 -0.1703 -0.1120
 3337TIP3    H1 9975   4.838   5.524   5.698  0.3055 -0.4990 -0.6452
 3337TIP3    H2 9976   4.752   5.464   5.589 -0.1833 -0.6301 -0.1916
 3338TIP3   OH2 9977   5.175   4.241   3.776 -0.1151  0.1124  1.0058
 3338TIP3    H1 9978   5.096   4.196   3.808 -2.1028  1.9052 -1.0127
 3338TIP3    H2 9979   5.181   4.217   3.684  2.9011 -1.4369  1.4924
 3339TIP3   OH2 9980   4.558   6.322   2.445 -0.3315  0.3088  0.0334
 3339TIP3    H1 9981   4.472   6.355   2.468  0.6650  2.1236  1.4010
 3339TIP3    H2 9982   4.593   6.386   2.383 -0.1070 -0.6299 -0.8413
 3340TIP3   OH2 9983   7.076   5.095   1.641  0.3678 -0.0496 -0.2888
 3340TIP3    H1 9984   7.044   5.138   1.720 -0.8684  1.6487 -1.6349
 3340TIP3    H2 9985   7.142   5.156   1.606  0.2355 -0.3342 -1.0411
 3341TIP3   OH2 9986   2.387   4.742   0.238 -0.3335  0.3429  0.0161
 3341TIP3    H1 9987   2.353   4.681   0.303 -0.8811  0.5554 -0.0599
 3341TIP3    H2 9988   2.310   4.791   0.209 -0.3788 -0.6846 -1.8061
 3342TIP3   OH2 9989   4.904   1.422   0.893 -0.3531  0.1124  0.1818
 3342TIP3    H1 9990   4.955   1.416   0.812  2.4192 -2.1059  1.9146
 3342TIP3    H2 9991   4.835   1.356   0.883 -1.9267  1.8715 -1.4346
 3343TIP3   OH2 9992   4.626   3.311   5.576  0.3043 -0.6205  0.0114
 3343TIP3    H1 9993   4.543   3.266   5.564 -0.8612  1.4463 -0.0384
 3343TIP3    H2 9994   4.653   3.337   5.488  0.0072  0.3697  0.1976
 3344TIP3   OH2 9995   1.278   4.818   0.451 -0.3746  0.3102 -0.1512
 3344TIP3    H1 9996   1.324   4.735   0.457 -0.1107  0.3841 -1.0294
 3344TIP3    H2 9997   1.211   4.803   0.384  1.7716  1.7221 -2.8353
 3345TIP3   OH2 9998   2.361   3.041   1.040  0.9011  0.1097 -0.0460
 3345TIP3    H1 9999   2.446   3.070   1.073  0.7839  0.9302 -0.4416
 3345TIP3    H210000   2.331   2.976   1.104  1.5683  0.2328  0.3944
 3346TIP3   OH210001   1.131   6.367   3.729  0.8569 -0.5444 -0.0458
 3346TIP3    H110002   1.102   6.410   3.649  1.5368 -0.1203 -0.0720
 3346TIP3    H210003   1.088   6.415   3.800 -1.3043 -2.1165 -0.1891
 3347TIP3   OH210004   5.510   5.202   5.326  0.3285 -0.2394 -0.4823
 3347TIP3    H110005   5.430   5.252   5.311 -0.1433 -0.3971  1.2905
 3347TIP3    H210006   5.493   5.155   5.407  1.8416 -1.0903 -0.6369
 3348TIP3   OH210007   7.180   0.316   5.711 -0.7656  0.1467 -0.1936
 3348TIP3    H110008   7.114   0.309   5.780  0.0492 -0.3115  0.5706
 3348TIP3    H210009   7.202   0.225   5.690 -1.4607  0.2706 -1.5249
 3349TIP3   OH210010   6.181   1.843   2.130 -0.1063 -0.1285  0.2217
 3349TIP3    H110011   6.134   1.843   2.213  2.2292  0.8079  1.6386
 3349TIP3    H210012   6.195   1.750   2.110 -0.4655 -0.3568  0.9938
 3350TIP3   OH210013   4.773   5.552   4.582 -0.4679  0.3374 -0.4421
 3350TIP3    H110014   4.759   5.530   4.489 -3.0531  2.0993 -0.5657
 3350TIP3    H210015   4.813   5.639   4.580 -3.2584  1.7563 -0.0255
 3351TIP3   OH210016   2.696   5.013   2.200  0.2312  1.0444 -0.5936
 3351TIP3    H110017   2.675   5.094   2.247 -0.1673  0.5415  0.1078
 3351TIP3    H210018   2.676   5.032   2.108  0.0259  1.7003 -0.4138
 3352TIP3   OH210019   5.879   6.307   4.646  0.0054 -0.4243  0.2416
 3352TIP3    H110020   5.803   6.261   4.681 -1.4300  0.4222 -1.5713
 3352TIP3    H210021   5.846   6.352   4.568  1.9826  1.3917  0.3537
 3353TIP3   OH210022   0.098   6.041   0.698  0.2586 -0.3575 -0.0557
 3353TIP3    H110023   0.189   6.068   0.714  0.4426 -1.1585  0.3261
 3353TIP3    H210024   0.073   6.087   0.619  0.8591  0.2071  0.0734
 3354TIP3   OH210025   0.088   0.130   5.437 -0.1680 -0.2407  0.6970
 3354TIP3    H110026   0.047   0.100   5.518 -3.2288  0.9631 -0.2591
 3354TIP3    H210027   0.167   0.177   5.467 -0.1547 -1.4510  2.7784
 3355TIP3   OH210028   0.128   5.536   1.726  0.0256  0.2987  0.0406
 3355TIP3    H110029   0.044   5.524   1.771 -0.0988  0.4850 -0.1411
 3355TIP3    H210030   0.104   5.552   1.635  0.2990 -1.0015 -0.2905
 3356TIP3   OH210031   3.876   5.790   3.087 -0.2548 -0.3849 -0.1806
 3356TIP3    H110032   3.867   5.759   3.177 -0.7323 -0.4517 -0.2507
 3356TIP3    H210033   3.786   5.800   3.056 -0.0952  0.2779 -0.4359
 3357TIP3   OH210034   6.064   2.222   3.424  0.0737  0.6111 -0.6082
 3357TIP3    H110035   5.986   2.181   3.386  1.0358  0.2133 -2.2743
 3357TIP3    H210036   6.090   2.165   3.496 -1.2553  0.8464  0.0791
 3358TIP3   OH210037   0.319   5.292   0.589 -0.3972 -0.1962  0.5563
 3358TIP3    H110038   0.360   5.261   0.508  0.5480  2.1374  0.0678
 3358TIP3    H210039   0.385   5.275   0.657 -1.8782 -3.8577  1.3274
 3359TIP3   OH210040   1.613   6.570   0.265  0.0388 -0.0495 -0.3382
 3359TIP3    H110041   1.647   6.542   0.180 -0.0013  0.3947 -0.5010
 3359TIP3    H210042   1.535   6.516   0.279 -0.3284  0.3385 -0.8847
 3360TIP3   OH210043   2.660   4.825   3.100 -0.1937 -0.1198 -0.2508
 3360TIP3    H110044   2.599   4.809   3.172  0.1858  1.2875  0.4203
 3360TIP3    H210045   2.615   4.790   3.023 -0.6776 -1.5188  0.6124
 3361TIP3   OH210046   0.456   3.032   5.000  0.0457 -0.3276  0.4309
 3361TIP3    H110047   0.512   3.110   5.002 -0.1329 -0.1887  0.0691
 3361TIP3    H210048   0.472   2.993   4.914  0.3107 -0.8221  0.7002
 3362TIP3   OH210049   6.600   2.953   2.932 -0.0771  0.2162 -0.1854
 3362TIP3    H110050   6.505   2.966   2.942 -0.6014  0.0167 -3.5839
 3362TIP3    H210051   6.609   2.860   2.911  0.9136  0.1761  0.4016
 3363TIP3   OH210052   6.563   5.202   5.752  1.1299  0.3159 -0.2647
 3363TIP3    H110053   6.522   5.289   5.748  1.1206  0.2726 -1.5681
 3363TIP3    H210054   6.647   5.213   5.707  1.9591  0.0607  1.1426
 3364TIP3   OH210055   4.837   0.167   5.606  0.0480 -0.2272 -0.5810
 3364TIP3    H110056   4.770   0.144   5.541 -0.4405  2.1117 -0.9855
 3364TIP3    H210057   4.788   0.196   5.682  0.6258 -2.7279  0.8370
 3365TIP3   OH210058   1.192   4.181   0.902  0.2669  0.6094 -0.3482
 3365TIP3    H110059   1.278   4.211   0.932  0.0078 -0.1185  1.2351
 3365TIP3    H210060   1.204   4.087   0.886 -0.6061  0.1615  1.4555
 3366TIP3   OH210061   5.791   4.118   2.545  0.4346 -0.0974  0.1580
 3366TIP3    H110062   5.858   4.049   2.547  0.9156  0.3449 -0.1989
 3366TIP3    H210063   5.840   4.198   2.524  0.0966  0.6066  1.8696
 3367TIP3   OH210064   3.860   2.862   0.169 -1.1872  0.1075 -0.1785
 3367TIP3    H110065   3.946   2.823   0.153 -1.8793 -0.9861 -1.5131
 3367TIP3    H210066   3.863   2.947   0.124 -1.1219 -0.3900 -1.1538
 3368TIP3   OH210067   7.170   2.408   5.727  0.5452  0.0452  0.2419
 3368TIP3    H110068   7.116   2.440   5.799  1.5973  1.9768  0.2523
 3368TIP3    H210069   7.109   2.360   5.671 -0.7222  0.3256  1.3176
 3369TIP3   OH210070   2.753   1.565   4.463 -0.5681  0.5720 -0.6596
 3369TIP3    H110071   2.818   1.629   4.491 -0.1625  1.6323 -3.5860
 3369TIP3    H210072   2.784   1.481   4.496  1.9220  1.1583 -1.3212
 3370TIP3   OH210073   6.043   3.766   4.038  0.4985  0.2040  0.4868
 3370TIP3    H110074   6.047   3.775   4.133 -0.5766 -2.0287  0.8037
 3370TIP3    H210075   6.122   3.811   4.006  1.8723 -0.6184  2.5693
 3371TIP3   OH210076   2.848   4.756   1.327  0.1821 -0.0886 -0.0831
 3371TIP3    H110077   2.879   4.803   1.250  0.6157 -0.5282 -0.1852
 3371TIP3    H210078   2.888   4.669   1.319  0.6059  0.0092  0.8735
 3372TIP3   OH210079   0.514   1.962   0.750  0.3563  0.0086 -0.4251
 3372TIP3    H110080   0.483   1.899   0.814  0.9084 -0.1710 -0.3299
 3372TIP3    H210081   0.438   2.016   0.730  0.5630  1.1273  1.5955
 3373TIP3   OH210082   2.293   2.739   1.790 -0.2264 -0.0606 -0.1096
 3373TIP3    H110083   2.381   2.717   1.821  0.5845  1.8625 -0.8556
 3373TIP3    H210084   2.308   2.801   1.717 -2.1888  0.4135 -0.1701
 3374TIP3   OH210085   6.264   1.220   0.202 -0.1814 -0.0035  0.5164
 3374TIP3    H110086   6.307   1.237   0.286 -0.5794  1.2977  0.4832
 3374TIP3    H210087   6.196   1.288   0.196 -0.0026  0.0784 -0.9712
 3375TIP3   OH210088   1.097   1.732   5.529 -0.4981 -0.4391 -0.4283
 3375TIP3    H110089   1.009   1.728   5.490 -0.7588  1.6986 -0.1865
 3375TIP3    H210090   1.081   1.748   5.622  0.1452 -0.5503 -0.2950
 3376TIP3   OH210091   3.044   4.805   4.261  0.3219  0.5359 -0.0806
 3376TIP3    H110092   3.056   4.777   4.352 -1.2534  0.7505  0.2208
 3376TIP3    H210093   3.036   4.900   4.266 -2.0966  0.3748 -0.1249
 3377TIP3   OH210094   1.092   4.047   1.914  0.5783  0.1350 -0.9331
 3377TIP3    H110095   1.179   4.080   1.937  1.3942  0.3494 -3.9189
 3377TIP3    H210096   1.041   4.126   1.894  0.1207 -0.0576 -0.5306
 3378TIP3   OH210097   7.124   3.461   4.712 -0.1586  0.4486  0.1456
 3378TIP3    H110098   7.056   3.421   4.767 -0.1593 -1.7446 -1.3376
 3378TIP3    H210099   7.083   3.473   4.627  0.6233  1.3836 -0.1266
 3379TIP3   OH210100   1.223   0.811   5.140  0.2421  0.1438 -0.0210
 3379TIP3    H110101   1.162   0.751   5.183  1.0263  0.4492  1.5641
 3379TIP3    H210102   1.220   0.785   5.048 -5.3252  2.6446 -0.9713
 3380TIP3   OH210103   6.413   6.487   0.237 -0.2591 -0.0860 -0.0719
 3380TIP3    H110104   6.356   6.531   0.174  0.4170  1.3510  0.2556
 3380TIP3    H210105   6.355   6.457   0.306 -0.9783 -1.4503 -1.2307
 3381TIP3   OH210106   3.081   5.079   5.756  0.4976  0.8041  0.2010
 3381TIP3    H110107   3.041   4.992   5.760 -0.2413  1.1594  0.9247
 3381TIP3    H210108   3.171   5.062   5.728 -0.1253 -0.0213 -1.4535
 3382TIP3   OH210109   3.422   1.930   2.839 -0.0050 -0.3378  0.4683
 3382TIP3    H110110   3.428   2.024   2.822  0.1595 -0.2866  0.7904
 3382TIP3    H210111   3.460   1.889   2.762 -3.0825 -0.2745 -1.2186
 3383TIP3   OH210112   0.941   5.884   2.621 -1.0710  0.5241 -0.2091
 3383TIP3    H110113   0.920   5.951   2.687 -0.5415  1.5603 -1.0533
 3383TIP3    H210114   0.858   5.866   2.577 -1.2322  0.5730  0.0753
 3384TIP3   OH210115   5.797   5.733   4.242  0.5696  0.0204 -0.6494
 3384TIP3    H110116   5.816   5.825   4.222 -0.8740  0.7022  0.9423
 3384TIP3    H210117   5.761   5.698   4.161  0.3419  1.0842 -1.0229
 3385TIP3   OH210118   2.759   1.004   2.855 -0.1547 -0.2408  0.1187
 3385TIP3    H110119   2.854   1.012   2.853 -0.2916  2.2199 -1.4129
 3385TIP3    H210120   2.730   1.083   2.901 -1.4817 -0.6625  0.0454
 3386TIP3   OH210121   6.612   0.501   1.904  0.2295 -0.3522  1.1081
 3386TIP3    H110122   6.555   0.578   1.899  0.9372  0.2590  2.0644
 3386TIP3    H210123   6.691   0.527   1.856  0.2184 -0.7124  0.8969
 3387TIP3   OH210124   4.707   2.896   0.367  0.2310  0.0636 -0.2433
 3387TIP3    H110125   4.654   2.823   0.399  0.5575 -1.7939 -3.5589
 3387TIP3    H210126   4.796   2.876   0.397  0.3515 -1.0836 -1.2886
 3388TIP3   OH210127   5.820   2.397   4.627 -0.1012 -0.0677 -0.6841
 3388TIP3    H110128   5.842   2.372   4.537 -0.2457  2.3367 -1.4574
 3388TIP3    H210129   5.729   2.368   4.638 -0.4493  0.5597 -1.7303
 3389TIP3   OH210130   3.109   0.557   5.440 -0.0968 -0.1315  0.4658
 3389TIP3    H110131   3.194   0.520   5.416 -0.2085  0.0344 -0.2028
 3389TIP3    H210132   3.049   0.481   5.442 -0.3311 -0.0096 -0.9259
 3390TIP3   OH210133   2.673   3.919   0.752  0.3358  0.0328 -0.2653
 3390TIP3    H110134   2.591   3.877   0.725 -0.6785  1.3170  0.7030
 3390TIP3    H210135   2.649   3.970   0.829  1.9811  0.7471 -0.1989
 3391TIP3   OH210136   1.100   6.547   5.299 -0.0516 -0.0395 -0.3241
 3391TIP3    H110137   1.149   6.572   5.378 -0.2746  1.2775 -0.5793
 3391TIP3    H210138   1.108   6.622   5.241 -1.7042 -0.1008 -0.6844
 3392TIP3   OH210139   4.487   3.726   2.749 -0.5277 -0.0922 -0.1667
 3392TIP3    H110140   4.504   3.809   2.704  3.5352 -1.2581 -1.1749
 3392TIP3    H210141   4.524   3.738   2.836  0.4417 -0.9524 -0.4505
 3393TIP3   OH210142   4.319   3.655   5.157  0.4138 -0.4557  0.4225
 3393TIP3    H110143   4.368   3.584   5.117  0.1446 -0.4423  0.0592
 3393TIP3    H210144   4.344   3.653   5.250  2.8609  0.9846 -0.1041
 3394TIP3   OH210145   3.359   5.628   5.765 -0.1516 -0.1164 -0.3077
 3394TIP3    H110146   3.382   5.564   5.833  0.1078  1.1216  0.8037
 3394TIP3    H210147   3.291   5.584   5.714 -0.4640 -1.0298  0.8404
 3395TIP3   OH210148   2.547   3.458   3.984 -0.1583  0.1756 -0.1736
 3395TIP3    H110149   2.499   3.510   3.920 -0.1341 -1.2210 -1.3769
 3395TIP3    H210150   2.484   3.442   4.054 -0.1365  1.8460  0.2903
 3396TIP3   OH210151   4.571   0.989   1.248 -0.7096  0.1755  0.2029
 3396TIP3    H110152   4.616   0.950   1.173 -1.8301 -1.1334  0.1810
 3396TIP3    H210153   4.513   0.920   1.280 -2.2285  1.5877  0.6292
 3397TIP3   OH210154   3.920   4.414   0.225 -0.1328  0.1285  0.1384
 3397TIP3    H110155   3.876   4.344   0.177  0.7683 -0.0414 -0.4585
 3397TIP3    H210156   4.010   4.413   0.192  0.3871  0.3309  1.4894
 3398TIP3   OH210157   1.302   2.243   5.350  1.2016  0.7764  0.1278
 3398TIP3    H110158   1.393   2.235   5.324  1.2251  1.1860  0.0816
 3398TIP3    H210159   1.303   2.307   5.421  0.8913  1.1300 -0.1845
 3399TIP3   OH210160   2.888   0.902   3.173  0.5321  0.2638  0.2214
 3399TIP3    H110161   2.834   0.957   3.116 -0.2736 -0.9365 -0.2011
 3399TIP3    H210162   2.895   0.952   3.254  0.9647  1.6031 -0.6079
 3400TIP3   OH210163   6.266   2.011   3.532 -0.1641 -0.0419 -0.0703
 3400TIP3    H110164   6.293   2.013   3.624  0.2613 -0.2632 -0.1888
 3400TIP3    H210165   6.346   2.031   3.483 -0.0996 -1.1880 -0.4521
 3401TIP3   OH210166   6.828   1.589   5.811  0.3126 -0.1989  0.1863
 3401TIP3    H110167   6.767   1.659   5.786  0.3092 -0.1946  0.2077
 3401TIP3    H210168   6.803   1.515   5.755  1.7057  0.4708 -1.4397
 3402TIP3   OH210169   1.312   5.274   3.320  0.4613 -0.6465 -0.0884
 3402TIP3    H110170   1.345   5.227   3.244  0.4322 -1.1704  0.2099
 3402TIP3    H210171   1.236   5.223   3.348 -0.5933  0.5184 -0.7452
 3403TIP3   OH210172   3.607   3.898   1.034  0.2436 -0.1110 -0.4157
 3403TIP3    H110173   3.524   3.888   0.987 -0.6143  1.6030  0.6284
 3403TIP3    H210174   3.582   3.907   1.126  1.5544  0.7073 -0.1114
 3404TIP3   OH210175   5.368   6.638   1.675 -0.1962  0.7769  0.0400
 3404TIP3    H110176   5.342   6.730   1.683 -2.6407  0.1203  0.2285
 3404TIP3    H210177   5.294   6.595   1.634  0.6979 -1.2322  0.4161
 3405TIP3   OH210178   2.835   4.230   2.685  0.1241  0.0193  0.2095
 3405TIP3    H110179   2.857   4.299   2.748 -0.5908  1.0879 -0.6866
 3405TIP3    H210180   2.909   4.229   2.624 -0.2406  0.5590 -0.2456
 3406TIP3   OH210181   6.707   3.706   2.033 -0.2662 -0.1294 -0.4133
 3406TIP3    H110182   6.726   3.613   2.045  0.5138  0.1948  1.1260
 3406TIP3    H210183   6.633   3.708   1.972 -1.2500 -1.8120  0.6543
 3407TIP3   OH210184   2.685   0.421   1.714 -0.4016 -0.0804  0.1626
 3407TIP3    H110185   2.733   0.342   1.691  1.3169  1.0149 -0.2042
 3407TIP3    H210186   2.746   0.471   1.769 -0.8608  1.6442 -0.8364
 3408TIP3   OH210187   3.602   5.040   2.873 -0.1760 -0.2674 -0.1029
 3408TIP3    H110188   3.643   4.988   2.804  1.0458 -0.1086  0.4825
 3408TIP3    H210189   3.525   4.989   2.898  0.5935 -1.4407 -0.0433
 3409TIP3   OH210190   4.977   1.342   1.128 -0.3757 -0.2326 -0.6064
 3409TIP3    H110191   4.913   1.285   1.170 -0.6289 -1.2390 -2.2766
 3409TIP3    H210192   4.925   1.402   1.074 -0.1035  1.5230  0.9621
 3410TIP3   OH210193   0.499   2.626   5.004  0.2932 -0.0491  0.1817
 3410TIP3    H110194   0.579   2.636   5.056  0.0021 -0.7899  0.8048
 3410TIP3    H210195   0.529   2.630   4.913  0.8698  0.8678  0.4050
 3411TIP3   OH210196   3.061   5.344   5.854  0.3258  0.1572 -0.2731
 3411TIP3    H110197   3.111   5.349   5.935 -0.7571  1.1974  0.3516
 3411TIP3    H210198   3.069   5.252   5.827 -0.5018 -0.5822  1.8006
 3412TIP3   OH210199   0.685   6.592   4.112 -0.1454 -0.3696  0.2350
 3412TIP3    H110200   0.650   6.628   4.194 -1.6459 -1.4668  0.1239
 3412TIP3    H210201   0.607   6.573   4.059  0.7650 -0.3314 -1.1827
 3413TIP3   OH210202   7.066   2.345   4.586 -0.4527  0.4887 -0.2156
 3413TIP3    H110203   7.103   2.431   4.602 -0.2240  0.5432 -1.0021
 3413TIP3    H210204   6.974   2.354   4.610 -0.4955  1.0341 -0.5636
 3414TIP3   OH210205   0.167   5.234   2.598 -0.3417  0.7354 -0.1059
 3414TIP3    H110206   0.223   5.178   2.543 -0.1977 -0.4429  1.1697
 3414TIP3    H210207   0.225   5.302   2.630 -0.2696  1.0403 -0.8759
 3415TIP3   OH210208   1.170   1.465   2.567  0.3896 -0.7122 -0.2039
 3415TIP3    H110209   1.240   1.521   2.534  0.6169 -0.5075  0.6118
 3415TIP3    H210210   1.090   1.513   2.548  0.5551 -0.3244  0.0793
 3416TIP3   OH210211   5.401   4.635   0.919 -0.1115  0.1981  0.1295
 3416TIP3    H110212   5.466   4.692   0.961 -0.7968  0.9529  0.1784
 3416TIP3    H210213   5.360   4.588   0.992 -0.0415  0.1661  0.1484
 3417TIP3   OH210214   0.379   0.094   5.391  0.4134 -0.0717  0.1205
 3417TIP3    H110215   0.295   0.056   5.368 -0.3457  0.6526  1.5691
 3417TIP3    H210216   0.440   0.060   5.325 -0.9745 -0.6961 -0.8833
 3418TIP3   OH210217   2.871   5.382   3.786  0.3384  0.2815  0.0190
 3418TIP3    H110218   2.915   5.464   3.764 -1.3970  1.8283  1.9555
 3418TIP3    H210219   2.807   5.369   3.716  0.2506  0.8851 -0.0175
 3419TIP3   OH210220   1.764   2.268   3.692  0.0868  0.3535  0.4520
 3419TIP3    H110221   1.826   2.242   3.759  1.2039 -2.9059 -1.6159
 3419TIP3    H210222   1.685   2.217   3.711  0.0475  0.1982 -0.1094
 3420TIP3   OH210223   2.766   2.332   4.255 -0.3173  0.1126 -0.3260
 3420TIP3    H110224   2.768   2.347   4.350 -1.2314 -0.3627 -0.2243
 3420TIP3    H210225   2.687   2.280   4.240  0.7715 -1.3955 -1.1308
 3421TIP3   OH210226   2.481   3.082   0.782  0.0217  0.4757 -0.2702
 3421TIP3    H110227   2.430   3.138   0.724  0.0751  1.9575  1.0344
 3421TIP3    H210228   2.436   3.088   0.866  0.5441 -0.7557  0.1193
 3422TIP3   OH210229   6.299   2.674   5.825 -0.1758  0.0097 -0.3370
 3422TIP3    H110230   6.297   2.643   5.734  0.0952  0.8249 -0.6327
 3422TIP3    H210231   6.385   2.647   5.858  0.4372  1.1932 -0.8839
 3423TIP3   OH210232   1.720   2.590   5.598 -0.0285  0.0067 -0.1674
 3423TIP3    H110233   1.688   2.655   5.660 -1.4711  1.3604 -2.1817
 3423TIP3    H210234   1.810   2.615   5.581  1.0772 -1.5394  2.6940
 3424TIP3   OH210235   6.303   1.586   4.852 -0.0124 -0.6862 -0.2712
 3424TIP3    H110236   6.333   1.519   4.791  0.1238 -0.2429 -0.7021
 3424TIP3    H210237   6.382   1.619   4.893  0.0089 -0.2198 -0.6694
 3425TIP3   OH210238   1.212   4.230   4.142 -0.0714  0.2993 -0.1821
 3425TIP3    H110239   1.201   4.282   4.222  0.8596 -0.0431  0.1826
 3425TIP3    H210240   1.145   4.263   4.083 -1.9771 -0.6229  1.3477
 3426TIP3   OH210241   5.384   5.406   0.275  0.0136  0.2612  0.3947
 3426TIP3    H110242   5.298   5.367   0.286 -1.0990  2.3031 -0.4397
 3426TIP3    H210243   5.442   5.332   0.257 -1.7356 -1.0877  0.0239
 3427TIP3   OH210244   2.408   1.882   4.242  0.6437  0.2736  0.4834
 3427TIP3    H110245   2.468   1.938   4.292  2.0505 -0.9886  0.2715
 3427TIP3    H210246   2.445   1.794   4.250  0.7586 -0.0575 -2.4762
 3428TIP3   OH210247   4.445   1.891   5.877 -0.3654  0.2253 -0.1176
 3428TIP3    H110248   4.535   1.884   5.846 -0.2939  0.6497 -0.0124
 3428TIP3    H210249   4.429   1.985   5.882 -0.5736  0.1551  0.5657
 3429TIP3   OH210250   2.460   2.176   1.050  0.1875 -0.1297 -0.0317
 3429TIP3    H110251   2.525   2.238   1.083  3.2459 -2.7358 -0.6835
 3429TIP3    H210252   2.478   2.170   0.956 -0.6977 -1.2432 -0.1494
 3430TIP3   OH210253   6.550   2.092   1.589  0.2615  0.0604  0.2383
 3430TIP3    H110254   6.593   2.058   1.667  1.5218  0.6882 -0.1532
 3430TIP3    H210255   6.591   2.046   1.516 -1.5245 -1.1685 -0.0496
 3431TIP3   OH210256   5.454   0.425   5.700 -0.2917 -0.2305  0.1825
 3431TIP3    H110257   5.417   0.343   5.665  1.3549 -0.6788 -0.5856
 3431TIP3    H210258   5.548   0.410   5.702  0.0208  1.5680  0.2651
 3432TIP3   OH210259   0.869   0.402   4.738  0.6889 -0.9031  0.6827
 3432TIP3    H110260   0.884   0.403   4.833 -0.3148 -0.2541  0.8465
 3432TIP3    H210261   0.795   0.462   4.724  1.2668 -0.4440 -0.5922
 3433TIP3   OH210262   5.587   4.206   5.208 -0.0511  0.0152  0.1828
 3433TIP3    H110263   5.613   4.116   5.226 -1.9310 -0.2628  1.9915
 3433TIP3    H210264   5.547   4.203   5.121  2.1753 -0.2993 -0.9036
 3434TIP3   OH210265   6.541   4.487   5.101 -0.1707 -0.5972 -0.0879
 3434TIP3    H110266   6.603   4.542   5.148 -0.4290 -0.6593  0.3283
 3434TIP3    H210267   6.464   4.483   5.158 -0.9707  0.3453 -1.0651
 3435TIP3   OH210268   0.310   4.802   2.928 -0.5719  0.1196  0.3440
 3435TIP3    H110269   0.318   4.882   2.876  0.6291 -1.0669 -1.4100
 3435TIP3    H210270   0.225   4.810   2.971 -0.8545  1.9525 -0.4634
 3436TIP3   OH210271   3.015   4.667   5.639  0.7075  0.1673  0.1294
 3436TIP3    H110272   2.961   4.600   5.680  1.8334 -1.3429 -0.7094
 3436TIP3    H210273   3.058   4.621   5.566  2.0698  1.6309 -0.0473
 3437TIP3   OH210274   2.090   0.177   3.025 -0.0554 -0.0243 -0.5035
 3437TIP3    H110275   2.053   0.265   3.019 -1.1107 -0.1421  2.7299
 3437TIP3    H210276   2.017   0.122   3.050  1.2679 -1.1846  0.9974
 3438TIP3   OH210277   1.789   6.606   1.652  0.6090 -0.0205 -0.4302
 3438TIP3    H110278   1.733   6.583   1.726  0.6703  0.8113 -0.1184
 3438TIP3    H210279   1.746   6.567   1.576  0.0647 -0.1051 -0.0796
 3439TIP3   OH210280   3.089   5.682   1.455  0.0988 -0.1500  0.1206
 3439TIP3    H110281   3.147   5.693   1.531  0.2866 -0.6545  0.0538
 3439TIP3    H210282   3.029   5.613   1.481  1.3471 -1.6899 -0.8686
 3440TIP3   OH210283   2.031   0.013   2.785 -0.2350 -0.3673  0.1190
 3440TIP3    H110284   1.980   0.014   2.704 -0.1720  1.0229  0.0753
 3440TIP3    H210285   2.045   0.105   2.806  2.8848 -0.6298 -0.2847
 3441TIP3   OH210286   7.121   3.112   1.829  0.6805 -0.5688  0.3770
 3441TIP3    H110287   7.178   3.125   1.753 -1.1497 -1.0278 -1.1739
 3441TIP3    H210288   7.076   3.029   1.811 -0.6623 -0.0962  1.3575
 3442TIP3   OH210289   6.556   6.355   2.024 -0.4488  0.2761  0.1164
 3442TIP3    H110290   6.625   6.289   2.011 -0.1356  0.9175 -1.9727
 3442TIP3    H210291   6.496   6.341   1.951 -2.1625  0.2340  1.4800
 3443TIP3   OH210292   1.612   0.175   5.421 -0.2722 -0.1695 -0.4499
 3443TIP3    H110293   1.692   0.201   5.467  0.2904 -0.8335 -1.0206
 3443TIP3    H210294   1.576   0.104   5.473 -1.6964  1.5019  0.9953
 3444TIP3   OH210295   0.810   4.671   1.914  0.2507  0.2240  0.3342
 3444TIP3    H110296   0.725   4.635   1.940  0.0490 -0.0072 -0.6191
 3444TIP3    H210297   0.789   4.750   1.863  0.4574 -1.1646 -2.0618
 3445TIP3   OH210298   2.158   4.100   3.620  0.4014  0.1468  0.0415
 3445TIP3    H110299   2.099   4.139   3.684  0.2847  2.4436 -1.3436
 3445TIP3    H210300   2.101   4.052   3.561 -0.0944  1.9295 -0.9914
 3446TIP3   OH210301   5.047   6.424   0.333  0.4177  0.2688 -0.0773
 3446TIP3    H110302   5.125   6.373   0.352 -0.2754 -2.0175 -2.7160
 3446TIP3    H210303   5.061   6.456   0.243 -1.4319  0.2786 -0.3961
 3447TIP3   OH210304   2.913   0.790   2.167 -0.5872  0.1040  0.0316
 3447TIP3    H110305   2.826   0.830   2.158 -1.1476 -0.5698  1.8797
 3447TIP3    H210306   2.962   0.820   2.091 -2.3806  0.6692 -0.9569
 3448TIP3   OH210307   0.741   6.374   3.868 -0.5013  0.2825  0.3451
 3448TIP3    H110308   0.744   6.445   3.805 -1.4061 -0.7526 -0.9219
 3448TIP3    H210309   0.648   6.359   3.885 -0.3230 -0.4430  0.7756
 3449TIP3   OH210310   2.550   0.150   3.176  0.2975 -0.5127 -0.2800
 3449TIP3    H110311   2.556   0.245   3.168 -3.1895 -0.0856  0.5320
 3449TIP3    H210312   2.517   0.136   3.265  1.0582 -2.5421 -0.2720
 3450TIP3   OH210313   6.012   6.312   5.480  0.5117  0.0114  0.0971
 3450TIP3    H110314   5.985   6.387   5.427  0.9204  0.2769  0.2572
 3450TIP3    H210315   6.016   6.347   5.569  0.9014 -0.1477  0.1420
 3451TIP3   OH210316   6.572   2.664   0.324  0.0760  0.0068 -0.3510
 3451TIP3    H110317   6.653   2.652   0.374  0.8064 -0.0326 -1.5067
 3451TIP3    H210318   6.512   2.704   0.386  0.1680 -2.1754  1.2581
 3452TIP3   OH210319   5.641   4.362   1.843  0.3031  0.3655 -0.2043
 3452TIP3    H110320   5.555   4.389   1.874  0.6359 -0.9849  2.1341
 3452TIP3    H210321   5.692   4.443   1.838 -0.4717  0.9111  0.6087
 3453TIP3   OH210322   5.859   2.873   2.737 -0.4945 -0.2101  0.1437
 3453TIP3    H110323   5.948   2.875   2.772 -0.4390  2.6421  0.0657
 3453TIP3    H210324   5.852   2.788   2.692  1.4134 -1.4087  1.9572
 3454TIP3   OH210325   6.266   4.973   2.918 -0.1697 -0.0175  0.1560
 3454TIP3    H110326   6.314   5.011   2.845 -0.5015  1.2647  0.5935
 3454TIP3    H210327   6.254   5.045   2.980 -1.4914 -0.6305  0.6541
 3455TIP3   OH210328   3.070   5.057   1.348  0.6050 -0.5123 -0.4113
 3455TIP3    H110329   3.002   5.036   1.412  0.5275 -0.0743 -0.3430
 3455TIP3    H210330   3.021   5.087   1.271  0.7015  2.1182  0.4346
 3456TIP3   OH210331   2.299   2.215   5.056 -0.1432 -0.0993 -0.6490
 3456TIP3    H110332   2.393   2.221   5.075 -0.5667  0.0740  1.6873
 3456TIP3    H210333   2.289   2.127   5.018  0.9200 -0.2296 -0.6798
 3457TIP3   OH210334   5.240   1.273   4.065  0.2802 -0.3957  0.5433
 3457TIP3    H110335   5.229   1.286   3.971  1.3461 -0.5262  0.3876
 3457TIP3    H210336   5.273   1.356   4.098  0.9888 -0.6954  0.6065
 3458TIP3   OH210337   2.732   4.517   3.492  0.4251  0.3314  0.0104
 3458TIP3    H110338   2.686   4.456   3.551  1.4705  1.0307  1.6391
 3458TIP3    H210339   2.674   4.525   3.416 -1.4006 -0.0041  1.2853
 3459TIP3   OH210340   1.458   1.221   0.128 -0.2134 -0.1057  0.5371
 3459TIP3    H110341   1.430   1.304   0.166  1.5587  0.9644 -0.3699
 3459TIP3    H210342   1.466   1.239   0.034 -1.2083 -1.7347  0.1070
 3460TIP3   OH210343   4.605   2.924   0.032 -0.1156  0.4723 -0.3889
 3460TIP3    H110344   4.518   2.940   0.069 -0.4437  0.9207 -1.3215
 3460TIP3    H210345   4.589   2.865  -0.042  0.2813  1.0042 -0.9129
 3461TIP3   OH210346   5.547   2.134   3.908  0.2364  0.1989  0.1494
 3461TIP3    H110347   5.545   2.042   3.932 -1.0543 -0.1493 -1.1662
 3461TIP3    H210348   5.573   2.179   3.989  0.7245 -1.2723  0.8539
 3462TIP3   OH210349   4.883   2.635   1.992  0.7507  0.1602  0.2925
 3462TIP3    H110350   4.917   2.546   1.986  2.5356  0.5733  2.6350
 3462TIP3    H210351   4.813   2.630   2.057  0.6682  0.3949  0.2228
 3463TIP3   OH210352   0.100   0.690   3.056 -0.1617  0.0734  0.6625
 3463TIP3    H110353   0.141   0.695   3.143  1.2855 -3.0587  0.2825
 3463TIP3    H210354   0.061   0.603   3.053 -1.0749  0.5009 -1.5025
 3464TIP3   OH210355   0.609   2.512   4.783  0.1872  0.0796  0.5000
 3464TIP3    H110356   0.598   2.568   4.706  0.4440  0.3894  0.6839
 3464TIP3    H210357   0.664   2.440   4.752 -0.2066 -0.1101  0.2431
 3465TIP3   OH210358   6.914   4.214   3.412  0.2261  0.8408 -0.0554
 3465TIP3    H110359   6.842   4.227   3.474  0.8489  1.8842  0.4949
 3465TIP3    H210360   6.892   4.134   3.366 -0.5758  0.3696  1.0894
 3466TIP3   OH210361   1.180   4.115   3.521  0.3053  0.3092 -0.4377
 3466TIP3    H110362   1.263   4.115   3.473 -0.2362 -0.1152 -1.4102
 3466TIP3    H210363   1.205   4.098   3.612  1.2457 -0.2641 -0.7814
 3467TIP3   OH210364   3.348   4.190   2.718 -0.4441 -0.5850 -0.4080
 3467TIP3    H110365   3.386   4.105   2.696  0.4347 -0.8405  1.8000
 3467TIP3    H210366   3.344   4.237   2.635  0.9346 -2.0544 -1.3633
 3468TIP3   OH210367   6.892   3.682   2.854 -0.2976 -0.1909 -0.2273
 3468TIP3    H110368   6.883   3.735   2.775 -0.7656  0.7658  0.4472
 3468TIP3    H210369   6.968   3.627   2.838 -0.0025  0.4510 -1.0863
 3469TIP3   OH210370   6.522   1.403   3.164  0.3509 -0.8385 -0.1031
 3469TIP3    H110371   6.497   1.409   3.072 -0.6503 -1.5375  0.1147
 3469TIP3    H210372   6.480   1.323   3.196  0.4532 -0.4561  1.0392
 3470TIP3   OH210373   2.524   5.804   0.675  0.1178  0.5021 -0.3112
 3470TIP3    H110374   2.530   5.874   0.740  1.3078 -0.0552  0.2208
 3470TIP3    H210375   2.564   5.728   0.718  0.4057 -0.0368 -1.4821
 3471TIP3   OH210376   2.550   2.178   0.800  0.1096  0.3787 -0.5137
 3471TIP3    H110377   2.471   2.203   0.752  0.3393  0.6079 -0.7784
 3471TIP3    H210378   2.622   2.215   0.748  0.3598  0.6741  0.0393
 3472TIP3   OH210379   5.433   4.378   2.740  0.0725  0.3477 -0.3703
 3472TIP3    H110380   5.485   4.447   2.698 -0.0203 -0.7814 -2.4534
 3472TIP3    H210381   5.497   4.310   2.763  0.0144  0.6341  0.7148
 3473TIP3   OH210382   5.607   1.424   1.789  0.7455  0.3264  0.4652
 3473TIP3    H110383   5.648   1.392   1.869 -0.2191 -0.5017  0.6552
 3473TIP3    H210384   5.654   1.382   1.718 -1.3915 -2.8650  0.7161
 3474TIP3   OH210385   0.196   0.631   5.105  0.1721  0.4414  0.1676
 3474TIP3    H110386   0.115   0.590   5.077 -0.1638 -1.0702  3.0105
 3474TIP3    H210387   0.252   0.559   5.132  2.6954  1.4106 -2.0229
 3475TIP3   OH210388   0.229   6.821   0.194 -0.5515  0.3729  0.6549
 3475TIP3    H110389   0.200   6.746   0.246 -0.3641 -1.3480 -1.5487
 3475TIP3    H210390   0.301   6.786   0.140 -0.5549  2.1027 -0.5487
 3476TIP3   OH210391   0.023   0.813   0.066 -0.5209  0.6058 -0.0698
 3476TIP3    H110392   0.063   0.829  -0.020 -0.6675  0.4856 -0.1611
 3476TIP3    H210393   0.080   0.859   0.127 -0.3880  0.6539 -0.2266
 3477TIP3   OH210394   0.815   2.258   4.510 -0.2548 -0.1280 -0.0115
 3477TIP3    H110395   0.843   2.171   4.483  1.7546 -0.1371  1.8006
 3477TIP3    H210396   0.813   2.253   4.606 -0.9804  1.5767  0.0959
 3478TIP3   OH210397   1.066   2.098   0.131  0.7450  0.4522 -0.0082
 3478TIP3    H110398   1.156   2.103   0.165  0.1275 -1.1161  1.9977
 3478TIP3    H210399   1.014   2.067   0.204 -1.4401  1.0792 -1.2163
 3479TIP3   OH210400   3.500   4.550   3.370 -0.0941  0.4478 -0.1909
 3479TIP3    H110401   3.531   4.468   3.332  0.6636  0.5492  0.2046
 3479TIP3    H210402   3.446   4.523   3.444  0.3844  0.3073  0.1111
 3480TIP3   OH210403   2.349   5.581   4.517 -0.0402  0.2381 -0.3388
 3480TIP3    H110404   2.288   5.647   4.484 -0.7050 -1.1537 -2.0925
 3480TIP3    H210405   2.399   5.554   4.440  0.9330 -0.5736  0.5400
 3481TIP3   OH210406   6.490   4.594   2.210 -0.2309  0.0903 -0.2173
 3481TIP3    H110407   6.421   4.608   2.144 -0.8434 -0.2288  0.3414
 3481TIP3    H210408   6.443   4.559   2.286  0.6825 -0.9671 -0.1323
 3482TIP3   OH210409   4.871   5.987   0.851 -0.5343  0.0069  0.1145
 3482TIP3    H110410   4.906   5.924   0.914 -1.2470  0.0054  0.5067
 3482TIP3    H210411   4.862   6.068   0.901 -0.7440  0.1046 -0.0818
 3483TIP3   OH210412   2.963   0.604   3.205 -0.2791 -0.4215  0.7141
 3483TIP3    H110413   2.921   0.688   3.183  0.6057  0.1591  1.1711
 3483TIP3    H210414   3.050   0.629   3.236  0.5685 -1.6317 -0.6079
 3484TIP3   OH210415   0.268   5.431   3.549  0.1863  0.1374 -0.9969
 3484TIP3    H110416   0.205   5.362   3.571  0.2844  0.3388 -0.0583
 3484TIP3    H210417   0.231   5.472   3.471 -0.7414  0.1094 -0.5923
 3485TIP3   OH210418   2.807   3.987   1.162  0.0387  0.7126 -0.0094
 3485TIP3    H110419   2.866   3.978   1.087  1.7388 -1.6302  1.4607
 3485TIP3    H210420   2.841   4.062   1.211  1.4314 -0.1734  0.4359
 3486TIP3   OH210421   6.535   5.780   0.102 -0.1262 -0.0874 -0.2576
 3486TIP3    H110422   6.600   5.754   0.167 -0.2641  1.0306  0.3667
 3486TIP3    H210423   6.459   5.806   0.154  0.0803  1.7046 -0.7896
 3487TIP3   OH210424   7.137   5.934   3.919  0.0115 -0.0440 -0.2899
 3487TIP3    H110425   7.168   5.893   3.999  0.6520 -0.9997 -1.0118
 3487TIP3    H210426   7.195   6.010   3.907 -0.0520  0.0697  0.1100
 3488TIP3   OH210427   5.206   5.097   1.633  0.1973  0.4557 -0.4830
 3488TIP3    H110428   5.232   5.170   1.688  0.5445 -1.6294  2.3510
 3488TIP3    H210429   5.111   5.094   1.640  0.3513 -1.8291  3.1408
 3489TIP3   OH210430   2.681   1.545   2.448 -0.1458  0.4192  0.6319
 3489TIP3    H110431   2.640   1.607   2.508 -0.2996 -1.1492  2.2061
 3489TIP3    H210432   2.775   1.561   2.459 -0.1815  0.3248  1.1038
 3490TIP3   OH210433   2.245   5.533   4.758 -0.5215  0.5086  0.0683
 3490TIP3    H110434   2.286   5.530   4.671 -1.8103 -1.1293 -0.5540
 3490TIP3    H210435   2.318   5.536   4.819  0.5269 -1.0863 -1.0241
 3491TIP3   OH210436   0.273   4.619   3.775  0.6390  0.5559 -0.3071
 3491TIP3    H110437   0.265   4.581   3.687 -1.1751 -3.8512  1.4423
 3491TIP3    H210438   0.355   4.585   3.809  0.2368  0.2946  0.4372
 3492TIP3   OH210439   5.524   0.932   0.972 -0.2368  0.3308 -0.6202
 3492TIP3    H110440   5.579   1.010   0.983 -1.2704  0.8978  0.8966
 3492TIP3    H210441   5.437   0.960   1.000 -0.7135 -1.2667 -0.4157
 3493TIP3   OH210442   1.263   2.021   0.506  0.1892  0.2975 -0.1626
 3493TIP3    H110443   1.258   2.030   0.601  2.9587 -1.2999  0.2577
 3493TIP3    H210444   1.292   2.107   0.475  0.2086  0.5619  0.5660
 3494TIP3   OH210445   0.940   4.568   5.374 -0.3586  0.3990 -0.3293
 3494TIP3    H110446   0.857   4.544   5.415 -0.3730 -0.0757 -0.6247
 3494TIP3    H210447   0.922   4.560   5.280 -0.5615  2.2389 -0.4699
 3495TIP3   OH210448   2.370   6.707   1.744 -0.1542  0.3787 -0.4173
 3495TIP3    H110449   2.408   6.619   1.736  0.3221  0.6461 -1.1222
 3495TIP3    H210450   2.326   6.706   1.829 -0.8260 -0.8021 -0.7535
 3496TIP3   OH210451   1.337   5.396   2.933  0.1863 -0.2492 -0.5745
 3496TIP3    H110452   1.430   5.412   2.922  0.1779  1.5892  1.3138
 3496TIP3    H210453   1.332   5.308   2.970  1.3390  0.2473  0.8644
 3497TIP3   OH210454   4.183   6.182   1.550 -0.5019  0.1655 -0.8675
 3497TIP3    H110455   4.185   6.210   1.458 -0.1506  1.0116 -0.6162
 3497TIP3    H210456   4.272   6.152   1.567  0.3451  2.8643  0.0067
 3498TIP3   OH210457   6.093   5.963   2.568  0.4328 -0.3192 -0.5300
 3498TIP3    H110458   6.130   5.931   2.650 -1.4594 -2.4405 -0.4130
 3498TIP3    H210459   5.999   5.951   2.577  0.0479  0.6646 -2.5274
 3499TIP3   OH210460   5.761   4.195   5.661  0.3110  0.4812 -0.1343
 3499TIP3    H110461   5.682   4.159   5.621  0.6603 -1.5742  0.8721
 3499TIP3    H210462   5.829   4.130   5.642  1.3096  1.2572  0.6655
 3500TIP3   OH210463   0.450   1.604   2.269  0.1575  0.8071 -0.0415
 3500TIP3    H110464   0.539   1.582   2.295  1.0406  2.6219 -1.2923
 3500TIP3    H210465   0.425   1.535   2.207  1.2587  1.0492 -0.7830
 3501TIP3   OH210466   2.923   5.784   0.133 -0.2997  0.3424  0.1116
 3501TIP3    H110467   2.987   5.848   0.104  0.3835 -0.7311 -0.8152
 3501TIP3    H210468   2.971   5.730   0.197 -0.5447  0.0943  0.0870
 3502TIP3   OH210469   6.780   4.272   1.598  0.4800 -0.0551 -0.4960
 3502TIP3    H110470   6.767   4.184   1.633 -1.0004  0.8673  1.5436
 3502TIP3    H210471   6.874   4.286   1.601  0.7069 -1.4407 -0.5541
 3503TIP3   OH210472   3.475   3.450   0.600  0.5409  0.1338 -0.3554
 3503TIP3    H110473   3.557   3.428   0.556  0.2711 -1.2578 -0.1961
 3503TIP3    H210474   3.476   3.397   0.680 -0.5269  0.0881 -0.3599
 3504TIP3   OH210475   1.262   2.574   4.312  0.2333  0.1130 -0.3981
 3504TIP3    H110476   1.277   2.566   4.217 -0.7181  1.1978 -0.6532
 3504TIP3    H210477   1.197   2.644   4.321 -1.0125 -1.1527  0.9627
 3505TIP3   OH210478   2.645   0.188   2.778  0.2014 -0.1143 -0.2817
 3505TIP3    H110479   2.612   0.119   2.836  1.6533 -1.3090 -0.8050
 3505TIP3    H210480   2.567   0.237   2.753 -0.4177  0.9854  3.2508
 3506TIP3   OH210481   1.550   6.653   0.797 -0.7984 -0.2921  0.2781
 3506TIP3    H110482   1.511   6.630   0.713  0.5147 -1.1747 -0.1180
 3506TIP3    H210483   1.496   6.607   0.862  0.0109 -2.1552 -0.3142
 3507TIP3   OH210484   0.668   6.501   1.355  0.4913 -0.4841 -0.1615
 3507TIP3    H110485   0.638   6.410   1.365 -0.2906 -0.1716  0.4742
 3507TIP3    H210486   0.598   6.543   1.305  0.2771  0.0459  0.5708
 3508TIP3   OH210487   3.985   6.658   2.322 -0.4660  0.2089  0.4353
 3508TIP3    H110488   4.042   6.730   2.295  1.7135 -1.0089  1.4994
 3508TIP3    H210489   3.976   6.668   2.416 -0.0885 -0.8861  0.6119
 3509TIP3   OH210490   2.057   3.947   4.038 -0.0565 -0.5689 -0.0842
 3509TIP3    H110491   2.089   3.900   3.961  1.4409 -1.2875  0.9233
 3509TIP3    H210492   2.040   3.878   4.103  0.4181  0.1224  0.8064
 3510TIP3   OH210493   7.155   2.744   2.777  0.3656 -0.7731  0.0980
 3510TIP3    H110494   7.099   2.749   2.854  0.3178  1.2747 -0.0135
 3510TIP3    H210495   7.096   2.755   2.702  0.2480 -3.8045 -0.3946
 3511TIP3   OH210496   1.901   0.274   1.778 -0.1337  0.0434 -0.1610
 3511TIP3    H110497   1.899   0.180   1.796  0.2973  0.3180  1.3996
 3511TIP3    H210498   1.911   0.315   1.863  0.9079  1.4664 -0.9264
 3512TIP3   OH210499   3.005   4.409   2.904 -0.3757  0.1895 -0.0788
 3512TIP3    H110500   3.082   4.358   2.929 -1.2742 -0.2992  1.8126
 3512TIP3    H210501   2.954   4.418   2.984 -1.8354  1.3298 -1.0757
 3513TIP3   OH210502   2.491   1.072   2.940 -0.1695  0.2022 -0.2047
 3513TIP3    H110503   2.502   1.128   2.863 -0.3389  0.6614  0.0986
 3513TIP3    H210504   2.552   1.108   3.004  0.0365 -0.2367 -0.1500
 3514TIP3   OH210505   5.990   4.975   1.276  0.0004 -0.1049 -0.4176
 3514TIP3    H110506   5.995   4.951   1.183  2.5642  0.6537 -0.5330
 3514TIP3    H210507   5.944   5.059   1.276  0.1665 -0.0119 -1.0172
 3515TIP3   OH210508   5.838   3.836   2.583 -0.6652  0.6361 -0.2166
 3515TIP3    H110509   5.757   3.803   2.543  0.5550  0.9735 -3.2367
 3515TIP3    H210510   5.889   3.757   2.603 -0.6390  0.4967 -0.8280
 3516TIP3   OH210511   4.499   2.458   0.071 -0.0245  0.0586  0.5680
 3516TIP3    H110512   4.479   2.541   0.113  0.0705  0.6187 -0.4670
 3516TIP3    H210513   4.464   2.466  -0.017 -0.9313 -1.3973  0.7485
 3517TIP3   OH210514   5.923   4.654   4.431 -0.5244  0.2714 -0.5045
 3517TIP3    H110515   5.904   4.571   4.386 -0.8554  0.2810 -0.3880
 3517TIP3    H210516   5.847   4.709   4.413  0.8916  1.6089 -2.9681
 3518TIP3   OH210517   6.534   0.747   4.007 -0.1108  0.1667  0.0669
 3518TIP3    H110518   6.531   0.722   3.915 -0.5435  0.1627  0.0771
 3518TIP3    H210519   6.528   0.664   4.054 -1.5011  0.2517  0.1013
 3519TIP3   OH210520   2.136   3.260   1.723 -0.5938 -0.3909 -0.1571
 3519TIP3    H110521   2.082   3.215   1.658  1.1360 -1.5934 -0.8492
 3519TIP3    H210522   2.226   3.249   1.691  0.0468  2.4573  0.3573
 3520TIP3   OH210523   0.045   1.383   3.580  0.4862 -0.3674  0.5510
 3520TIP3    H110524  -0.039   1.417   3.549 -0.2418 -2.0759  0.5228
 3520TIP3    H210525   0.110   1.431   3.529 -0.4076  1.5104  1.0811
 3521TIP3   OH210526   2.400   0.750   4.956  0.5773 -0.8414  0.0929
 3521TIP3    H110527   2.349   0.724   5.033  0.1297  1.1821  0.5471
 3521TIP3    H210528   2.452   0.673   4.935  0.6062 -1.5273  2.3512
 3522TIP3   OH210529   1.673   3.908   0.822 -0.6380  0.2447  0.9129
 3522TIP3    H110530   1.767   3.891   0.819 -0.8672 -0.9556 -0.7382
 3522TIP3    H210531   1.639   3.841   0.882 -0.7026 -0.9295 -0.3802
 3523TIP3   OH210532   6.770   6.652   0.449  0.5010 -0.2947  0.3528
 3523TIP3    H110533   6.848   6.701   0.424  0.8992 -0.9659  0.2394
 3523TIP3    H210534   6.705   6.719   0.471  1.5040  0.2818  1.6846
 3524TIP3   OH210535   3.373   5.572   2.514  0.5952 -0.4172  0.2090
 3524TIP3    H110536   3.289   5.542   2.479  0.6105 -0.6649  0.3833
 3524TIP3    H210537   3.403   5.501   2.570 -0.0268  0.4582  1.7201
 3525TIP3   OH210538   2.509   0.269   4.954 -0.2479  0.1917 -0.5266
 3525TIP3    H110539   2.538   0.297   5.041  0.5425 -1.4184 -0.2401
 3525TIP3    H210540   2.421   0.236   4.967 -1.0952  2.1802 -0.8236
 3526TIP3   OH210541   3.134   3.084   1.239 -0.0773  0.2662  0.3581
 3526TIP3    H110542   3.067   3.016   1.253  0.5450 -1.0408 -2.3507
 3526TIP3    H210543   3.104   3.130   1.160 -0.3088  3.0424  1.9473
 3527TIP3   OH210544   0.404   1.204   0.431  0.9455 -0.1903  0.0814
 3527TIP3    H110545   0.367   1.117   0.444  0.3816  0.0921  0.4046
 3527TIP3    H210546   0.466   1.214   0.504 -0.0126  0.2156  0.8577
 3528TIP3   OH210547   3.828   2.964   5.233 -0.0855  0.1048  0.6711
 3528TIP3    H110548   3.841   3.059   5.237 -0.6011  0.2861 -0.9325
 3528TIP3    H210549   3.766   2.952   5.161 -0.7939 -1.3946  1.4852
 3529TIP3   OH210550   5.308   3.033   3.035  0.4987 -0.2027 -0.5125
 3529TIP3    H110551   5.395   3.005   3.006  2.2930  1.5535  2.5889
 3529TIP3    H210552   5.307   3.014   3.129 -1.9327  1.1334 -0.1893
 3530TIP3   OH210553   0.223   2.574   3.036  0.2862  0.2715 -0.1755
 3530TIP3    H110554   0.209   2.549   2.945  2.5472  1.4135 -0.9182
 3530TIP3    H210555   0.167   2.651   3.049 -0.9456 -0.5975 -0.1970
 3531TIP3   OH210556   1.902   0.946   3.405 -0.0773  0.5426 -0.1902
 3531TIP3    H110557   1.864   0.859   3.392 -0.5554  0.6518  0.4557
 3531TIP3    H210558   1.996   0.931   3.400 -0.1674  0.1779 -1.2259
 3532TIP3   OH210559   0.975   5.329   2.241  0.5768 -0.4133  0.1286
 3532TIP3    H110560   1.068   5.353   2.250  1.5155 -2.6431 -2.3161
 3532TIP3    H210561   0.939   5.396   2.184  1.4210 -0.9470 -1.0819
 3533TIP3   OH210562   4.379   3.869   5.466 -0.0304  0.3116 -0.6525
 3533TIP3    H110563   4.443   3.908   5.525 -1.6487  1.0295  0.7303
 3533TIP3    H210564   4.407   3.778   5.456  2.2831  1.0902 -1.7312
 3534TIP3   OH210565   6.023   1.678   5.040 -0.0344 -0.3746 -0.5168
 3534TIP3    H110566   5.959   1.748   5.025 -0.1728 -0.2163  0.7180
 3534TIP3    H210567   6.107   1.719   5.020 -0.2995 -0.7504 -2.7351
 3535TIP3   OH210568   1.005   2.407   1.219  0.8476  0.3483 -0.3086
 3535TIP3    H110569   0.915   2.372   1.218  1.1698 -0.5588 -1.9737
 3535TIP3    H210570   0.998   2.489   1.267 -0.8164  0.1416 -0.1132
 3536TIP3   OH210571   6.464   1.923   0.862 -0.5583  0.4430 -0.0351
 3536TIP3    H110572   6.521   1.997   0.844 -0.1055  0.0461 -0.2606
 3536TIP3    H210573   6.515   1.866   0.919  0.1263 -0.9431 -1.9309
 3537TIP3   OH210574   2.624   3.738   4.531  0.0326 -0.4220  0.1666
 3537TIP3    H110575   2.603   3.827   4.502 -1.0547 -0.9610 -0.7691
 3537TIP3    H210576   2.618   3.742   4.627 -2.5319 -0.0486  0.0542
 3538TIP3   OH210577   2.341   2.202   2.322  0.0139 -0.3054  0.6933
 3538TIP3    H110578   2.396   2.265   2.277  2.2204  0.4153  4.0421
 3538TIP3    H210579   2.273   2.254   2.364 -0.4627 -0.6390  0.3442
 3539TIP3   OH210580   4.768   4.756   2.426 -0.2355  0.2843  0.8188
 3539TIP3    H110581   4.681   4.715   2.422  0.0218 -0.1925 -0.1419
 3539TIP3    H210582   4.758   4.826   2.490 -1.4604  0.5289  0.3869
 3540TIP3   OH210583   3.343   4.167   3.421  0.0995 -0.3484  0.4629
 3540TIP3    H110584   3.268   4.140   3.474  1.6334 -2.9880  1.5075
 3540TIP3    H210585   3.310   4.240   3.368 -2.9301 -0.8728  1.4095
 3541TIP3   OH210586   1.201   2.196   3.843 -0.4643  0.2547  0.1767
 3541TIP3    H110587   1.266   2.265   3.859 -1.3629  0.4302  4.1527
 3541TIP3    H210588   1.117   2.238   3.863 -1.2847 -1.2942  0.0998
 3542TIP3   OH210589   0.752   6.383   0.347 -0.1900  0.2845 -0.0958
 3542TIP3    H110590   0.706   6.343   0.421 -0.7398  0.4719 -0.3318
 3542TIP3    H210591   0.692   6.451   0.316 -1.0791 -1.3697 -2.2534
 3543TIP3   OH210592   6.400   3.881   5.283  0.0185  0.6922  0.4221
 3543TIP3    H110593   6.414   3.898   5.190  0.2692  0.9513  0.5041
 3543TIP3    H210594   6.310   3.849   5.288 -0.2979  1.5036  0.1889
 3544TIP3   OH210595   1.156   1.041   2.173 -0.2469  0.4221 -0.6074
 3544TIP3    H110596   1.221   1.087   2.120 -1.2315  2.0269 -0.5186
 3544TIP3    H210597   1.180   1.062   2.264  1.4333 -2.3087 -0.3104
 3545TIP3   OH210598   4.891   1.432   1.550  1.3243 -0.2459 -0.0038
 3545TIP3    H110599   4.896   1.527   1.560  1.6545 -0.2810  0.2004
 3545TIP3    H210600   4.980   1.401   1.568  1.0980 -0.6426  0.4662
 3546TIP3   OH210601   1.325   5.414   1.470  0.3593  0.4681  0.5663
 3546TIP3    H110602   1.376   5.380   1.543 -0.5977 -0.1775  0.9650
 3546TIP3    H210603   1.354   5.363   1.394  0.0186 -0.2021  0.8740
 3547TIP3   OH210604   6.652   5.363   0.683  0.3996  0.4419 -0.4143
 3547TIP3    H110605   6.655   5.448   0.638  0.2183  1.0237  0.6427
 3547TIP3    H210606   6.683   5.381   0.771  2.6951 -1.0696 -0.8248
 3548TIP3   OH210607   3.784   0.551   3.702  0.1608  0.0321  0.3177
 3548TIP3    H110608   3.830   0.597   3.632 -1.6477 -0.0279 -0.9541
 3548TIP3    H210609   3.802   0.458   3.687  0.7564  0.0806  0.6789
 3549TIP3   OH210610   6.108   5.595   3.094  0.2646  0.2764  0.0879
 3549TIP3    H110611   6.166   5.519   3.086 -0.5215 -0.4846  1.1673
 3549TIP3    H210612   6.031   5.571   3.043 -0.9427 -0.6931  2.2175
 3550TIP3   OH210613   4.741   4.207   4.971 -0.4809 -0.0751 -0.1288
 3550TIP3    H110614   4.661   4.258   4.958 -1.2290 -0.3936  2.5898
 3550TIP3    H210615   4.710   4.118   4.986  0.5340 -0.5662 -0.8608
 3551TIP3   OH210616   4.449   5.268   0.289 -0.4162  0.9368  0.0846
 3551TIP3    H110617   4.446   5.187   0.339  1.4280  0.0606 -1.0903
 3551TIP3    H210618   4.526   5.259   0.233 -1.0470  2.8459 -1.2212
 3552TIP3   OH210619   5.287   0.492   4.873  0.4553  0.3878  0.0286
 3552TIP3    H110620   5.248   0.414   4.833  0.6389  0.1265  0.3536
 3552TIP3    H210621   5.357   0.518   4.812  0.2908  0.3922 -0.1584
 3553TIP3   OH210622   5.485   4.312   3.770  0.1603  0.1459  0.1175
 3553TIP3    H110623   5.576   4.333   3.748 -0.4229  1.3742 -1.2245
 3553TIP3    H210624   5.454   4.259   3.697 -0.7307  1.2669 -0.3452
 3554TIP3   OH210625   5.684   6.286   2.279 -0.5905  0.1363 -0.0972
 3554TIP3    H110626   5.763   6.286   2.334 -0.9492 -0.2800  0.4322
 3554TIP3    H210627   5.663   6.193   2.268 -2.4392  0.2440  1.8864
 3555TIP3   OH210628   4.671   1.420   2.184  0.2041  0.3145 -0.1184
 3555TIP3    H110629   4.758   1.382   2.194  0.2313  0.7855  1.8784
 3555TIP3    H210630   4.617   1.348   2.151  1.7349  0.6045 -3.7093
 3556TIP3   OH210631   6.534   4.295   0.891 -0.3026  0.7407 -0.5914
 3556TIP3    H110632   6.464   4.328   0.947 -1.6462 -0.3864 -1.5378
 3556TIP3    H210633   6.553   4.369   0.833 -0.3476  1.2303  0.0067
 3557TIP3   OH210634   1.973   2.863   1.258  0.2015  0.1935  0.6925
 3557TIP3    H110635   2.019   2.818   1.186 -1.4448  0.0701 -0.3370
 3557TIP3    H210636   1.971   2.799   1.329  1.7278  0.2616  0.8353
 3558TIP3   OH210637   5.503   3.549   1.708  0.0212 -0.2223 -0.0093
 3558TIP3    H110638   5.572   3.616   1.701 -1.5312  1.3454 -1.0691
 3558TIP3    H210639   5.449   3.578   1.781  0.2573 -1.2787  0.6102
 3559TIP3   OH210640   3.819   2.871   1.217 -0.2351  0.4060  0.1802
 3559TIP3    H110641   3.844   2.940   1.156  0.4540 -1.0195 -1.2270
 3559TIP3    H210642   3.723   2.867   1.211 -0.1344 -0.2989 -1.5578
 3560TIP3   OH210643   6.653   1.790   5.717 -0.0249 -0.0420 -0.4191
 3560TIP3    H110644   6.629   1.872   5.673 -0.4815  0.6588  1.0790
 3560TIP3    H210645   6.569   1.746   5.732  0.0591  0.0372  0.3114
 3561TIP3   OH210646   0.191   2.917   4.690  0.5868 -0.1748  0.3190
 3561TIP3    H110647   0.238   2.835   4.674 -0.4202 -0.7451  0.2199
 3561TIP3    H210648   0.099   2.896   4.674  0.4757  1.4193 -1.3997
 3562TIP3   OH210649   3.879   3.660   4.066 -0.4091 -0.1714  0.0581
 3562TIP3    H110650   3.914   3.638   3.980 -0.4937 -1.1526  0.2629
 3562TIP3    H210651   3.848   3.576   4.101  0.5751  0.0347  1.4783
 3563TIP3   OH210652   2.055   4.908   2.008 -0.1603 -0.6124  0.3606
 3563TIP3    H110653   2.130   4.892   2.064  1.3875  0.9192 -1.1485
 3563TIP3    H210654   2.020   4.992   2.038  0.5603  0.1213 -0.7540
 3564TIP3   OH210655   1.584   2.382   2.483  0.0014 -0.2404 -0.5480
 3564TIP3    H110656   1.544   2.300   2.455 -1.5322  0.2524  0.1290
 3564TIP3    H210657   1.530   2.412   2.556  0.5696  1.3426 -0.7387
 3565TIP3   OH210658   1.514   4.106   3.125 -0.3693 -0.0304 -0.4211
 3565TIP3    H110659   1.572   4.053   3.180 -0.5288  0.3655  0.1310
 3565TIP3    H210660   1.468   4.042   3.070 -0.9162 -0.5145  0.5691
 3566TIP3   OH210661   3.780   0.915   0.612 -0.3553  0.2874 -0.1527
 3566TIP3    H110662   3.837   0.981   0.572  2.5134 -2.2794 -0.6668
 3566TIP3    H210663   3.773   0.941   0.703  2.0625  0.5204  0.0283
 3567TIP3   OH210664   5.653   4.099   1.779 -0.3371 -0.3825 -0.3907
 3567TIP3    H110665   5.717   4.084   1.709 -1.4724  0.2181 -1.6074
 3567TIP3    H210666   5.661   4.192   1.798 -0.9078 -0.2799 -0.6304
 3568TIP3   OH210667   5.680   4.765   4.335 -0.8018 -0.4621  0.2313
 3568TIP3    H110668   5.617   4.726   4.396 -0.7439  0.2997  0.7979
 3568TIP3    H210669   5.691   4.855   4.366 -0.4541 -0.1811 -0.6675
 3569TIP3   OH210670   5.669   3.666   4.857 -0.0374 -0.2284 -0.2807
 3569TIP3    H110671   5.746   3.615   4.832  0.4289  0.1829  0.2927
 3569TIP3    H210672   5.704   3.743   4.900 -0.7702  0.0843 -0.2234
 3570TIP3   OH210673   5.452   1.602   4.578  0.0641  0.1443  0.0861
 3570TIP3    H110674   5.492   1.671   4.524 -1.7626 -0.1124 -1.7164
 3570TIP3    H210675   5.370   1.640   4.608 -0.5463 -0.9188 -0.2020
 3571TIP3   OH210676   5.004   3.147   0.239 -0.0719  0.5770  0.3082
 3571TIP3    H110677   5.067   3.207   0.198  0.2749 -0.2952 -0.4963
 3571TIP3    H210678   5.059   3.085   0.288 -0.2845 -0.1016 -0.2821
 3572TIP3   OH210679   2.947   6.270   5.879  0.1170 -0.4044 -0.2093
 3572TIP3    H110680   2.904   6.354   5.897  0.2238 -0.2780 -0.5386
 3572TIP3    H210681   2.876   6.211   5.855 -0.0132 -0.5371  0.4863
 3573TIP3   OH210682   2.609   5.639   5.027  0.5157 -0.2322 -0.5141
 3573TIP3    H110683   2.665   5.585   5.083  0.0753 -0.2985 -0.1335
 3573TIP3    H210684   2.609   5.592   4.943  0.9533 -0.2800 -0.4916
 3574TIP3   OH210685   5.369   5.151   5.048  0.2682  0.2383  0.2282
 3574TIP3    H110686   5.367   5.202   4.967 -1.7453 -0.9100 -0.5036
 3574TIP3    H210687   5.376   5.217   5.117  0.2767  1.3330 -0.7783
 3575TIP3   OH210688   4.064   1.242   0.109 -0.2548  0.2861 -0.2342
 3575TIP3    H110689   4.024   1.328   0.106  0.1247  0.4818  0.1693
 3575TIP3    H210690   4.026   1.195   0.034 -2.7973 -0.2482  1.2770
 3576TIP3   OH210691   3.787   0.379   0.722 -0.1375  0.4166  0.6673
 3576TIP3    H110692   3.738   0.306   0.687  0.6137  0.7370 -1.1422
 3576TIP3    H210693   3.876   0.345   0.736  0.3924  1.1035 -0.8106
 3577TIP3   OH210694   3.585   0.488   1.188 -0.2219  0.4600 -0.2335
 3577TIP3    H110695   3.490   0.492   1.204 -0.1471  0.1476  0.2977
 3577TIP3    H210696   3.599   0.400   1.152 -0.0955  0.3990 -0.0385
 3578TIP3   OH210697   0.099   0.810   3.561 -0.4033 -0.2161  0.5382
 3578TIP3    H110698   0.148   0.890   3.543 -3.1536  2.0035  2.0439
 3578TIP3    H210699   0.069   0.820   3.652 -0.0790 -3.4636  1.1246
 3579TIP3   OH210700   5.852   5.590   3.857 -0.2246  0.1916 -0.8630
 3579TIP3    H110701   5.903   5.511   3.877 -1.3944 -0.1913  0.9063
 3579TIP3    H210702   5.910   5.663   3.880  0.2060 -0.1894 -0.7187
 3580TIP3   OH210703   2.589   1.533   2.188  0.2562  0.7100 -0.6378
 3580TIP3    H110704   2.643   1.532   2.267 -0.3846  1.6285 -0.1600
 3580TIP3    H210705   2.509   1.487   2.214  0.8115 -0.7060 -1.3602
 3581TIP3   OH210706   6.120   6.328   1.269 -0.2831 -0.6064 -0.4668
 3581TIP3    H110707   6.065   6.406   1.264  0.0685 -0.2106  1.1487
 3581TIP3    H210708   6.079   6.265   1.209 -1.5497  0.2231 -0.5061
 3582TIP3   OH210709   3.328   5.431   2.801 -0.1759 -0.3655  0.6741
 3582TIP3    H110710   3.291   5.464   2.719 -0.8586  1.8932  1.8222
 3582TIP3    H210711   3.254   5.429   2.861  1.0087  1.8176  2.3146
 3583TIP3   OH210712   3.443   4.013   3.183 -0.0523 -0.4656 -0.1385
 3583TIP3    H110713   3.422   4.052   3.267  0.3465 -0.3763 -0.0778
 3583TIP3    H210714   3.358   3.996   3.142 -0.2339  0.1594 -0.0299
 3584TIP3   OH210715   2.646   5.015   5.803  0.1302  0.1842 -0.0983
 3584TIP3    H110716   2.714   4.951   5.780  0.2084 -0.2365  1.2113
 3584TIP3    H210717   2.609   5.042   5.719  0.2093 -1.4741 -0.7029
 3585TIP3   OH210718   6.580   1.071   2.861 -0.3243 -0.3503 -0.3189
 3585TIP3    H110719   6.536   1.137   2.807 -1.2147 -1.5331 -1.0961
 3585TIP3    H210720   6.624   1.015   2.797 -0.7626 -1.3288  0.2179
 3586TIP3   OH210721   5.698   4.255   4.625 -0.6525  0.0901 -0.6432
 3586TIP3    H110722   5.695   4.161   4.639 -2.8455  0.2588  0.5524
 3586TIP3    H210723   5.668   4.268   4.535 -3.5484 -0.2824  0.1688
 3587TIP3   OH210724   1.148   3.632   5.816 -0.1594  0.4073 -0.3848
 3587TIP3    H110725   1.105   3.546   5.808 -0.6796  0.5715  0.5846
 3587TIP3    H210726   1.237   3.616   5.785 -0.7784 -0.0190 -2.1005
 3588TIP3   OH210727   5.375   0.532   0.885  0.1919 -0.2291  0.0718
 3588TIP3    H110728   5.345   0.528   0.976 -1.0150 -0.0359 -0.2949
 3588TIP3    H210729   5.396   0.624   0.871  1.8373 -0.4956  0.5742
 3589TIP3   OH210730   6.236   1.436   4.055 -0.3686 -0.1299  0.1501
 3589TIP3    H110731   6.185   1.510   4.024 -1.6235 -0.3201  1.5897
 3589TIP3    H210732   6.218   1.432   4.149  1.5783 -0.8123  0.5488
 3590TIP3   OH210733   6.884   2.097   5.780 -0.9125  0.3424 -0.3774
 3590TIP3    H110734   6.942   2.123   5.851 -1.1874 -0.3521  0.1010
 3590TIP3    H210735   6.941   2.054   5.716 -0.9329 -0.6110  0.2288
 3591TIP3   OH210736   0.814   1.536   2.109  0.2640 -0.0791  0.0352
 3591TIP3    H110737   0.775   1.547   2.023  0.7587 -0.6557 -0.2687
 3591TIP3    H210738   0.857   1.619   2.127  1.0570 -0.2999 -0.7443
 3592TIP3   OH210739   1.733   4.095   2.922 -0.0273 -0.5917 -0.0425
 3592TIP3    H110740   1.699   4.160   2.982 -0.2457 -0.3193 -0.4581
 3592TIP3    H210741   1.656   4.062   2.875  0.0276 -1.4397  0.4463
 3593TIP3   OH210742   6.650   4.599   0.244 -0.1711  0.9752  0.4267
 3593TIP3    H110743   6.610   4.512   0.250 -0.8751  0.8277 -3.5883
 3593TIP3    H210744   6.734   4.584   0.202  0.0968  2.1898  0.4793
 3594TIP3   OH210745   0.629   4.960   1.762 -0.5450  0.0359 -0.4369
 3594TIP3    H110746   0.560   4.977   1.698  0.5859  0.9173 -1.4585
 3594TIP3    H210747   0.692   4.905   1.715 -0.7013 -1.0665  0.5992
 3595TIP3   OH210748   5.359   4.303   2.482 -0.5130  0.0168  0.1969
 3595TIP3    H110749   5.265   4.311   2.465 -0.8261  0.3671  1.9267
 3595TIP3    H210750   5.366   4.305   2.577  1.3934  1.7031  0.0816
 3596TIP3   OH210751   4.435   4.453   2.741 -0.7113  0.5104 -0.5211
 3596TIP3    H110752   4.377   4.383   2.768 -1.7935  1.1406 -1.1541
 3596TIP3    H210753   4.412   4.470   2.649  0.7075  0.5453 -0.9079
 3597TIP3   OH210754   4.897   1.584   2.350  0.2219 -0.0167 -0.4859
 3597TIP3    H110755   4.833   1.515   2.368  0.7546 -0.8731 -1.7604
 3597TIP3    H210756   4.879   1.651   2.416 -0.9087 -0.9626  0.2026
 3598TIP3   OH210757   5.687   2.497   1.878  0.1329 -0.2256 -0.0051
 3598TIP3    H110758   5.700   2.575   1.931  2.0014 -1.8168  2.0362
 3598TIP3    H210759   5.599   2.507   1.842 -0.0005  2.3907  0.8773
 3599TIP3   OH210760   1.828   1.834   2.985  0.0358 -0.1618  0.0072
 3599TIP3    H110761   1.908   1.783   2.977  0.0210 -0.0935 -0.6049
 3599TIP3    H210762   1.767   1.775   3.030  0.4941 -0.1314  0.6845
 3600TIP3   OH210763   2.315   1.845   5.128  0.1376 -0.0519 -0.0856
 3600TIP3    H110764   2.257   1.915   5.156 -2.2012 -1.3636 -1.3379
 3600TIP3    H210765   2.348   1.807   5.209 -1.4604  0.1891  0.7177
 3601TIP3   OH210766   6.587   4.530   0.751  0.0059  0.0565 -0.1157
 3601TIP3    H110767   6.652   4.577   0.803 -0.8157 -0.0459  1.0364
 3601TIP3    H210768   6.547   4.597   0.696  0.0699  0.3936  0.2396
 3602TIP3   OH210769   7.059   4.053   0.808  0.0245  0.0600 -0.0727
 3602TIP3    H110770   6.982   4.056   0.864 -0.5439  0.9159 -0.8627
 3602TIP3    H210771   7.062   4.139   0.766  2.0973  0.4852  0.7985
 3603TIP3   OH210772   1.004   0.855   0.501 -0.0077 -0.1169  0.3712
 3603TIP3    H110773   0.938   0.821   0.562 -0.1258  1.7058  1.3065
 3603TIP3    H210774   0.953   0.899   0.433  0.2107  0.2869  0.4692
 3604TIP3   OH210775   1.950   4.019   3.470  0.3467  0.2919  0.1488
 3604TIP3    H110776   1.973   3.957   3.400  0.8949  2.2190 -1.4617
 3604TIP3    H210777   1.857   4.002   3.487 -0.0898  0.4607 -1.8141
 3605TIP3   OH210778   2.471   6.381   1.082  0.0980 -0.2530  0.4713
 3605TIP3    H110779   2.437   6.309   1.029  0.0352 -0.2426  0.4968
 3605TIP3    H210780   2.419   6.377   1.163 -1.9471  1.6178 -0.6515
 3606TIP3   OH210781   5.590   5.301   1.664  0.1900 -0.1953 -0.4888
 3606TIP3    H110782   5.497   5.311   1.644  0.1534 -0.4007 -0.4288
 3606TIP3    H210783   5.594   5.289   1.759  0.4810  2.1627 -0.1413
 3607TIP3   OH210784   0.125   5.251   1.961 -0.5835 -0.1138 -0.1078
 3607TIP3    H110785   0.157   5.338   1.984  2.1777 -1.0923  0.1099
 3607TIP3    H210786   0.062   5.230   2.030 -1.6844  1.8500 -0.4376
 3608TIP3   OH210787   4.330   6.213   0.508 -0.2517 -0.4798  0.2424
 3608TIP3    H110788   4.331   6.133   0.455  0.9269 -0.8249  0.7370
 3608TIP3    H210789   4.396   6.270   0.468  0.6022 -0.7154  1.2532
 3609TIP3   OH210790   2.336   1.974   2.768 -0.2610  0.1040  0.0603
 3609TIP3    H110791   2.321   2.048   2.827  1.3615  1.3640 -1.0302
 3609TIP3    H210792   2.278   1.991   2.694 -0.2529 -0.0009  0.0298
 3610TIP3   OH210793   1.884   5.090   1.107 -0.5196 -0.1896  0.8034
 3610TIP3    H110794   1.976   5.066   1.098 -1.0471 -1.7458 -0.8918
 3610TIP3    H210795   1.874   5.168   1.052 -0.6335 -1.2666 -0.7555
 3611TIP3   OH210796   4.247   3.425   0.900 -1.0465 -0.1101  0.1713
 3611TIP3    H110797   4.247   3.507   0.850 -1.4786 -0.2200 -0.0123
 3611TIP3    H210798   4.336   3.390   0.890 -1.6952 -1.2484 -2.3704
 3612TIP3   OH210799   0.985   5.527   0.263 -0.4286 -0.3989 -0.5564
 3612TIP3    H110800   0.926   5.596   0.232 -0.3962 -0.5392 -0.9368
 3612TIP3    H210801   1.069   5.547   0.221 -0.1111 -0.0206  0.2262
 3613TIP3   OH210802   0.918   4.873   4.078  0.0058  0.0270 -0.1227
 3613TIP3    H110803   0.903   4.842   4.167  2.3988 -0.0564  0.3192
 3613TIP3    H210804   0.909   4.968   4.084 -0.6549 -0.0399  0.0106
 3614TIP3   OH210805   3.588   3.158   3.660  0.2950  0.5039  0.5476
 3614TIP3    H110806   3.620   3.070   3.642  0.4030  0.7430 -0.5363
 3614TIP3    H210807   3.667   3.213   3.662  0.0678  1.0410 -1.8012
 3615TIP3   OH210808   2.404   5.768   3.517 -0.6493  0.6508  0.8908
 3615TIP3    H110809   2.333   5.779   3.581 -0.3603  0.0149  1.3434
 3615TIP3    H210810   2.480   5.809   3.558 -0.7084  1.1636  0.4904
 3616TIP3   OH210811   5.273   2.972   0.248 -0.1992  0.1310  0.2598
 3616TIP3    H110812   5.356   3.011   0.276  0.9540 -1.3597 -0.9111
 3616TIP3    H210813   5.252   2.910   0.317  0.2179 -0.2193  0.0817
 3617TIP3   OH210814   3.351   1.442   2.297  0.2133 -0.7215  0.2583
 3617TIP3    H110815   3.290   1.410   2.364 -0.8745 -0.7045 -0.7022
 3617TIP3    H210816   3.389   1.521   2.335 -2.0372  0.5573  0.0301
 3618TIP3   OH210817   0.910   3.992   0.223 -0.1479  0.1655  0.4903
 3618TIP3    H110818   0.956   3.908   0.230 -0.2448  0.0646  0.0018
 3618TIP3    H210819   0.838   3.975   0.162  0.3378  0.8114 -0.2863
 3619TIP3   OH210820   3.536   0.409   2.525  0.1375 -0.4957  0.8497
 3619TIP3    H110821   3.481   0.400   2.448  0.5191 -0.3088  0.5487
 3619TIP3    H210822   3.541   0.321   2.562 -0.2668 -0.5349  0.8166
 3620TIP3   OH210823   5.139   3.294   2.525 -0.0802  0.0715  0.2293
 3620TIP3    H110824   5.155   3.220   2.583 -0.9456  0.2345  0.6992
 3620TIP3    H210825   5.203   3.284   2.454  1.1039 -0.0380  1.2871
 3621TIP3   OH210826   3.218   3.167   5.451 -0.6154 -0.6352  0.6418
 3621TIP3    H110827   3.138   3.219   5.444  0.0098  0.1473 -1.4295
 3621TIP3    H210828   3.289   3.230   5.438  0.1681 -1.8971 -1.7682
 3622TIP3   OH210829   0.041   0.961   5.403  0.6252 -0.0094 -0.5208
 3622TIP3    H110830   0.039   0.867   5.385  2.4982  0.3167 -3.1217
 3622TIP3    H210831   0.133   0.980   5.421  0.2090  1.2690  0.4001
 3623TIP3   OH210832   6.730   0.298   2.072 -0.4251 -0.3138 -0.7467
 3623TIP3    H110833   6.707   0.382   2.033  0.2341 -0.1237 -0.7345
 3623TIP3    H210834   6.670   0.288   2.146  1.3944  1.5349  1.0920
 3624TIP3   OH210835   0.727   6.626   0.740  0.0602  0.3356 -0.0930
 3624TIP3    H110836   0.659   6.621   0.673 -0.5743 -3.1327  0.6127
 3624TIP3    H210837   0.806   6.652   0.693 -0.5359 -1.2471 -2.0655
 3625TIP3   OH210838   4.462   6.354   3.308 -0.0837 -0.1215  0.3095
 3625TIP3    H110839   4.511   6.273   3.295  0.8906  0.4761  0.1708
 3625TIP3    H210840   4.375   6.325   3.333  0.1089 -1.2147 -0.2288
 3626TIP3   OH210841   0.683   4.169   4.894  0.1563 -0.0560 -0.1211
 3626TIP3    H110842   0.776   4.178   4.870  0.0696  1.9961  0.0930
 3626TIP3    H210843   0.664   4.248   4.945 -1.4561 -0.9563  0.7399
 3627TIP3   OH210844   2.325   3.516   1.699  0.0469  0.2606  0.1921
 3627TIP3    H110845   2.314   3.505   1.793 -0.7872  3.8374  0.6358
 3627TIP3    H210846   2.243   3.553   1.668  1.1562  1.5198 -1.4635
 3628TIP3   OH210847   6.536   5.945   5.745  0.0135 -0.2957  0.0553
 3628TIP3    H110848   6.496   5.878   5.801 -0.0341  1.1508  1.8618
 3628TIP3    H210849   6.467   5.970   5.684 -0.6954 -0.3645  0.8047
 3629TIP3   OH210850   2.016   1.091   2.492 -0.4347  0.5103 -0.4390
 3629TIP3    H110851   2.091   1.056   2.539  0.0639  2.2503  0.1467
 3629TIP3    H210852   2.047   1.173   2.454 -1.4204  0.1624 -2.1195
 3630TIP3   OH210853   4.878   0.097   0.799  0.4483  0.2896 -0.1278
 3630TIP3    H110854   4.791   0.134   0.811  0.5227  0.8464 -1.1613
 3630TIP3    H210855   4.865   0.002   0.796  0.0401  0.3039  0.8890
 3631TIP3   OH210856   6.550   0.021   1.079 -0.1352  0.2322 -0.7016
 3631TIP3    H110857   6.491   0.019   1.155  0.1263 -2.4159 -0.4821
 3631TIP3    H210858   6.628   0.068   1.111 -1.2784  1.9751 -0.3730
 3632TIP3   OH210859   5.291   3.013   4.384 -0.2219  0.2486 -0.0464
 3632TIP3    H110860   5.341   3.054   4.455 -0.2031  0.9674 -0.4655
 3632TIP3    H210861   5.272   2.925   4.416 -1.3369  0.9654  1.4099
 3633TIP3   OH210862   2.804   2.358   5.777  0.5235 -0.0706  0.5777
 3633TIP3    H110863   2.771   2.432   5.827 -0.3591 -0.6303  0.8525
 3633TIP3    H210864   2.861   2.397   5.710 -0.8361  0.9555 -0.0241
 3634TIP3   OH210865   1.515   0.614   1.788  0.1577 -0.6058 -0.7678
 3634TIP3    H110866   1.607   0.587   1.792  0.3434 -0.2160 -1.9744
 3634TIP3    H210867   1.516   0.707   1.809 -0.3019 -1.1037  1.8170
 3635TIP3   OH210868   0.214   5.589   4.208  1.0182 -0.1881 -0.3493
 3635TIP3    H110869   0.237   5.517   4.150  0.1589 -0.9432  0.2092
 3635TIP3    H210870   0.296   5.612   4.252  1.1530 -1.3727  0.0510
 3636TIP3   OH210871   2.121   3.112   3.014 -0.3405  0.2360  0.1458
 3636TIP3    H110872   2.213   3.135   3.006 -0.8117  2.0007 -1.1385
 3636TIP3    H210873   2.116   3.022   2.983  1.0222 -0.0736  0.7688
 3637TIP3   OH210874   7.003   6.242   0.118  0.7054 -0.0636  0.1506
 3637TIP3    H110875   7.059   6.313   0.148  1.0482  0.4926 -1.6461
 3637TIP3    H210876   6.930   6.240   0.179  2.7818 -1.0367  2.8008
 3638TIP3   OH210877   2.798   3.457   0.088  0.5482 -0.1385 -0.0851
 3638TIP3    H110878   2.831   3.473   0.176  0.1386 -0.0147  0.0518
 3638TIP3    H210879   2.792   3.362   0.081 -0.9531 -0.1376  0.6255
 3639TIP3   OH210880   2.077   3.246   0.763  0.1093  0.4894 -0.1926
 3639TIP3    H110881   2.061   3.241   0.857 -0.5910 -0.0187 -0.3329
 3639TIP3    H210882   1.990   3.245   0.723  0.3969  0.7861 -0.8437
 3640TIP3   OH210883   0.109   6.167   3.784 -0.0733 -0.1391 -0.3057
 3640TIP3    H110884   0.185   6.126   3.744  0.8340  0.5341  0.6726
 3640TIP3    H210885   0.067   6.215   3.713  2.7055  2.8187 -0.1881
 3641TIP3   OH210886   1.676   2.787   1.188 -0.2404 -0.3062  0.1752
 3641TIP3    H110887   1.703   2.807   1.099 -0.0821 -0.0459  0.2789
 3641TIP3    H210888   1.741   2.831   1.243  1.1529 -2.5192  0.4194
 3642TIP3   OH210889   6.342   5.093   2.687  0.2648  0.5362 -0.2778
 3642TIP3    H110890   6.323   5.068   2.596 -0.0314  0.3758 -0.1734
 3642TIP3    H210891   6.402   5.166   2.679 -1.3707  1.9059 -0.6645
 3643TIP3   OH210892   2.582   5.713   3.736  0.0791  0.5412 -0.1404
 3643TIP3    H110893   2.612   5.798   3.704  1.4193  0.4611  0.8340
 3643TIP3    H210894   2.630   5.699   3.817  0.9596 -1.7602 -0.9791
 3644TIP3   OH210895   3.454   5.429   3.143 -0.3866 -0.0134  0.5068
 3644TIP3    H110896   3.369   5.388   3.126 -0.3349  0.1818 -0.2843
 3644TIP3    H210897   3.494   5.437   3.056 -0.1472  1.1596  0.7067
 3645TIP3   OH210898   0.689   2.274   2.744  0.1490  0.2468  0.4713
 3645TIP3    H110899   0.778   2.299   2.719  0.6401 -0.6927  1.2711
 3645TIP3    H210900   0.695   2.182   2.767 -1.5717 -0.6212 -2.1107
 3646TIP3   OH210901   2.225   4.643   2.161 -0.6999 -0.3736 -0.4810
 3646TIP3    H110902   2.194   4.568   2.212 -1.5347  0.4509  0.2547
 3646TIP3    H210903   2.320   4.641   2.173 -0.8304 -0.5003  0.7107
 3647TIP3   OH210904   6.342   5.445   3.551 -0.2371 -0.0734 -0.6186
 3647TIP3    H110905   6.337   5.534   3.516  0.0834 -0.5781 -2.0227
 3647TIP3    H210906   6.296   5.450   3.635  0.2942  1.5420 -0.3770
 3648TIP3   OH210907   1.015   4.219   4.518  0.1221  0.7439 -0.3070
 3648TIP3    H110908   1.094   4.167   4.506 -0.3150 -0.0778  0.2829
 3648TIP3    H210909   0.943   4.162   4.491 -0.4533  0.6309  1.3477
 3649TIP3   OH210910   0.444   6.744   5.285 -0.6119  0.4157 -0.3961
 3649TIP3    H110911   0.387   6.693   5.342 -1.0852  0.7828 -0.5305
 3649TIP3    H210912   0.531   6.704   5.295 -0.9568 -0.3602 -0.4453
 3650TIP3   OH210913   4.901   5.245   4.586  0.3822 -0.2560 -0.8352
 3650TIP3    H110914   4.830   5.266   4.526  0.7403  0.3736 -1.0404
 3650TIP3    H210915   4.978   5.288   4.549  0.7284 -0.3488 -0.2358
 3651TIP3   OH210916   1.141   2.425   0.943  0.5379 -0.1118  0.2375
 3651TIP3    H110917   1.111   2.364   0.876  0.8371 -1.2751  1.1253
 3651TIP3    H210918   1.106   2.390   1.025  0.3022  1.1983  0.7146
 3652TIP3   OH210919   5.001   1.482   0.222 -0.3798  0.3228  0.0426
 3652TIP3    H110920   5.021   1.566   0.262  1.3025  0.8554 -1.7678
 3652TIP3    H210921   4.916   1.495   0.179  0.1565  1.2950 -0.7412
 3653TIP3   OH210922   2.476   6.434   1.750  0.1782  0.1345  0.1269
 3653TIP3    H110923   2.569   6.419   1.732  0.2273 -2.8245  2.1384
 3653TIP3    H210924   2.437   6.347   1.752 -2.3787  1.1966  0.7183
 3654TIP3   OH210925   5.503   2.613   2.343 -0.1857 -0.1724 -0.4886
 3654TIP3    H110926   5.592   2.649   2.353  1.0226 -3.2247  1.2312
 3654TIP3    H210927   5.496   2.592   2.250  1.2533 -0.6209 -0.5214
 3655TIP3   OH210928   5.315   1.026   3.501 -0.7522 -0.5039 -0.1246
 3655TIP3    H110929   5.345   1.116   3.507 -2.0509 -0.1406  2.4325
 3655TIP3    H210930   5.224   1.032   3.473 -0.0597 -1.2699 -2.7958
 3656TIP3   OH210931   0.286   3.449   5.405 -0.6021 -0.3677  0.1865
 3656TIP3    H110932   0.245   3.405   5.330 -1.9038  0.1048  0.5872
 3656TIP3    H210933   0.337   3.381   5.448 -1.6281 -1.2152  0.1138
 3657TIP3   OH210934   1.229   2.568   3.706  0.2170 -0.5774 -0.0100
 3657TIP3    H110935   1.240   2.585   3.613  1.3264  1.7365  0.4729
 3657TIP3    H210936   1.134   2.558   3.717  0.1910 -3.2861 -1.6538
 3658TIP3   OH210937   0.420   0.570   0.925  0.1967 -0.2696  0.3493
 3658TIP3    H110938   0.484   0.524   0.871  0.3856  1.6199 -1.1073
 3658TIP3    H210939   0.361   0.613   0.863 -0.6456  0.5343  1.6508
 3659TIP3   OH210940   5.246   6.012   3.487  0.1337  0.0396  0.3373
 3659TIP3    H110941   5.321   6.062   3.519 -0.5068  1.4137 -0.2322
 3659TIP3    H210942   5.219   6.057   3.407 -1.8858  0.1730  1.0384
 3660TIP3   OH210943   2.279   4.521   0.408  0.2582 -0.4284 -0.0710
 3660TIP3    H110944   2.194   4.565   0.406  0.8705  0.8049  0.3694
 3660TIP3    H210945   2.305   4.522   0.500  0.6267 -1.0588 -0.1594
 3661TIP3   OH210946   2.907   0.161   3.358  0.4126  0.1185 -0.1276
 3661TIP3    H110947   2.846   0.228   3.327 -0.4795 -0.3740  0.5213
 3661TIP3    H210948   2.993   0.203   3.353 -0.1088  1.2725  0.1461
 3662TIP3   OH210949   5.367   0.756   3.468 -0.4093  0.0409 -0.0977
 3662TIP3    H110950   5.330   0.843   3.453 -0.3511 -0.2047 -1.9689
 3662TIP3    H210951   5.459   0.773   3.490 -0.5200  0.4696  0.0492
 3663TIP3   OH210952   1.842   4.446   0.472  0.6041 -0.3988 -0.0896
 3663TIP3    H110953   1.878   4.459   0.559  0.4587 -1.4803  0.1450
 3663TIP3    H210954   1.750   4.470   0.480  0.7949  0.3958 -0.1857
 3664TIP3   OH210955   5.058   1.688   1.181 -0.1933 -0.2620 -0.0413
 3664TIP3    H110956   5.082   1.720   1.093 -0.3389 -0.0004  0.0131
 3664TIP3    H210957   5.116   1.613   1.196  1.5725  1.1586  0.6305
 3665TIP3   OH210958   4.431   1.296   2.266  0.5495 -0.0889  0.2506
 3665TIP3    H110959   4.386   1.230   2.214 -2.5993  0.0565  2.5267
 3665TIP3    H210960   4.477   1.246   2.334  2.1847 -0.0972 -0.7915
 3666TIP3   OH210961   3.190   5.051   1.751 -0.1364  0.3390 -0.4543
 3666TIP3    H110962   3.154   5.112   1.816 -0.7323 -0.2273 -0.2421
 3666TIP3    H210963   3.265   5.011   1.796 -0.4248  0.0964 -0.1842
 3667TIP3   OH210964   1.818   0.929   0.442 -0.4559  0.6462  0.4111
 3667TIP3    H110965   1.765   0.882   0.378 -2.5243  1.8110  1.1651
 3667TIP3    H210966   1.758   0.949   0.514  1.7019 -0.4097  2.6971
 3668TIP3   OH210967   7.154   2.244   3.756  0.0085  0.4586 -0.6199
 3668TIP3    H110968   7.188   2.333   3.746 -0.1699  0.7847  1.3861
 3668TIP3    H210969   7.138   2.214   3.666 -0.1435  2.5181 -1.3122
 3669TIP3   OH210970   6.652   5.046   2.360 -0.1486  0.0201 -0.9856
 3669TIP3    H110971   6.702   5.105   2.304  1.4058 -0.4576 -0.1470
 3669TIP3    H210972   6.665   4.959   2.323 -0.5153 -0.0946 -0.8605
 3670TIP3   OH210973   4.369   5.578   4.460  0.1649  0.4411 -0.1949
 3670TIP3    H110974   4.396   5.643   4.395  1.1891 -1.8767 -2.2335
 3670TIP3    H210975   4.428   5.592   4.534  0.8713  1.3226 -0.8984
 3671TIP3   OH210976   4.978   4.004   1.196  0.3445 -0.7028  0.5846
 3671TIP3    H110977   4.898   4.049   1.167  1.0279  0.5916  0.6502
 3671TIP3    H210978   4.967   3.914   1.164 -2.4327 -1.3919  3.0086
 3672TIP3   OH210979   0.907   6.441   4.468 -0.8065  0.4835 -0.4397
 3672TIP3    H110980   0.892   6.512   4.407  0.2152  0.7459 -0.3997
 3672TIP3    H210981   0.822   6.399   4.477 -1.1158  0.8409 -1.5323
 3673TIP3   OH210982   1.980   1.529   1.162  0.3729 -0.0893 -0.0310
 3673TIP3    H110983   2.051   1.593   1.169 -0.0833  0.3596  0.6068
 3673TIP3    H210984   2.024   1.447   1.139  0.9620  0.4478 -0.8715
 3674TIP3   OH210985   1.878   5.731   3.718 -0.4192  0.2934 -0.0527
 3674TIP3    H110986   1.819   5.784   3.664  0.4275  2.6242  1.1293
 3674TIP3    H210987   1.889   5.650   3.670 -1.9985  1.0875 -1.8954
 3675TIP3   OH210988   4.527   4.837   2.151  0.4033  0.6407 -0.2925
 3675TIP3    H110989   4.511   4.749   2.183 -2.4825  1.0726 -0.2576
 3675TIP3    H210990   4.494   4.836   2.061 -0.0217  1.7543 -0.1671
 3676TIP3   OH210991   4.775   6.532   5.165 -0.1092 -0.0260  0.3376
 3676TIP3    H110992   4.807   6.443   5.150 -0.8836 -0.0816 -1.1184
 3676TIP3    H210993   4.784   6.544   5.259  0.5609 -1.4261  0.4885
 3677TIP3   OH210994   0.903   2.699   0.170  0.0466 -0.2225 -0.1277
 3677TIP3    H110995   0.821   2.743   0.188 -0.5571 -1.5786  0.5949
 3677TIP3    H210996   0.947   2.693   0.255 -0.8879 -2.8673  0.2822
 3678TIP3   OH210997   6.423   4.231   3.026 -0.3855  0.4539  0.5550
 3678TIP3    H110998   6.486   4.303   3.027  0.2216 -0.0232  3.1110
 3678TIP3    H210999   6.338   4.273   3.011  0.1760  1.4696  0.1576
 3679TIP3   OH211000   4.107   4.793   3.659  0.3671 -0.4195 -0.0450
 3679TIP3    H111001   4.044   4.737   3.704 -0.2315  0.8947  0.8322
 3679TIP3    H211002   4.155   4.836   3.730  0.0382  1.0000 -0.6386
 3680TIP3   OH211003   6.575   0.583   3.212  0.6290  0.1178 -0.7871
 3680TIP3    H111004   6.588   0.489   3.207 -0.6142 -0.0419 -1.5342
 3680TIP3    H211005   6.661   0.621   3.193  1.0085 -0.8540 -1.0466
 3681TIP3   OH211006   1.316   5.021   4.855 -0.0586  0.0922  0.2001
 3681TIP3    H111007   1.328   5.116   4.857 -1.1538  0.2389  1.2630
 3681TIP3    H211008   1.320   4.998   4.762 -0.6920  1.3182 -0.1473
 3682TIP3   OH211009   0.639   1.481   5.457  0.3951  0.0989  0.2085
 3682TIP3    H111010   0.545   1.492   5.444  0.5516  1.9421  0.3175
 3682TIP3    H211011   0.654   1.506   5.548  1.1167  0.8497 -0.1029
 3683TIP3   OH211012   1.590   2.764   3.549 -0.1762  0.0042 -0.2312
 3683TIP3    H111013   1.625   2.688   3.595 -1.2334  1.0055  2.3891
 3683TIP3    H211014   1.562   2.824   3.618 -1.3525  1.8784 -2.1994
 3684TIP3   OH211015   4.355   2.289   4.872  0.1122 -0.2356 -0.2756
 3684TIP3    H111016   4.414   2.316   4.801  1.3865  0.8221  1.1436
 3684TIP3    H211017   4.354   2.193   4.866 -0.2750 -0.1666 -2.0527
 3685TIP3   OH211018   2.499   2.810   2.466  0.1469  0.5067  0.0668
 3685TIP3    H111019   2.553   2.731   2.457 -0.7554  0.0080 -1.1318
 3685TIP3    H211020   2.420   2.791   2.417 -1.5890  0.8395  2.5507
 3686TIP3   OH211021   1.136   3.651   1.235 -0.3230 -0.1255  0.0040
 3686TIP3    H111022   1.149   3.557   1.225 -0.4455 -0.2114  0.6469
 3686TIP3    H211023   1.096   3.661   1.321 -0.9770  0.4525 -0.3525
 3687TIP3   OH211024   5.560   1.121   1.865 -0.4204 -0.6340  0.5308
 3687TIP3    H111025   5.575   1.130   1.771  0.9860  0.6107  0.8392
 3687TIP3    H211026   5.549   1.027   1.879 -0.2609 -0.8738 -0.8073
 3688TIP3   OH211027   6.419   2.669   4.765  0.8217 -0.1031 -0.1599
 3688TIP3    H111028   6.358   2.604   4.729 -0.3541  2.3431 -3.0009
 3688TIP3    H211029   6.364   2.727   4.818  0.4392  2.2380 -2.8968
 3689TIP3   OH211030   2.116   1.272   0.511  0.0439  0.2280  0.3969
 3689TIP3    H111031   2.087   1.359   0.536  0.8380 -0.1476  2.8997
 3689TIP3    H211032   2.094   1.216   0.586  1.9504 -1.1695 -0.0047
 3690TIP3   OH211033   6.895   1.316   0.096  0.0094  0.3065  0.6737
 3690TIP3    H111034   6.957   1.298   0.026  0.2840  4.8073 -0.5610
 3690TIP3    H211035   6.809   1.313   0.054 -0.5567 -3.3562  1.7977
 3691TIP3   OH211036   2.434   4.834   3.366  0.5948  0.9540 -0.5678
 3691TIP3    H111037   2.394   4.747   3.371  0.1653  1.1908  0.3412
 3691TIP3    H211038   2.454   4.856   3.457 -0.3873  2.3031 -0.6569
 3692TIP3   OH211039   2.667   2.978   2.329 -1.0631 -0.4502 -0.1165
 3692TIP3    H111040   2.619   3.055   2.299 -0.8249 -0.5604 -0.7991
 3692TIP3    H211041   2.601   2.924   2.372 -1.3931 -0.2387 -0.3506
 3693TIP3   OH211042   4.353   1.088   2.633 -0.0127  0.0471  0.4730
 3693TIP3    H111043   4.364   1.176   2.670  3.7047 -0.2700  0.4730
 3693TIP3    H211044   4.425   1.079   2.571 -0.5868 -2.8387  0.0968
 3694TIP3   OH211045   0.816   5.128   1.367 -0.2681  0.2368 -0.2819
 3694TIP3    H111046   0.768   5.047   1.348 -0.0878  0.3098 -1.0775
 3694TIP3    H211047   0.909   5.103   1.359 -0.1937  0.3543  0.1825
 3695TIP3   OH211048   5.524   2.016   2.267 -0.1030 -0.2526  0.4741
 3695TIP3    H111049   5.572   1.948   2.314  0.4042 -0.9937 -1.0218
 3695TIP3    H211050   5.592   2.078   2.240 -0.2909 -0.1776  0.1740
 3696TIP3   OH211051   5.068   2.677   4.000  0.2373  0.0852 -0.1589
 3696TIP3    H111052   5.090   2.763   4.036  0.5950 -0.0204 -0.1225
 3696TIP3    H211053   5.148   2.649   3.954  1.1754 -1.5247  2.2694
 3697TIP3   OH211054   5.309   5.322   1.762  0.0112 -0.1555  0.2713
 3697TIP3    H111055   5.278   5.296   1.849 -0.3197 -0.7379 -0.0157
 3697TIP3    H211056   5.263   5.404   1.744 -2.8701 -1.9111 -0.9181
 3698TIP3   OH211057   5.102   3.444   3.888  0.1685  0.1969  0.0667
 3698TIP3    H111058   5.073   3.353   3.885 -0.2416  0.3219  0.0424
 3698TIP3    H211059   5.079   3.479   3.801 -1.3313  0.7996  0.6681
 3699TIP3   OH211060   2.980   1.071   5.418  0.2575 -0.0561 -0.2418
 3699TIP3    H111061   3.006   1.009   5.485 -0.3776  0.2957  0.3397
 3699TIP3    H211062   2.962   1.017   5.341  1.2725 -0.4338 -0.2276
 3700TIP3   OH211063   5.009   1.933   2.589 -0.0121  0.0980 -0.1457
 3700TIP3    H111064   4.926   1.979   2.602 -0.5889 -0.4656 -1.6045
 3700TIP3    H211065   5.030   1.948   2.496  0.7703 -0.9731 -0.1629
 3701TIP3   OH211066   0.299   5.002   4.582 -0.4585 -0.3054 -0.0885
 3701TIP3    H111067   0.392   4.999   4.604  0.4394 -0.6602 -3.3227
 3701TIP3    H211068   0.265   4.916   4.609  0.2216 -0.3023  0.8039
 3702TIP3   OH211069   3.688   6.099   0.482 -0.3129 -0.0960  0.1842
 3702TIP3    H111070   3.723   6.020   0.524  0.8881  0.6687  0.6940
 3702TIP3    H211071   3.599   6.075   0.456 -0.2874 -1.3306  1.1171
 3703TIP3   OH211072   5.272   1.969   2.359  0.5336  0.1626 -0.3112
 3703TIP3    H111073   5.362   1.975   2.326  0.3612 -0.2462 -0.8536
 3703TIP3    H211074   5.267   1.883   2.400  1.0272  0.9987  1.6556
 3704TIP3   OH211075   2.593   3.162   3.993  0.0166 -0.2518  0.3164
 3704TIP3    H111076   2.628   3.120   4.072  0.4239 -1.6507 -0.5714
 3704TIP3    H211077   2.587   3.255   4.016  0.2765 -0.5991  1.9326
 3705TIP3   OH211078   4.393   2.520   2.038 -0.2999 -0.1583  0.1914
 3705TIP3    H111079   4.426   2.449   2.093 -2.1774 -1.8391 -0.7201
 3705TIP3    H211080   4.307   2.490   2.009 -1.1987  2.5544 -0.2017
 3706TIP3   OH211081   6.565   4.984   5.916  0.5417  0.0376  0.2903
 3706TIP3    H111082   6.601   4.910   5.867  0.9061 -0.7384  1.6868
 3706TIP3    H211083   6.567   5.057   5.854  0.5523 -1.0116 -0.9922
 3707TIP3   OH211084   2.794   6.544   0.660 -0.3277  0.1849  0.3877
 3707TIP3    H111085   2.801   6.522   0.567  0.4596  0.9951  0.2394
 3707TIP3    H211086   2.729   6.615   0.663  0.2106  0.6858  0.3549
 3708TIP3   OH211087   2.698   0.744   4.698  0.1820 -0.0501 -0.1934
 3708TIP3    H111088   2.761   0.811   4.667  1.4658 -0.7928  0.7180
 3708TIP3    H211089   2.719   0.733   4.790 -0.2709 -1.4383 -0.2408
 3709TIP3   OH211090   1.798   4.597   1.155 -0.0941  0.1109  0.0403
 3709TIP3    H111091   1.875   4.616   1.208  2.0265 -1.9365 -2.0593
 3709TIP3    H211092   1.781   4.678   1.108  0.5273  0.7173  0.8204
 3710TIP3   OH211093   4.811   1.829   1.256 -0.0409  0.2588  0.1712
 3710TIP3    H111094   4.892   1.782   1.236  0.3046  0.3334  1.3555
 3710TIP3    H211095   4.826   1.868   1.342 -0.6183  1.8979 -0.4361
 3711TIP3   OH211096   3.521   0.359   2.821  0.3247 -0.0586 -0.3175
 3711TIP3    H111097   3.528   0.279   2.768  1.4498  0.3396 -0.7916
 3711TIP3    H211098   3.608   0.399   2.816 -0.3008  1.3612 -0.3444
 3712TIP3   OH211099   0.562   0.972   5.004  0.3920 -0.3262 -0.0041
 3712TIP3    H111100   0.511   1.018   4.937 -2.5192 -1.4124  1.3054
 3712TIP3    H211101   0.617   1.041   5.043 -1.2345  1.3288 -0.4748
 3713TIP3   OH211102   1.900   0.962   1.382  0.2840 -0.1419  0.2292
 3713TIP3    H111103   1.975   0.915   1.344 -0.1631 -0.3917 -0.3464
 3713TIP3    H211104   1.873   1.023   1.314  0.8397  0.9692  0.9505
 3714TIP3   OH211105   4.619   5.260   3.991  0.0018  1.0675 -0.4358
 3714TIP3    H111106   4.536   5.302   3.966 -1.1394 -0.2820  0.8885
 3714TIP3    H211107   4.603   5.166   3.978  2.1307  0.8827 -2.3098
 3715TIP3   OH211108   5.216   2.993   1.960  0.0344  0.3770  0.0621
 3715TIP3    H111109   5.292   3.043   1.928  0.5076 -0.8272 -0.7427
 3715TIP3    H211110   5.156   3.060   1.991  0.8653  1.4378 -0.5213
 3716TIP3   OH211111   0.179   1.058   3.586  0.4334 -0.6455  0.0087
 3716TIP3    H111112   0.268   1.089   3.568 -0.3853  1.3893 -0.6828
 3716TIP3    H211113   0.166   1.076   3.679  0.5919 -0.5686  0.0158
 3717TIP3   OH211114   6.636   6.411   0.467  0.1528 -0.3812  0.5038
 3717TIP3    H111115   6.543   6.424   0.486  0.0543 -0.1240 -0.1363
 3717TIP3    H211116   6.674   6.499   0.474  0.2138 -0.3705  0.0619
 3718TIP3   OH211117   3.834   3.607   5.449  0.5741  0.6034 -0.1187
 3718TIP3    H111118   3.881   3.539   5.497  2.0008  0.4061 -1.7045
 3718TIP3    H211119   3.841   3.581   5.358  0.9117  2.7284 -0.7475
 3719TIP3   OH211120   4.725   5.814   5.605 -0.1272  0.1202 -0.7517
 3719TIP3    H111121   4.776   5.876   5.657 -2.0956  3.0325 -1.9786
 3719TIP3    H211122   4.636   5.823   5.639 -0.4148 -2.5081 -0.6686
 3720TIP3   OH211123   6.197   6.662   2.974  0.3482 -0.2749  0.0356
 3720TIP3    H111124   6.105   6.688   2.967  0.7213  1.8426  1.8123
 3720TIP3    H211125   6.220   6.633   2.886 -1.4801  1.1420 -0.9894
 3721TIP3   OH211126   5.656   3.906   2.964 -0.2782  0.1143 -0.4887
 3721TIP3    H111127   5.667   3.975   2.899 -2.5490  0.8338 -0.1826
 3721TIP3    H211128   5.722   3.927   3.032  0.6887  0.5470 -1.5291
 3722TIP3   OH211129   3.963   6.635   1.503  0.0323  0.9646  0.2717
 3722TIP3    H111130   4.009   6.671   1.579 -1.1613  1.4622  0.7895
 3722TIP3    H211131   3.950   6.710   1.445 -1.6081  1.2236  0.9135
 3723TIP3   OH211132   6.315   3.726   1.021 -0.2346 -0.2311  0.1007
 3723TIP3    H111133   6.394   3.777   1.039 -1.0624  0.6827  1.2701
 3723TIP3    H211134   6.337   3.637   1.049  0.7418 -0.2358 -0.6293
 3724TIP3   OH211135   5.401   5.485   4.475  0.1458  0.5072  0.7829
 3724TIP3    H111136   5.327   5.504   4.533 -0.2735  0.3291  0.3044
 3724TIP3    H211137   5.392   5.548   4.403 -1.1353 -1.2762 -0.7135
 3725TIP3   OH211138   1.808   1.112   1.095 -0.1023  0.0670 -0.1175
 3725TIP3    H111139   1.844   1.049   1.033 -1.7862 -0.4489 -0.6118
 3725TIP3    H211140   1.723   1.076   1.120 -0.4763  1.4349  0.6817
 3726TIP3   OH211141   5.371   3.497   2.561  0.3910  0.4777 -0.2903
 3726TIP3    H111142   5.319   3.456   2.630  1.5234  0.3085  0.4897
 3726TIP3    H211143   5.325   3.578   2.541 -1.2182 -0.5710 -0.9912
 3727TIP3   OH211144   5.525   0.705   1.145 -0.3580 -0.2447  0.4238
 3727TIP3    H111145   5.439   0.665   1.158 -1.4969  1.5440 -1.1722
 3727TIP3    H211146   5.506   0.789   1.104  2.1584  0.3411  0.3373
 3728TIP3   OH211147   5.757   1.992   2.434  0.3351 -0.0544 -0.4989
 3728TIP3    H111148   5.826   1.928   2.416  1.2981  1.1168 -1.1061
 3728TIP3    H211149   5.760   2.053   2.360 -1.2459  0.1306 -0.4514
 3729TIP3   OH211150   3.360   4.892   5.068  0.3271 -0.2601  0.4174
 3729TIP3    H111151   3.410   4.940   5.002  0.4606 -0.4740  0.3644
 3729TIP3    H211152   3.349   4.805   5.032  0.3766 -0.3693  0.6648
 3730TIP3   OH211153   5.167   5.030   1.019  0.0401  0.0686 -0.8172
 3730TIP3    H111154   5.107   5.095   1.057  0.7452 -0.0803  0.6313
 3730TIP3    H211155   5.254   5.065   1.037  0.4167 -0.5337 -1.4196
 3731TIP3   OH211156   2.724   6.270   4.113 -0.2982  0.3131 -0.5360
 3731TIP3    H111157   2.683   6.286   4.198  0.4237 -1.8259  0.3079
 3731TIP3    H211158   2.672   6.199   4.075  0.4114  0.0593 -1.0644
 3732TIP3   OH211159   6.761   3.410   4.324  0.2018  0.1367 -0.0630
 3732TIP3    H111160   6.673   3.388   4.357  0.0981  0.0465 -0.3905
 3732TIP3    H211161   6.745   3.479   4.260  0.3567  0.0203 -0.2259
 3733TIP3   OH211162   0.199   3.485   0.833  0.9144  0.3844  0.1537
 3733TIP3    H111163   0.202   3.470   0.928  1.0223 -0.2693  0.0530
 3733TIP3    H211164   0.271   3.544   0.816  0.2862  1.3096  0.6139
 3734TIP3   OH211165   3.476   2.826   2.892  0.4428  0.0951 -0.9490
 3734TIP3    H111166   3.381   2.816   2.888  0.3235  1.0330 -0.6743
 3734TIP3    H211167   3.509   2.738   2.912 -0.3073 -0.4002 -1.8301
 3735TIP3   OH211168   0.098   0.560   3.429  0.3895 -0.1848  0.2817
 3735TIP3    H111169   0.103   0.644   3.476 -0.3800 -0.1093  0.2451
 3735TIP3    H211170   0.189   0.531   3.422  0.7215  0.9048 -0.1592
 3736TIP3   OH211171   6.710   2.327   4.959  0.3038  0.3151  0.3769
 3736TIP3    H111172   6.664   2.411   4.962  0.0308  0.1694  0.2402
 3736TIP3    H211173   6.642   2.263   4.939  0.7378  0.2474 -0.9669
 3737TIP3   OH211174   6.050   2.836   2.392 -0.3588 -0.1099  0.3674
 3737TIP3    H111175   6.066   2.927   2.367  0.4780  1.1192  4.6078
 3737TIP3    H211176   5.964   2.816   2.355  0.1049  1.7627 -1.9997
 3738TIP3   OH211177   2.420   0.194   5.322  0.4795  0.1916  0.9103
 3738TIP3    H111178   2.476   0.234   5.388 -0.0522  1.4090  0.6690
 3738TIP3    H211179   2.480   0.164   5.254  0.8420  2.2350  0.2598
 3739TIP3   OH211180   5.882   5.293   3.795  0.6693  0.0854 -0.1053
 3739TIP3    H111181   5.793   5.270   3.821  0.9743 -1.2379 -0.1394
 3739TIP3    H211182   5.929   5.305   3.877  1.5124 -3.6175  0.1282
 3740TIP3   OH211183   2.299   6.652   2.599  0.2519  0.1147  0.2483
 3740TIP3    H111184   2.256   6.620   2.679  0.1538  1.7376  0.8803
 3740TIP3    H211185   2.291   6.579   2.537 -3.3658  0.2858  0.3361
 3741TIP3   OH211186   0.270   1.077   0.729 -0.6501  0.2112 -0.4285
 3741TIP3    H111187   0.236   1.141   0.667 -0.8997 -1.0628 -1.6309
 3741TIP3    H211188   0.196   1.020   0.748 -0.9691  1.2883  2.0789
 3742TIP3   OH211189   4.175   6.092   3.611  0.1577 -0.4453  0.4647
 3742TIP3    H111190   4.112   6.044   3.558 -0.1643  0.8502 -0.3606
 3742TIP3    H211191   4.122   6.129   3.682  0.2678 -0.6218  0.6407
 3743TIP3   OH211192   6.040   3.241   4.506 -0.1917 -0.3001 -0.0785
 3743TIP3    H111193   6.058   3.192   4.586 -0.2556 -0.4692 -0.1683
 3743TIP3    H211194   5.978   3.309   4.532 -0.5385 -0.6174 -0.0734
 3744TIP3   OH211195   4.163   5.104   4.321 -0.4410  0.1910  0.1159
 3744TIP3    H111196   4.075   5.088   4.287 -0.4397  1.8111 -0.7344
 3744TIP3    H211197   4.165   5.198   4.339  1.9901  0.8034 -2.6157
 3745TIP3   OH211198   5.421   1.286   1.112  0.0869  0.0784  0.0203
 3745TIP3    H111199   5.349   1.314   1.169  1.0315 -0.4207  1.4976
 3745TIP3    H211200   5.397   1.197   1.085  0.4139 -0.3155  0.9935
 3746TIP3   OH211201   5.252   4.243   1.841 -0.3997  0.1718 -0.0857
 3746TIP3    H111202   5.201   4.324   1.840 -0.8360  0.0234 -3.8115
 3746TIP3    H211203   5.205   4.185   1.901 -0.7432  2.1948  1.7276
 3747TIP3   OH211204   6.508   4.635   3.316  0.3061  0.7067  0.3299
 3747TIP3    H111205   6.466   4.707   3.269 -1.1819 -1.3290 -1.6593
 3747TIP3    H211206   6.442   4.606   3.378  1.0251  1.2145  1.3549
 3748TIP3   OH211207   0.842   0.918   4.418 -0.0919  0.2581  0.1339
 3748TIP3    H111208   0.783   0.983   4.379 -0.2154  0.3744  0.5139
 3748TIP3    H211209   0.861   0.951   4.505  0.6076  0.2640 -0.0083
 3749TIP3   OH211210   4.065   3.146   4.586 -0.1091 -0.0428 -0.0706
 3749TIP3    H111211   4.118   3.068   4.606  1.4547  0.9201 -0.2719
 3749TIP3    H211212   3.975   3.118   4.601  0.5589 -1.1574  2.3842
 3750TIP3   OH211213   3.182   1.648   0.934 -0.2292 -0.4548  0.7278
 3750TIP3    H111214   3.190   1.632   1.028 -0.1946 -0.6779  0.6861
 3750TIP3    H211215   3.152   1.739   0.929  0.5748 -0.1720  0.9249
 3751TIP3   OH211216   2.440   1.444   3.405 -0.2854 -0.3155  0.0570
 3751TIP3    H111217   2.436   1.384   3.330 -0.1243 -0.3130  0.0471
 3751TIP3    H211218   2.457   1.530   3.367 -0.7190 -0.2290  0.0545
 3752TIP3   OH211219   4.191   0.419   2.591 -0.4601  0.4562  0.4488
 3752TIP3    H111220   4.166   0.503   2.630 -0.8066  0.6106 -0.0972
 3752TIP3    H211221   4.137   0.412   2.513  1.7182  1.1751 -1.2130
 3753TIP3   OH211222   2.477   4.127   4.755 -0.2648 -0.4293 -0.2703
 3753TIP3    H111223   2.434   4.212   4.741  0.5586  0.1739  0.7384
 3753TIP3    H211224   2.567   4.141   4.725 -0.4275 -1.3356 -1.2496
 3754TIP3   OH211225   5.166   3.343   0.157 -0.3368  0.2848  0.0477
 3754TIP3    H111226   5.175   3.438   0.150 -0.5011  0.2828 -0.2265
 3754TIP3    H211227   5.246   3.308   0.117  0.4141  0.3228  1.4656
 3755TIP3   OH211228   2.164   2.924   2.483 -0.2905 -0.2334  0.1945
 3755TIP3    H111229   2.179   2.894   2.573  0.5752  0.7821  0.4088
 3755TIP3    H211230   2.174   3.019   2.487 -0.3349 -0.1637 -0.9546
 3756TIP3   OH211231   2.824   1.890   5.558 -0.4034  0.0575  0.1024
 3756TIP3    H111232   2.874   1.971   5.548  0.7596 -0.3545  2.0589
 3756TIP3    H211233   2.744   1.916   5.604 -0.3504  0.2093  0.1081
 3757TIP3   OH211234   5.966   2.740   0.930  0.3428  0.2452  0.5560
 3757TIP3    H111235   6.012   2.689   0.863 -0.4764  0.5730 -0.2611
 3757TIP3    H211236   5.892   2.685   0.956 -1.7198  1.7481 -1.7484
 3758TIP3   OH211237   0.683   1.878   1.116  0.3284 -0.6774 -0.2939
 3758TIP3    H111238   0.750   1.936   1.153  1.2334 -1.7228 -0.2443
 3758TIP3    H211239   0.622   1.863   1.187  0.4481 -0.3124 -0.1114
 3759TIP3   OH211240   4.938   1.107   4.633  0.7409  0.2458  0.0849
 3759TIP3    H111241   4.971   1.195   4.654 -2.4879  1.7386 -0.3255
 3759TIP3    H211242   4.914   1.112   4.541  0.3476 -1.0069  0.1072
 3760TIP3   OH211243   7.161   0.094   3.846 -0.2892 -0.0517  1.0198
 3760TIP3    H111244   7.223   0.065   3.912  1.2300  1.6185  0.3837
 3760TIP3    H211245   7.114   0.166   3.888 -0.6380 -0.2059  0.8998
 3761TIP3   OH211246   5.341   5.447   2.836  0.4339 -0.0103 -1.1275
 3761TIP3    H111247   5.282   5.391   2.886  0.1866  1.4330  0.2746
 3761TIP3    H211248   5.305   5.447   2.748 -1.2837  0.2644 -0.4697
 3762TIP3   OH211249   5.587   0.808   0.490  0.0194 -0.3669 -0.2963
 3762TIP3    H111250   5.631   0.822   0.573 -0.3037 -1.1848  0.0302
 3762TIP3    H211251   5.634   0.863   0.427 -0.0616  0.6601  0.5241
 3763TIP3   OH211252   0.147   2.030   1.128  0.3193 -0.0584  0.1297
 3763TIP3    H111253   0.199   1.993   1.057  1.5279 -2.5410  2.1397
 3763TIP3    H211254   0.092   1.958   1.158 -1.8708  1.5711  0.2942
 3764TIP3   OH211255   1.639   2.014   4.048  0.1573 -0.5951  0.1843
 3764TIP3    H111256   1.651   2.000   4.142  1.6971  1.0778  0.2989
 3764TIP3    H211257   1.606   1.931   4.015 -2.3969 -0.6174  2.5031
 3765TIP3   OH211258   6.796   4.491   5.805 -0.2537 -0.0360 -0.2033
 3765TIP3    H111259   6.835   4.415   5.848 -0.9826 -0.6786 -0.6572
 3765TIP3    H211260   6.852   4.508   5.729  0.8732  0.9291  0.8063
 3766TIP3   OH211261   5.555   3.192   3.703 -0.0446 -0.1531  0.0372
 3766TIP3    H111262   5.536   3.196   3.797  0.8147 -0.8216  0.2477
 3766TIP3    H211263   5.650   3.197   3.697 -0.0799 -0.3169 -0.7879
 3767TIP3   OH211264   1.247   3.787   4.448  0.4592 -0.5698  0.1466
 3767TIP3    H111265   1.272   3.837   4.370  0.4969 -0.2014  0.3896
 3767TIP3    H211266   1.320   3.799   4.509 -0.0355  0.0215  0.6361
 3768TIP3   OH211267   2.609   2.109   2.100  0.7230  0.0969 -0.5181
 3768TIP3    H111268   2.661   2.054   2.041  0.2931  0.4405 -1.2268
 3768TIP3    H211269   2.617   2.197   2.063 -1.2041  0.0000 -1.2681
 3769TIP3   OH211270   2.177   3.640   4.213 -0.3291  0.7468  0.5843
 3769TIP3    H111271   2.194   3.667   4.303 -1.0557 -1.1633  1.3670
 3769TIP3    H211272   2.082   3.623   4.211 -0.4582  1.5272 -0.7776
 3770TIP3   OH211273   2.469   2.980   5.546 -0.4870  0.1834 -0.4553
 3770TIP3    H111274   2.428   3.065   5.563 -0.3492  0.3714 -1.0535
 3770TIP3    H211275   2.480   2.942   5.633 -0.2487  0.9217 -0.1446
 3771TIP3   OH211276   2.167   1.246   3.559  0.2839  0.1150 -0.4906
 3771TIP3    H111277   2.144   1.333   3.526  1.1908  0.4626 -0.2383
 3771TIP3    H211278   2.188   1.195   3.481  1.3329  0.6035 -0.5338
 3772TIP3   OH211279   0.374   1.366   1.441 -0.3389  0.0435 -0.2327
 3772TIP3    H111280   0.399   1.313   1.518 -0.1693 -1.1164 -1.0520
 3772TIP3    H211281   0.449   1.425   1.428 -0.5431  0.5300  0.7211
 3773TIP3   OH211282   0.834   0.407   1.437 -0.0376  0.2765  0.0277
 3773TIP3    H111283   0.898   0.343   1.404 -1.2298 -1.4708  0.9325
 3773TIP3    H211284   0.829   0.388   1.531 -1.9574  0.2775 -0.0484
 3774TIP3   OH211285   5.918   6.788   3.540 -0.7514 -0.0142  0.2556
 3774TIP3    H111286   5.995   6.763   3.591 -1.1823  1.8609  1.9725
 3774TIP3    H211287   5.845   6.780   3.602 -1.8441 -0.9739 -1.0988
 3775TIP3   OH211288   1.495   6.783   1.497  0.1967 -0.8368  0.0808
 3775TIP3    H111289   1.546   6.702   1.486  0.5417 -0.3080 -3.2248
 3775TIP3    H211290   1.421   6.773   1.437 -1.1304  0.3383  1.4370
 3776TIP3   OH211291   4.095   2.905   5.254 -0.5966  0.7608 -0.1836
 3776TIP3    H111292   4.099   2.922   5.348 -1.1274 -2.3728  0.5494
 3776TIP3    H211293   4.003   2.922   5.231 -1.4501 -1.9121  0.8071
 3777TIP3   OH211294   6.383   0.629   2.692 -0.3090  0.8783 -0.2757
 3777TIP3    H111295   6.292   0.643   2.665  0.0683 -0.7649 -2.6734
 3777TIP3    H211296   6.394   0.534   2.691  1.5288  1.0633 -0.3895
 3778TIP3   OH211297   1.758   3.383   1.616  0.4378  0.6468 -0.4308
 3778TIP3    H111298   1.788   3.449   1.553  1.8821 -1.1795 -1.8002
 3778TIP3    H211299   1.767   3.425   1.701  0.4033  2.5223 -1.3004
 3779TIP3   OH211300   4.416   1.076   1.776 -0.3474 -0.2264 -0.0813
 3779TIP3    H111301   4.432   0.989   1.741  1.1672 -0.3707  0.8552
 3779TIP3    H211302   4.407   1.132   1.699  1.3382 -0.7876 -0.7300
 3780TIP3   OH211303   6.946   0.288   0.249 -0.0123  0.0408  0.0278
 3780TIP3    H111304   6.987   0.344   0.315 -1.3527  1.3564 -0.2087
 3780TIP3    H211305   6.872   0.248   0.294 -0.5960  0.5020 -0.5031
 3781TIP3   OH211306   0.270   5.304   4.403  0.4229 -0.4588 -1.0015
 3781TIP3    H111307   0.189   5.352   4.421  0.0530 -1.4625  0.0955
 3781TIP3    H211308   0.330   5.332   4.472 -0.3757 -2.8501  0.8026
 3782TIP3   OH211309   2.823   6.006   2.028  0.0434  0.2729  0.2880
 3782TIP3    H111310   2.831   6.082   1.970 -0.5723 -0.6827 -1.0969
 3782TIP3    H211311   2.913   5.973   2.036  0.0301 -0.0227 -0.7284
 3783TIP3   OH211312   2.597   4.978   0.202  0.4347 -0.9751  0.2592
 3783TIP3    H111313   2.574   5.019   0.119 -0.2516  0.1635  0.9810
 3783TIP3    H211314   2.515   4.942   0.235  0.5942 -0.9650  0.6792
 3784TIP3   OH211315   0.571   2.498   0.704  0.1916  0.3701  0.2775
 3784TIP3    H111316   0.603   2.552   0.776  0.0307  0.1278  0.5309
 3784TIP3    H211317   0.550   2.561   0.635 -2.4504  0.9189  1.4686
 3785TIP3   OH211318   4.934   4.418   0.261  0.1736  0.0571 -0.1639
 3785TIP3    H111319   5.007   4.426   0.199 -0.6135 -0.2007 -1.1586
 3785TIP3    H211320   4.886   4.340   0.232 -0.5084  0.2367  0.4529
 3786TIP3   OH211321   7.213   6.798   4.694 -0.1872  0.2013 -0.4169
 3786TIP3    H111322   7.140   6.773   4.638  0.9703 -2.2737 -0.9588
 3786TIP3    H211323   7.181   6.787   4.783 -1.0908  1.1771 -0.6084
 3787TIP3   OH211324   7.151   3.427   5.697  0.2721 -0.4367 -0.0227
 3787TIP3    H111325   7.099   3.506   5.678  3.9680  2.3942  0.5582
 3787TIP3    H211326   7.206   3.416   5.619  1.7107 -0.7722  1.0166
 3788TIP3   OH211327   6.515   6.059   2.175  0.2954 -0.4979  0.0606
 3788TIP3    H111328   6.548   6.136   2.222 -0.8702 -0.7821  1.4140
 3788TIP3    H211329   6.554   6.066   2.087  0.3585  1.5416  0.1973
 3789TIP3   OH211330   1.463   3.820   4.602  0.2975 -0.8171  0.2760
 3789TIP3    H111331   1.438   3.851   4.689  0.3515  1.9034 -0.5958
 3789TIP3    H211332   1.558   3.811   4.607  0.5822  1.4429 -0.0402
 3790TIP3   OH211333   3.624   2.853   0.800  0.2392  0.4487  0.2011
 3790TIP3    H111334   3.659   2.789   0.738 -0.5355  0.4120 -0.1974
 3790TIP3    H211335   3.595   2.926   0.746  0.9355  1.0663  0.6416
 3791TIP3   OH211336   2.671   4.315   5.090 -0.1810 -1.0096 -0.1090
 3791TIP3    H111337   2.597   4.298   5.031  0.8345 -0.0438 -1.7162
 3791TIP3    H211338   2.632   4.366   5.161 -1.3362 -1.7613 -0.1709
 3792TIP3   OH211339   4.127   5.840   4.257  0.0165  0.2714 -0.0198
 3792TIP3    H111340   4.105   5.825   4.165 -1.1669 -2.3096  0.6058
 3792TIP3    H211341   4.216   5.804   4.266 -0.1872 -0.2244  0.0187
 3793TIP3   OH211342   3.385   0.521   4.220  0.5222  0.0242 -0.1928
 3793TIP3    H111343   3.465   0.473   4.238 -0.4446 -1.3846  0.5725
 3793TIP3    H211344   3.366   0.503   4.128  0.2954 -0.9156  0.0247
 3794TIP3   OH211345   2.655   6.073   2.986 -0.0555  0.6196 -0.0317
 3794TIP3    H111346   2.642   6.034   2.899  0.1113 -2.6665  1.2596
 3794TIP3    H211347   2.579   6.130   2.997 -0.6948  0.2159 -1.8735
 3795TIP3   OH211348   2.564   3.765   4.798  0.0321 -0.1528  0.3781
 3795TIP3    H111349   2.488   3.820   4.817 -0.5921 -0.9807  0.3551
 3795TIP3    H211350   2.579   3.717   4.880  2.3414  2.0398  1.3920
 3796TIP3   OH211351   6.077   4.483   2.907  0.0081 -0.1093 -0.2853
 3796TIP3    H111352   6.061   4.577   2.916  0.0665 -0.2656  1.8672
 3796TIP3    H211353   6.169   4.472   2.931  0.1007 -0.6850 -0.8744
 3797TIP3   OH211354   6.479   0.719   1.793 -0.2545 -0.1346 -0.0055
 3797TIP3    H111355   6.411   0.748   1.733 -0.5387  1.5852  1.0660
 3797TIP3    H211356   6.560   0.725   1.742 -0.5999  0.3604 -0.5043
 3798TIP3   OH211357   1.074   0.962   2.534  0.1107 -0.3617  0.2835
 3798TIP3    H111358   1.167   0.978   2.524  0.4446 -2.1672  0.0779
 3798TIP3    H211359   1.056   0.888   2.475 -1.2169 -0.7257  1.0969
 3799TIP3   OH211360   7.068   3.826   2.083  0.0586 -0.3215  0.1916
 3799TIP3    H111361   7.129   3.885   2.129 -0.2304 -1.0574  1.5600
 3799TIP3    H211362   7.094   3.738   2.110 -1.2597 -0.6839  0.3545
 3800TIP3   OH211363   2.135   3.284   1.396  0.1167 -0.6241  0.3204
 3800TIP3    H111364   2.063   3.228   1.426 -0.2650  0.3894  1.3318
 3800TIP3    H211365   2.122   3.289   1.301 -1.0352 -0.6163  0.4618
 3801TIP3   OH211366   4.069   2.717   5.695 -0.8536  0.1519 -0.3042
 3801TIP3    H111367   4.095   2.774   5.622 -0.6344  2.0788  1.2235
 3801TIP3    H211368   4.078   2.771   5.773 -1.7791 -1.6343  1.1189
 3802TIP3   OH211369   1.552   3.646   1.647  0.0217  0.2226 -0.0414
 3802TIP3    H111370   1.480   3.656   1.585  0.2662  0.8095 -0.2370
 3802TIP3    H211371   1.575   3.735   1.672  1.0846  0.0868 -0.4624
 3803TIP3   OH211372   3.891   6.001   4.274 -0.1230  0.3589  0.1065
 3803TIP3    H111373   3.959   5.935   4.259  0.6580  0.8785  1.1902
 3803TIP3    H211374   3.809   5.955   4.263  0.2762 -1.7144  3.9374
 3804TIP3   OH211375   3.865   4.667   2.253 -0.2437 -0.2653 -0.3188
 3804TIP3    H111376   3.887   4.643   2.343 -0.3156  0.4514 -0.1022
 3804TIP3    H211377   3.918   4.609   2.199  1.6941  0.9258  0.1827
 3805TIP3   OH211378   0.202   4.149   0.177 -0.2956 -0.3011 -0.3889
 3805TIP3    H111379   0.211   4.098   0.096 -0.1726 -0.9774  0.0504
 3805TIP3    H211380   0.261   4.107   0.239  0.6787  1.0644 -0.3405
 3806TIP3   OH211381   4.826   5.569   3.396 -0.6866  0.3755 -0.3119
 3806TIP3    H111382   4.754   5.558   3.333  0.6239 -1.4348 -1.5862
 3806TIP3    H211383   4.905   5.546   3.347  0.4929 -0.3621  1.8035
 3807TIP3   OH211384   3.204   1.539   2.982 -0.6853 -0.4652  0.1159
 3807TIP3    H111385   3.194   1.507   2.892  1.2179  1.1033 -0.7311
 3807TIP3    H211386   3.144   1.613   2.987 -0.3162 -0.1410 -0.1172
 3808TIP3   OH211387   6.118   2.412   2.111  0.1491 -0.1801 -0.0051
 3808TIP3    H111388   6.069   2.434   2.190 -1.2055  0.1998 -0.9119
 3808TIP3    H211389   6.169   2.335   2.135  0.3357  0.3707  1.4470
 3809TIP3   OH211390   2.046   5.674   5.800 -0.3004 -0.2855  0.9292
 3809TIP3    H111391   2.097   5.663   5.720  0.7655  0.1906  1.5195
 3809TIP3    H211392   2.039   5.768   5.812 -0.4067 -0.3515  1.4158
 3810TIP3   OH211393   3.431   4.725   4.246  0.0995  0.1816 -0.1974
 3810TIP3    H111394   3.344   4.757   4.268 -0.2527 -0.1243 -1.1439
 3810TIP3    H211395   3.448   4.758   4.158  1.9184  2.2537  0.8082
 3811TIP3   OH211396   5.423   5.285   1.314  0.0020 -0.0054 -0.4450
 3811TIP3    H111397   5.455   5.195   1.320  0.0375  0.0826  0.8534
 3811TIP3    H211398   5.331   5.276   1.292  0.1093 -0.3330 -0.7887
 3812TIP3   OH211399   1.756   4.614   1.629 -0.2567  0.1837  0.7623
 3812TIP3    H111400   1.765   4.709   1.639  1.5255 -0.0025  1.4177
 3812TIP3    H211401   1.704   4.602   1.550 -1.3607  1.7034  1.2310
 3813TIP3   OH211402   5.711   6.485   4.884  0.5787 -0.5566  0.2547
 3813TIP3    H111403   5.629   6.456   4.924  1.1707  0.0184  1.9465
 3813TIP3    H211404   5.779   6.433   4.926  1.1933 -0.2706 -0.3565
 3814TIP3   OH211405   6.908   5.132   4.078 -0.6726  0.1338 -0.7783
 3814TIP3    H111406   6.974   5.094   4.136 -0.5995  0.5350 -0.5926
 3814TIP3    H211407   6.859   5.192   4.135 -1.2789 -0.2590 -0.8838
 3815TIP3   OH211408   5.549   2.217   4.396  0.0438 -0.0513  0.1967
 3815TIP3    H111409   5.559   2.160   4.472  2.0881  0.6023  0.5038
 3815TIP3    H211410   5.460   2.250   4.401 -0.7463 -2.1415  0.7559
 3816TIP3   OH211411   2.156   5.382   0.286  0.2444 -0.4222 -0.2600
 3816TIP3    H111412   2.238   5.383   0.335  0.5268 -2.8675 -0.5337
 3816TIP3    H211413   2.093   5.342   0.346  0.1099 -1.6138 -1.1565
 3817TIP3   OH211414   5.655   6.042   0.624  0.7143 -0.0788 -0.0350
 3817TIP3    H111415   5.647   6.076   0.535 -3.4821 -1.2870 -0.3294
 3817TIP3    H211416   5.641   5.948   0.615 -0.7720 -0.1111  1.9697
 3818TIP3   OH211417   0.112   2.108   3.987 -0.1588  0.2725 -0.3569
 3818TIP3    H111418   0.173   2.151   4.048 -0.0182  1.8046 -1.5218
 3818TIP3    H211419   0.097   2.021   4.026  1.9502  0.2273  0.4944
 3819TIP3   OH211420   3.178   1.261   2.091 -0.3961  0.5195  0.1498
 3819TIP3    H111421   3.249   1.222   2.142  0.7044  3.5809  1.2085
 3819TIP3    H211422   3.216   1.276   2.005 -1.2100 -1.6532 -0.6584
 3820TIP3   OH211423   0.250   5.434   5.739 -0.0583  0.2783  0.0550
 3820TIP3    H111424   0.196   5.483   5.802  0.7928  1.8240 -0.3885
 3820TIP3    H211425   0.189   5.410   5.669 -0.6866 -0.1738  0.7293
 3821TIP3   OH211426   6.444   5.481   0.979  0.0215 -0.2379 -0.2989
 3821TIP3    H111427   6.520   5.430   0.951 -0.5379 -1.5120  0.4402
 3821TIP3    H211428   6.479   5.547   1.037  0.4986 -1.3086  0.6654
 3822TIP3   OH211429   6.121   2.289   4.219 -0.7239 -0.1682  0.1302
 3822TIP3    H111430   6.177   2.289   4.142  0.4246  0.8058  0.9247
 3822TIP3    H211431   6.101   2.197   4.235 -0.2970 -0.4360 -0.8350
 3823TIP3   OH211432   0.508   4.452   3.661 -0.1208  0.2915 -0.1357
 3823TIP3    H111433   0.552   4.518   3.715  1.0638 -1.1774  0.7542
 3823TIP3    H211434   0.521   4.482   3.571 -0.5597  1.8261  0.2755
 3824TIP3   OH211435   5.649   2.481   0.874  0.2703  0.2901 -1.0536
 3824TIP3    H111436   5.694   2.429   0.807  0.1748 -1.2578  0.0354
 3824TIP3    H211437   5.700   2.467   0.953 -0.8250  0.3751 -0.3135
 3825TIP3   OH211438   0.462   6.004   0.714 -0.6699  0.2395  0.2532
 3825TIP3    H111439   0.454   5.936   0.647 -1.4715  0.2941  0.2835
 3825TIP3    H211440   0.553   6.034   0.707 -0.4180 -0.5713 -0.0126
 3826TIP3   OH211441   1.813   4.611   0.143  0.5521 -0.2161 -0.4766
 3826TIP3    H111442   1.766   4.689   0.117  0.0144 -1.3056 -3.1762
 3826TIP3    H211443   1.755   4.538   0.119  1.4959 -1.4885  0.8751
 3827TIP3   OH211444   5.205   5.282   4.788 -0.1973 -0.2410 -0.3115
 3827TIP3    H111445   5.252   5.356   4.826 -0.1528 -0.0528 -0.7319
 3827TIP3    H211446   5.145   5.253   4.858 -1.4560  1.2790 -0.7014
 3828TIP3   OH211447   5.001   1.184   1.953 -0.4034  0.0065  0.2714
 3828TIP3    H111448   5.003   1.277   1.928 -0.9683 -0.2822 -0.8777
 3828TIP3    H211449   4.915   1.153   1.925 -0.0343 -0.9904  0.1971
 3829TIP3   OH211450   2.385   0.010   0.646  0.2116 -0.0840 -0.1901
 3829TIP3    H111451   2.368   0.104   0.638  1.2275  0.2106  0.8857
 3829TIP3    H211452   2.340  -0.028   0.571  1.8917  1.5461 -2.1625
 3830TIP3   OH211453   1.615   2.642   1.928  0.2742 -0.5472  0.2845
 3830TIP3    H111454   1.586   2.733   1.939  1.1149  0.0239 -1.7696
 3830TIP3    H211455   1.679   2.629   1.999 -0.5865  0.1083  1.2093
 3831TIP3   OH211456   2.448   2.526  -0.019 -0.0200  0.3121  0.5233
 3831TIP3    H111457   2.486   2.573   0.056 -0.1151  0.8328  0.2472
 3831TIP3    H211458   2.374   2.478   0.018  0.0806  0.3756  0.8092
 3832TIP3   OH211459   5.303   4.713   4.960 -0.0865  0.5479 -0.2577
 3832TIP3    H111460   5.261   4.766   5.028 -1.8647 -0.8076 -0.2090
 3832TIP3    H211461   5.362   4.773   4.915  2.5090  1.1140  3.5140
 3833TIP3   OH211462   0.969   3.238   3.744  0.3778 -0.3540  0.1780
 3833TIP3    H111463   1.036   3.280   3.690  0.1580 -0.4131 -0.1449
 3833TIP3    H211464   1.011   3.225   3.829  1.1493 -1.4267 -0.3472
 3834TIP3   OH211465   2.961   0.593   4.203 -0.0586  0.5729  0.5943
 3834TIP3    H111466   2.993   0.503   4.208 -0.6153  0.3977  1.1570
 3834TIP3    H211467   2.875   0.585   4.160  0.4782  0.9974 -0.6151
 3835TIP3   OH211468   4.205   3.490   3.727 -0.8263 -0.2433 -1.0246
 3835TIP3    H111469   4.285   3.541   3.715 -1.0338  0.3668  0.0436
 3835TIP3    H211470   4.191   3.447   3.643  0.5334 -0.2402 -1.2823
 3836TIP3   OH211471   4.293   5.789   3.602  0.5714 -0.4722  0.5432
 3836TIP3    H111472   4.239   5.867   3.602 -0.2404 -1.0118 -0.2688
 3836TIP3    H211473   4.374   5.815   3.646  0.0899  0.6525  0.7828
 3837TIP3   OH211474   0.070   2.503   2.760  0.4243  0.4756 -0.0863
 3837TIP3    H111475   0.088   2.482   2.668 -2.9082 -0.9609 -0.5803
 3837TIP3    H211476   0.037   2.593   2.758  0.8327  0.6230 -0.2195
 3838TIP3   OH211477   0.537   4.591   3.375 -0.1160  0.0019  0.1141
 3838TIP3    H111478   0.544   4.637   3.291 -1.0765 -1.3922 -0.7715
 3838TIP3    H211479   0.443   4.578   3.388  0.0879 -0.9117  0.7860
 3839TIP3   OH211480   4.200   4.155   0.703  0.2873 -0.4224  0.1618
 3839TIP3    H111481   4.264   4.213   0.663  0.2423  1.9233  3.1160
 3839TIP3    H211482   4.242   4.126   0.784 -1.9671  0.5336  1.7925
 3840TIP3   OH211483   4.023   2.373   0.374 -0.2616 -0.1523  0.1568
 3840TIP3    H111484   4.029   2.431   0.298  1.3254  0.2197  0.5218
 3840TIP3    H211485   4.053   2.288   0.341  1.1136  0.1747  0.4922
 3841TIP3   OH211486   2.991   1.678   5.574 -0.1189  0.0231  1.1749
 3841TIP3    H111487   2.922   1.744   5.579 -1.6502 -1.1754 -1.8048
 3841TIP3    H211488   2.949   1.598   5.606  0.7166 -0.2363  1.6662
 3842TIP3   OH211489   4.752   3.401   1.108 -0.3738 -0.9493 -0.3385
 3842TIP3    H111490   4.789   3.350   1.035  1.6973 -2.5133  1.6389
 3842TIP3    H211491   4.829   3.436   1.153 -1.5756 -0.1768  1.1892
 3843TIP3   OH211492   4.666   2.152   5.090  0.6529 -0.1560  0.3896
 3843TIP3    H111493   4.749   2.198   5.093  0.0014  1.5291 -2.9323
 3843TIP3    H211494   4.602   2.215   5.124  0.5210 -0.9756  1.7231
 3844TIP3   OH211495   1.160   3.881   2.825  0.7345 -0.2461  0.1798
 3844TIP3    H111496   1.168   3.975   2.810 -0.5094  0.1765  1.8650
 3844TIP3    H211497   1.179   3.870   2.918 -0.8662 -1.4019  0.4110
 3845TIP3   OH211498   2.983   4.673   4.892 -0.6000 -0.2472  0.1026
 3845TIP3    H111499   2.892   4.672   4.862 -0.1661  2.1850 -1.6484
 3845TIP3    H211500   2.990   4.753   4.944  1.0807  1.1369 -2.0724
 3846TIP3   OH211501   1.772   3.338   5.303  0.7002 -0.4831  0.7173
 3846TIP3    H111502   1.801   3.250   5.279 -0.0020 -0.5681  0.1120
 3846TIP3    H211503   1.681   3.326   5.332  0.8618 -0.0695  1.3916
 3847TIP3   OH211504   4.845   5.344   3.604 -0.1149 -0.0610 -0.2717
 3847TIP3    H111505   4.845   5.408   3.533 -1.9996 -0.9544 -1.1442
 3847TIP3    H211506   4.789   5.383   3.671 -0.8483 -0.5588 -0.5896
 3848TIP3   OH211507   4.613   1.436   2.452  0.0721  1.0022 -0.0165
 3848TIP3    H111508   4.601   1.525   2.485 -0.3697  0.8752  0.1725
 3848TIP3    H211509   4.603   1.444   2.358  0.2053  1.1841 -0.0148
 3849TIP3   OH211510   4.923   0.724   1.709  0.2420  0.1048  0.0221
 3849TIP3    H111511   4.881   0.658   1.654 -0.1745  1.3007 -1.1570
 3849TIP3    H211512   4.857   0.792   1.721  0.3239 -0.1212  2.0618
 3850TIP3   OH211513   2.371   5.306   0.429 -0.4535 -0.0267  0.2677
 3850TIP3    H111514   2.395   5.226   0.475  2.1428  0.5564  0.1049
 3850TIP3    H211515   2.358   5.371   0.498 -0.0610  0.0108  0.3063
 3851TIP3   OH211516   2.184   4.166   4.829  0.3977  0.2345  0.0015
 3851TIP3    H111517   2.105   4.117   4.805 -0.1772  0.9840  0.3191
 3851TIP3    H211518   2.159   4.258   4.819  0.5276  0.5528  2.1688
 3852TIP3   OH211519   6.561   6.471   1.436 -0.9054  0.2765 -0.4241
 3852TIP3    H111520   6.586   6.390   1.392  1.4713  1.5212 -1.6125
 3852TIP3    H211521   6.602   6.466   1.522 -1.2229  0.0065 -0.2860
 3853TIP3   OH211522   1.302   1.472   4.997  0.2500 -0.0272 -0.0536
 3853TIP3    H111523   1.376   1.421   5.031  0.3410  0.8546  1.1458
 3853TIP3    H211524   1.343   1.542   4.947  0.2829  0.7844  1.0669
 3854TIP3   OH211525   4.406   0.144   1.476  0.0652  0.9355  0.5686
 3854TIP3    H111526   4.392   0.052   1.500  0.9045  1.0113  1.4197
 3854TIP3    H211527   4.382   0.149   1.383  0.9860 -0.3731  0.2371
 3855TIP3   OH211528   5.055   0.499   2.520  0.2425 -0.4469 -0.1586
 3855TIP3    H111529   5.066   0.504   2.615 -0.2476  2.2394 -0.1806
 3855TIP3    H211530   4.966   0.466   2.507  0.5228 -1.4140  0.2619
 3856TIP3   OH211531   4.738   4.952   0.041  0.1608 -0.3891 -0.1860
 3856TIP3    H111532   4.715   5.012  -0.030 -0.3893 -0.4736 -0.0810
 3856TIP3    H211533   4.769   5.008   0.111 -0.7382 -0.1858  0.0635
 3857TIP3   OH211534   2.206   1.139   3.115  0.0522  0.1741 -0.0791
 3857TIP3    H111535   2.166   1.200   3.176 -0.0015 -1.1831  1.2841
 3857TIP3    H211536   2.132   1.093   3.075  0.1046  0.7916 -0.9403
 3858TIP3   OH211537   5.799   1.829   2.986  0.3384 -0.5746  0.1989
 3858TIP3    H111538   5.886   1.869   2.978  0.1214 -0.3788 -1.6977
 3858TIP3    H211539   5.768   1.821   2.896 -1.6386 -0.5981  0.8295
 3859TIP3   OH211540   0.513   5.843   5.723  0.4394 -0.4446 -0.0891
 3859TIP3    H111541   0.425   5.813   5.747  0.2637  0.6845  0.8184
 3859TIP3    H211542   0.497   5.914   5.660  0.8034 -1.6419 -1.5627
 3860TIP3   OH211543   2.082   4.036   2.048 -0.0965 -0.5683  0.5235
 3860TIP3    H111544   2.023   3.961   2.047 -0.6167 -0.1597  0.3666
 3860TIP3    H211545   2.135   4.024   2.127  0.5461 -1.6531 -0.0464
 3861TIP3   OH211546   4.463   4.628   0.062  0.3519 -0.0003  0.0531
 3861TIP3    H111547   4.555   4.639   0.038  0.3373  0.9835  0.4006
 3861TIP3    H211548   4.432   4.717   0.080 -0.7464 -0.2854 -0.3307
 3862TIP3   OH211549   5.667   5.496   4.062 -0.2416  0.4478 -0.1794
 3862TIP3    H111550   5.749   5.449   4.081 -0.5708 -0.3487 -0.6602
 3862TIP3    H211551   5.688   5.553   3.988 -0.1314  0.2004 -0.3405
 3863TIP3   OH211552   5.482   0.333   0.448  0.0623 -0.1884  0.5786
 3863TIP3    H111553   5.405   0.377   0.483 -0.9695 -0.2956 -1.4101
 3863TIP3    H211554   5.472   0.339   0.353  1.9929 -1.1129  0.2639
 3864TIP3   OH211555   3.937   4.646   5.745 -1.3902 -0.0295 -0.2141
 3864TIP3    H111556   3.889   4.709   5.691 -0.0369 -0.2522 -1.7387
 3864TIP3    H211557   3.981   4.589   5.682 -0.2880 -0.7277  1.1343
 3865TIP3   OH211558   1.715   5.488   1.509  0.4305  0.2319  0.0774
 3865TIP3    H111559   1.771   5.424   1.553  0.8340  0.8868  0.5381
 3865TIP3    H211560   1.669   5.532   1.581  1.4534  1.6479 -0.1015
 3866TIP3   OH211561   4.989   1.012   3.672  0.3883  0.3436 -0.5911
 3866TIP3    H111562   4.957   0.973   3.591  3.1062 -1.8989 -0.7391
 3866TIP3    H211563   4.988   1.107   3.655 -0.4890  0.0068 -2.6721
 3867TIP3   OH211564   1.146   1.442   1.260 -0.0732  0.1255  0.1803
 3867TIP3    H111565   1.120   1.388   1.335  2.2776 -0.0430  0.9450
 3867TIP3    H211566   1.189   1.518   1.299 -0.4207  0.9508 -0.9787
 3868TIP3   OH211567   0.267   1.847   3.800 -0.1275 -0.0313  0.3116
 3868TIP3    H111568   0.242   1.772   3.854 -0.8318  1.2465  1.8617
 3868TIP3    H211569   0.187   1.899   3.793  0.4454  0.7779 -0.3765
 3869TIP3   OH211570   4.628   2.780   3.370  0.1984 -0.0728 -0.8182
 3869TIP3    H111571   4.650   2.772   3.463 -1.6110 -1.6000 -0.4703
 3869TIP3    H211572   4.709   2.755   3.325  1.2357  1.0998  0.3118
 3870TIP3   OH211573   6.759   1.063   1.419 -0.0851 -0.4907  0.2171
 3870TIP3    H111574   6.699   1.130   1.388 -0.5166 -0.2343  1.5206
 3870TIP3    H211575   6.732   0.983   1.375  0.5776  0.1929 -1.5378
 3871TIP3   OH211576   6.185   3.727   1.257 -0.2706 -0.2123 -0.6443
 3871TIP3    H111577   6.245   3.754   1.188 -0.5621  0.6919 -0.5607
 3871TIP3    H211578   6.241   3.705   1.332 -0.0566  1.6597 -0.2088
 3872TIP3   OH211579   6.018   3.245   0.754  0.0110 -0.4544 -0.0336
 3872TIP3    H111580   5.938   3.262   0.802 -1.0639 -1.5458 -1.3576
 3872TIP3    H211581   6.025   3.149   0.752  0.3581 -0.4236 -1.4788
 3873TIP3   OH211582   4.227   0.684   4.016 -0.3805  0.1453  0.1272
 3873TIP3    H111583   4.140   0.665   3.980  0.4560  0.9204 -2.5382
 3873TIP3    H211584   4.275   0.721   3.943  2.1796 -0.0984  1.5887
 3874TIP3   OH211585   4.236   3.001   5.770 -0.5737  0.3651  0.2039
 3874TIP3    H111586   4.229   3.083   5.819  1.0734  0.6344  0.0246
 3874TIP3    H211587   4.296   2.947   5.822 -1.8849 -0.8899  0.4991
 3875TIP3   OH211588   6.052   3.800   0.052 -0.1094  0.3067 -0.1387
 3875TIP3    H111589   5.960   3.817   0.074  0.2278  1.3086  0.6266
 3875TIP3    H211590   6.078   3.731   0.112  0.1338  1.3461  1.0048
 3876TIP3   OH211591   3.067   3.664   0.651  0.0471  0.4316 -0.5792
 3876TIP3    H111592   3.156   3.643   0.624  1.1701  0.3728  2.6567
 3876TIP3    H211593   3.056   3.756   0.625  1.6650  0.9065  0.2549
 3877TIP3   OH211594   6.568   5.655   2.601  0.1081  0.1351 -0.0373
 3877TIP3    H111595   6.543   5.606   2.522  0.8919  0.5019 -0.5329
 3877TIP3    H211596   6.660   5.631   2.615  0.2263  0.7537  0.2468
 3878TIP3   OH211597   3.167   2.969   4.528  0.2410 -0.0015  0.2215
 3878TIP3    H111598   3.242   2.920   4.495  0.4308  0.5379 -0.1655
 3878TIP3    H211599   3.175   2.964   4.624  1.1032  0.5325  0.1921
 3879TIP3   OH211600   4.136   4.271   4.329 -0.2716 -0.8242 -0.3902
 3879TIP3    H111601   4.148   4.191   4.380  1.2870 -0.1761  0.3539
 3879TIP3    H211602   4.076   4.324   4.382  0.3719 -0.6535  0.1854
 3880TIP3   OH211603   4.449   5.612   0.671 -0.2964  0.1514  0.2507
 3880TIP3    H111604   4.469   5.693   0.624 -0.1138  0.4969  0.9188
 3880TIP3    H211605   4.408   5.556   0.605  1.0060  0.1865 -0.6400
 3881TIP3   OH211606   4.191   5.556   2.072 -0.1106  0.6063 -0.1396
 3881TIP3    H111607   4.116   5.609   2.047  0.4493  2.2352  1.4000
 3881TIP3    H211608   4.170   5.526   2.161 -0.5737 -2.1419 -1.0902
 3882TIP3   OH211609   5.812   4.572   1.854 -0.1271  0.0257 -0.0083
 3882TIP3    H111610   5.783   4.649   1.806 -1.0953 -0.3843 -0.0938
 3882TIP3    H211611   5.844   4.606   1.938 -0.9474  0.4822  0.1243
 3883TIP3   OH211612   6.032   2.301   0.305  0.2777 -0.3518 -0.0317
 3883TIP3    H111613   6.051   2.308   0.211 -2.8434  1.6307 -0.6860
 3883TIP3    H211614   5.992   2.216   0.315  1.2216 -0.8505 -0.3270
 3884TIP3   OH211615   2.638   2.892   5.781  0.6347 -0.5592 -0.7790
 3884TIP3    H111616   2.573   2.870   5.848 -0.4147  0.8723 -1.2659
 3884TIP3    H211617   2.705   2.826   5.790  0.0096 -1.0093  1.0036
 3885TIP3   OH211618   2.180   4.899   0.155  0.1163 -0.1303  0.3754
 3885TIP3    H111619   2.136   4.960   0.214 -1.9039 -0.6457 -0.4998
 3885TIP3    H211620   2.166   4.937   0.068  1.7364 -0.1549  0.0754
 3886TIP3   OH211621   3.317   3.846   5.646 -0.2392  0.7881  0.4348
 3886TIP3    H111622   3.352   3.760   5.669 -0.7291  1.0154  2.1422
 3886TIP3    H211623   3.384   3.908   5.675  0.7594  0.9994 -2.0249
 3887TIP3   OH211624   0.928   5.661   3.804 -0.6296  0.2924  0.9655
 3887TIP3    H111625   0.904   5.637   3.893  1.3136  0.9112  1.7191
 3887TIP3    H211626   0.905   5.753   3.797 -0.1943  0.4153  1.0780
 3888TIP3   OH211627   7.159   5.266   1.360  0.5507 -0.4508 -0.1380
 3888TIP3    H111628   7.221   5.244   1.291  3.5044 -0.5440  2.3331
 3888TIP3    H211629   7.089   5.202   1.351  2.4167 -2.4794 -1.1596
 3889TIP3   OH211630   0.129   4.044   4.911 -0.0654  0.1288 -0.1536
 3889TIP3    H111631   0.135   3.949   4.907 -0.0829  0.1529 -2.8156
 3889TIP3    H211632   0.066   4.061   4.980  1.3421 -1.6689  1.6922
 3890TIP3   OH211633   2.499   2.544   5.786  0.7977 -0.2926  0.6417
 3890TIP3    H111634   2.591   2.571   5.783  1.1574 -1.4956 -0.6768
 3890TIP3    H211635   2.450   2.621   5.758  1.4225  0.2733  1.0684
 3891TIP3   OH211636   6.313   3.643   3.875  0.7590 -0.3342 -0.2259
 3891TIP3    H111637   6.309   3.584   3.800 -0.9657  0.1797 -0.5985
 3891TIP3    H211638   6.289   3.729   3.839  0.7255  0.0781  0.7531
 3892TIP3   OH211639   2.869   4.154   4.980 -0.2098  0.2345  0.2776
 3892TIP3    H111640   2.843   4.146   4.889 -1.2449 -0.5900  0.6303
 3892TIP3    H211641   2.789   4.179   5.026  0.4938  1.5167  0.8477
 3893TIP3   OH211642   5.447   2.026   0.842 -0.4546  0.2594  0.1532
 3893TIP3    H111643   5.358   2.029   0.807 -0.2948  2.1101 -0.1825
 3893TIP3    H211644   5.499   1.989   0.771 -0.5482  1.6402 -0.6611
 3894TIP3   OH211645   0.185   3.727   1.775 -0.0915 -0.2380  0.4689
 3894TIP3    H111646   0.104   3.778   1.781  0.9970  1.7618 -0.5591
 3894TIP3    H211647   0.217   3.723   1.865  1.1173  3.3835  0.3810
 3895TIP3   OH211648   6.904   4.657   4.680  0.5207  0.6712 -0.0663
 3895TIP3    H111649   6.964   4.583   4.679  1.0334  1.0624  0.5220
 3895TIP3    H211650   6.886   4.671   4.773 -1.1857  0.0162 -0.2650
 3896TIP3   OH211651   1.589   2.911   1.684 -0.2994 -0.1834  0.5559
 3896TIP3    H111652   1.601   2.853   1.609 -0.8801  0.6164 -0.1849
 3896TIP3    H211653   1.575   2.997   1.645 -1.0133  0.1818  1.5805
 3897TIP3   OH211654   5.685   3.129   1.735 -0.4335 -0.4563  0.1026
 3897TIP3    H111655   5.775   3.101   1.750  0.2902  0.2524 -2.4675
 3897TIP3    H211656   5.660   3.088   1.653 -2.1862  0.0360  0.3345
 3898TIP3   OH211657   2.711   5.453   5.183  0.1635  0.1334 -0.3226
 3898TIP3    H111658   2.791   5.411   5.151  1.5718  1.8113  0.7993
 3898TIP3    H211659   2.726   5.463   5.277 -0.9828  1.2746 -0.2410
 3899TIP3   OH211660   3.847   1.672   1.910  0.1303  0.0695  0.1505
 3899TIP3    H111661   3.760   1.711   1.908 -0.5085 -1.2958 -0.3283
 3899TIP3    H211662   3.857   1.640   1.999 -1.0434 -2.2040 -0.4611
 3900TIP3   OH211663   1.734   1.827   4.246 -0.0965 -0.2849  0.2371
 3900TIP3    H111664   1.822   1.864   4.243  0.4204 -1.5042 -0.3694
 3900TIP3    H211665   1.747   1.733   4.239 -1.4324 -0.5216  0.5980
 3901TIP3   OH211666   4.792   4.833   5.511 -0.2588  0.1484 -0.0119
 3901TIP3    H111667   4.749   4.907   5.555 -0.0840 -0.0244  0.4610
 3901TIP3    H211668   4.721   4.773   5.490 -0.3362  0.1978  0.1062
 3902TIP3   OH211669   1.334   2.344   1.568 -0.1042 -0.0965  0.0010
 3902TIP3    H111670   1.407   2.387   1.611  1.1831 -1.1458 -1.0368
 3902TIP3    H211671   1.261   2.405   1.577  1.1721  1.4674  0.1347
 3903TIP3   OH211672   1.340   5.623   1.785  0.3156  0.5343 -0.6360
 3903TIP3    H111673   1.260   5.610   1.734  0.2542  1.5498 -0.8265
 3903TIP3    H211674   1.334   5.714   1.816 -0.0229 -0.2689  1.8398
 3904TIP3   OH211675   1.370   6.764   1.250 -0.5170 -0.3104 -0.6354
 3904TIP3    H111676   1.306   6.694   1.236  1.0136 -1.5377 -2.0264
 3904TIP3    H211677   1.382   6.803   1.163 -1.4415  1.8459  0.1368
 3905TIP3   OH211678   3.892   6.549   4.964 -0.5255 -0.3340  0.2275
 3905TIP3    H111679   3.857   6.580   4.880  0.2276  0.3293  0.1485
 3905TIP3    H211680   3.824   6.491   4.998 -1.3751  0.3350 -0.2755
 3906TIP3   OH211681   3.894   5.049   4.256 -0.2749  0.4554  0.5182
 3906TIP3    H111682   3.826   5.019   4.316 -0.2232  1.0027  0.8511
 3906TIP3    H211683   3.848   5.100   4.190 -0.5639 -1.4567 -0.8579
 3907TIP3   OH211684   0.334   2.697   4.677  0.6378  0.0905  0.0820
 3907TIP3    H111685   0.407   2.651   4.635  1.2530 -0.0726  1.2722
 3907TIP3    H211686   0.261   2.635   4.673  1.2506 -0.7378  0.9938
 3908TIP3   OH211687   1.311   2.735   0.312  0.8726  0.0537 -0.0555
 3908TIP3    H111688   1.339   2.783   0.234 -1.6774  1.5885 -0.1580
 3908TIP3    H211689   1.235   2.784   0.344 -0.1862 -2.3891  1.4879
 3909TIP3   OH211690   3.356   0.890   4.773  0.8156 -0.5963  0.0112
 3909TIP3    H111691   3.330   0.834   4.700  1.5625 -0.6770 -0.2019
 3909TIP3    H211692   3.322   0.977   4.751  0.9453 -0.6442 -0.3819
 3910TIP3   OH211693   5.653   5.731   0.488  0.1765 -0.2882 -0.3644
 3910TIP3    H111694   5.575   5.684   0.457 -0.4438  1.5888 -1.8782
 3910TIP3    H211695   5.725   5.670   0.473 -0.7044 -1.1546 -1.2598
 3911TIP3   OH211696   3.318   6.211   5.048 -0.5093  0.2755 -0.2756
 3911TIP3    H111697   3.313   6.281   4.983  1.0597  0.7747  0.0954
 3911TIP3    H211698   3.229   6.203   5.082 -1.0777  0.8835 -1.5619
 3912TIP3   OH211699   1.240   2.711   2.095  0.1862 -0.1734 -0.6603
 3912TIP3    H111700   1.168   2.766   2.065 -0.1625 -0.0974  0.2602
 3912TIP3    H211701   1.300   2.772   2.138  0.3166 -0.3691 -0.5639
 3913TIP3   OH211702   5.878   3.444   4.557 -0.0762  0.5286  0.0498
 3913TIP3    H111703   5.897   3.531   4.593  1.1003  1.1090 -1.8230
 3913TIP3    H211704   5.828   3.462   4.477  3.1571 -0.1793 -2.3339
 3914TIP3   OH211705   0.657   6.602   2.503  0.7251 -0.3325  0.2740
 3914TIP3    H111706   0.657   6.577   2.595  2.1381 -1.1043  0.0878
 3914TIP3    H211707   0.665   6.520   2.455 -0.3180  0.0297 -0.5690
 3915TIP3   OH211708   6.731   0.018   4.555 -0.5077 -0.2623  0.1188
 3915TIP3    H111709   6.739   0.096   4.610  0.1708 -1.0392  1.1610
 3915TIP3    H211710   6.817   0.010   4.513  0.1810 -1.6182  1.6753
 3916TIP3   OH211711   0.224   4.905   3.803 -0.3094 -0.0458  0.4704
 3916TIP3    H111712   0.239   4.824   3.852 -0.4291 -1.1430 -1.2024
 3916TIP3    H211713   0.158   4.880   3.738  0.2879  1.1723 -0.6309
 3917TIP3   OH211714   5.650   0.420   5.093  0.4338 -0.7258  0.0841
 3917TIP3    H111715   5.703   0.489   5.133  0.1162 -0.0814 -0.5652
 3917TIP3    H211716   5.712   0.351   5.070  0.9892 -0.0286 -0.5675
 3918TIP3   OH211717   0.428   1.979   3.621  0.2403  0.2605  0.2926
 3918TIP3    H111718   0.448   1.914   3.553 -2.0259  1.3688 -1.5760
 3918TIP3    H211719   0.389   1.929   3.692 -0.8464 -0.5476 -0.8360
 3919TIP3   OH211720   5.156   3.657   4.046 -0.6613  0.4705  0.0919
 3919TIP3    H111721   5.117   3.641   4.131  1.8163 -0.5685  1.1204
 3919TIP3    H211722   5.149   3.574   3.999  2.1008 -0.5055  1.1557
 3920TIP3   OH211723   2.827   5.236   0.351 -0.7917 -0.0515 -0.4073
 3920TIP3    H111724   2.761   5.231   0.282 -1.6530 -2.8560  0.4802
 3920TIP3    H211725   2.869   5.150   0.351  1.3040  0.8923  0.5942
 3921TIP3   OH211726   0.187   5.715   5.471  0.1132 -0.0229  0.0622
 3921TIP3    H111727   0.124   5.688   5.404  1.1106  0.0381 -0.9465
 3921TIP3    H211728   0.149   5.686   5.554 -1.3925  0.3439 -0.4765
 3922TIP3   OH211729   7.186   5.404   2.337  0.6667 -0.2588  0.0171
 3922TIP3    H111730   7.202   5.498   2.334  1.9248 -0.3948  1.3297
 3922TIP3    H211731   7.156   5.387   2.426  1.4821 -1.2230  0.1324
 3923TIP3   OH211732   4.942   5.093   2.576 -0.3990 -0.7737 -0.4242
 3923TIP3    H111733   4.856   5.052   2.587 -1.0098 -0.0345 -2.0129
 3923TIP3    H211734   4.925   5.167   2.517  1.2874 -0.4490 -0.5536
 3924TIP3   OH211735   5.616   0.130   4.268 -0.6228  0.9637 -0.1137
 3924TIP3    H111736   5.683   0.104   4.330 -0.1605  1.2046 -0.5083
 3924TIP3    H211737   5.569   0.049   4.248 -1.5538  1.0675  1.4454
 3925TIP3   OH211738   6.833   5.239   3.655 -0.0871 -0.3815  0.1129
 3925TIP3    H111739   6.856   5.151   3.687  1.5379 -0.0290  0.0165
 3925TIP3    H211740   6.909   5.265   3.603  1.2859  2.6296  3.2534
 3926TIP3   OH211741   2.162   2.582   3.981  0.4179  0.3699  0.1275
 3926TIP3    H111742   2.137   2.493   4.003 -0.2499  0.6504  0.5243
 3926TIP3    H211743   2.213   2.612   4.056 -1.9189  1.3513  1.4162
 3927TIP3   OH211744   6.168   6.611   4.433 -0.5055  0.4462  0.1011
 3927TIP3    H111745   6.238   6.666   4.396  0.3812 -0.4901  0.3416
 3927TIP3    H211746   6.183   6.614   4.527 -1.7008  1.4099  0.2840
 3928TIP3   OH211747   5.609   3.558   2.008  0.2616 -0.3868 -0.3621
 3928TIP3    H111748   5.525   3.604   2.005 -0.1087 -1.0368 -0.0619
 3928TIP3    H211749   5.653   3.583   1.926  0.3688  1.0458  0.1101
 3929TIP3   OH211750   0.991   3.506   3.921 -0.0551 -0.2288  0.2528
 3929TIP3    H111751   0.949   3.435   3.971 -0.4874  1.0661  1.8362
 3929TIP3    H211752   0.932   3.581   3.931  2.8441  1.9772  3.3533
 3930TIP3   OH211753   1.372   5.861   3.138 -0.4248 -0.3308 -0.0125
 3930TIP3    H111754   1.331   5.840   3.054 -1.7950  0.6961  0.3546
 3930TIP3    H211755   1.394   5.955   3.130  1.9331 -0.8229 -0.1916
 3931TIP3   OH211756   0.832   4.117   3.746 -0.4008 -0.1989 -0.2075
 3931TIP3    H111757   0.815   4.126   3.652  0.4714  0.3668 -0.3272
 3931TIP3    H211758   0.753   4.076   3.781 -0.1207 -1.9477 -1.4425
 3932TIP3   OH211759   2.897   6.166   1.298  0.0531 -0.1130 -0.2259
 3932TIP3    H111760   2.904   6.082   1.252  0.9867 -0.3273  0.2635
 3932TIP3    H211761   2.984   6.178   1.338  0.3532  1.6810 -1.3056
 3933TIP3   OH211762   3.909   2.501   5.403  0.0878 -0.0223  0.1344
 3933TIP3    H111763   4.001   2.526   5.394  0.1699  0.4132  1.7311
 3933TIP3    H211764   3.863   2.584   5.414 -0.4656 -0.2556 -0.3626
 3934TIP3   OH211765   5.240   6.651   3.141  0.0942  0.4957  0.4284
 3934TIP3    H111766   5.213   6.698   3.063  0.8542 -0.2270 -0.2899
 3934TIP3    H211767   5.321   6.694   3.169  0.9618 -0.5465 -0.4110
 3935TIP3   OH211768   0.417   3.504   0.400 -0.3995 -0.3905  0.2977
 3935TIP3    H111769   0.351   3.573   0.395 -0.5014 -0.5670 -1.5242
 3935TIP3    H211770   0.496   3.544   0.364 -0.1485 -0.8554  0.3303
 3936TIP3   OH211771   5.795   6.122   2.843  0.4334 -0.3873  0.1099
 3936TIP3    H111772   5.703   6.111   2.866  0.7148  1.0886  2.2519
 3936TIP3    H211773   5.833   6.035   2.857 -0.7766 -1.2912 -1.8462
 3937TIP3   OH211774   3.947   3.011   3.944 -0.5826  0.1206 -0.3132
 3937TIP3    H111775   4.013   3.072   3.975  0.4631 -1.2810  0.2999
 3937TIP3    H211776   3.988   2.965   3.870 -1.9801  1.3205 -1.9436
 3938TIP3   OH211777   2.575   0.815   2.901 -0.5343  0.2756 -0.0434
 3938TIP3    H111778   2.615   0.729   2.913 -1.8502 -0.5959 -1.5815
 3938TIP3    H211779   2.649   0.876   2.898  0.5874 -1.0756 -1.1705
 3939TIP3   OH211780   1.903   6.227   2.341 -0.4877  0.4929  0.0239
 3939TIP3    H111781   1.994   6.255   2.338 -0.1123 -0.7433 -0.8299
 3939TIP3    H211782   1.886   6.188   2.255 -1.8995  0.9128  0.0747
 3940TIP3   OH211783   5.677   2.559   4.870 -0.4901 -0.4051 -0.1965
 3940TIP3    H111784   5.603   2.590   4.923 -0.3852  0.0114 -0.2887
 3940TIP3    H211785   5.671   2.610   4.789  1.2432  1.3459  0.6951
 3941TIP3   OH211786   2.886   2.660   1.210 -0.2464  0.4243  0.6951
 3941TIP3    H111787   2.797   2.665   1.174  0.2412 -0.8749 -0.8347
 3941TIP3    H211788   2.882   2.590   1.276  0.2510 -2.0554 -1.6847
 3942TIP3   OH211789   1.868   0.868   1.879  0.0604 -0.6815  0.0300
 3942TIP3    H111790   1.831   0.867   1.791 -0.2496 -0.4828  0.1577
 3942TIP3    H211791   1.824   0.940   1.923 -0.1119 -1.0584  0.4874
 3943TIP3   OH211792   4.673   5.048   2.577  0.1198 -0.0107 -0.2342
 3943TIP3    H111793   4.612   5.083   2.512 -0.3419 -0.4136 -0.0184
 3943TIP3    H211794   4.618   5.001   2.640  0.7902 -2.1236 -1.1158
 3944TIP3   OH211795   0.602   4.654   0.444  0.1462  0.1079 -0.3999
 3944TIP3    H111796   0.608   4.690   0.533 -0.0300 -0.3477 -0.2002
 3944TIP3    H211797   0.544   4.578   0.453 -0.4106  0.4515 -1.0295
 3945TIP3   OH211798   3.827   3.849   1.728 -0.0658 -0.4087 -0.0187
 3945TIP3    H111799   3.848   3.827   1.819 -1.3013  0.7570  0.5719
 3945TIP3    H211800   3.892   3.915   1.704  0.5285 -1.0191 -0.1591
 3946TIP3   OH211801   0.339   0.943   2.782  1.0157  0.0587  0.2368
 3946TIP3    H111802   0.361   0.931   2.875  0.8814 -0.9938  0.1485
 3946TIP3    H211803   0.276   0.873   2.764  1.7988 -0.3733 -0.9020
 3947TIP3   OH211804   4.770   6.507   1.434 -0.2866 -0.7901  0.2240
 3947TIP3    H111805   4.708   6.501   1.361 -1.7030  0.1198  1.2907
 3947TIP3    H211806   4.738   6.442   1.497 -1.6673  1.2936  1.7999
 3948TIP3   OH211807   2.847   4.918   4.055 -0.8082 -0.0156  0.0417
 3948TIP3    H111808   2.883   4.932   4.143  0.5252 -2.1127 -0.0836
 3948TIP3    H211809   2.804   4.833   4.060 -1.5763  0.2888 -1.0941
 3949TIP3   OH211810   2.089   2.841   1.951 -0.4047 -0.1848  0.1399
 3949TIP3    H111811   2.013   2.802   1.907 -0.3405  1.4887 -1.5733
 3949TIP3    H211812   2.156   2.845   1.882  0.3091  0.8884  0.8722
 3950TIP3   OH211813   0.891   6.279   1.555  0.1501  0.0770  0.0564
 3950TIP3    H111814   0.946   6.326   1.492 -0.2118 -0.2133 -0.4858
 3950TIP3    H211815   0.814   6.253   1.504  0.8299 -2.1032  0.0208
 3951TIP3   OH211816   0.416   3.197   1.459 -0.4050 -0.7737 -0.6017
 3951TIP3    H111817   0.344   3.249   1.424 -0.9685 -1.4325 -0.4548
 3951TIP3    H211818   0.373   3.123   1.502  0.2650 -0.0988  1.3272
 3952TIP3   OH211819   5.020   4.792   3.973  0.4656 -0.0403  0.2289
 3952TIP3    H111820   4.966   4.800   3.895 -2.3143  1.2277  2.1330
 3952TIP3    H211821   5.064   4.877   3.980 -0.3546  0.3498  0.7480
 3953TIP3   OH211822   7.102   6.425   2.488  0.1547  0.4972  0.2121
 3953TIP3    H111823   7.158   6.470   2.551 -0.2795  0.4069  0.6695
 3953TIP3    H211824   7.030   6.390   2.540  0.1363 -0.1554 -0.2366
 3954TIP3   OH211825   2.677   3.384   5.643  0.3505  0.1384  0.3312
 3954TIP3    H111826   2.736   3.431   5.585 -0.3527  2.9856  1.6962
 3954TIP3    H211827   2.735   3.340   5.706  1.0494  0.6566  0.0620
 3955TIP3   OH211828   5.939   3.258   5.883  0.1429 -0.0252 -0.3315
 3955TIP3    H111829   5.889   3.340   5.886 -0.5467 -0.4521  1.7390
 3955TIP3    H211830   5.900   3.209   5.810 -1.9462  0.0361  0.6544
 3956TIP3   OH211831   6.733   4.803   4.500 -0.0533  0.1062 -0.0443
 3956TIP3    H111832   6.767   4.719   4.528 -0.8956 -0.9708 -2.0229
 3956TIP3    H211833   6.723   4.794   4.405 -0.3105  2.3910 -0.2987
 3957TIP3   OH211834   2.929   1.665   1.554 -0.1961 -0.1807 -0.4147
 3957TIP3    H111835   2.857   1.622   1.599 -0.5549 -1.2671 -1.9273
 3957TIP3    H211836   2.923   1.634   1.463  1.1052  1.0853 -0.9892
 3958TIP3   OH211837   4.515   3.023   3.359 -0.1956  0.4327  0.5071
 3958TIP3    H111838   4.475   3.009   3.445 -0.5443 -0.3714  0.2193
 3958TIP3    H211839   4.539   2.936   3.329 -2.5736  0.3196 -1.4114
 3959TIP3   OH211840   2.299   1.710   0.449  0.2620  0.2454  0.5306
 3959TIP3    H111841   2.246   1.753   0.382  0.2775 -0.7993 -0.1847
 3959TIP3    H211842   2.246   1.635   0.478  0.7663 -0.0186  0.7929
 3960TIP3   OH211843   2.209   1.627   4.965  0.2670 -0.0615  0.0698
 3960TIP3    H111844   2.238   1.697   5.023 -1.0665  1.1012 -0.5967
 3960TIP3    H211845   2.290   1.584   4.936  1.0417  0.5269  1.2991
 3961TIP3   OH211846   3.605   4.698   3.823  0.0773  0.2618 -0.2865
 3961TIP3    H111847   3.592   4.779   3.872 -0.6675 -0.4810  0.7785
 3961TIP3    H211848   3.591   4.723   3.731 -1.4537  1.0737  0.1421
 3962TIP3   OH211849   1.339   5.354   3.968 -0.0091  0.1445 -0.2745
 3962TIP3    H111850   1.259   5.364   3.915  0.6357  1.0114 -1.1215
 3962TIP3    H211851   1.410   5.360   3.904  0.7492 -3.7554 -0.0689
 3963TIP3   OH211852   1.473   1.146   1.780  0.0490 -0.0642 -0.0303
 3963TIP3    H111853   1.516   1.209   1.722 -1.2669  1.2300  0.3383
 3963TIP3    H211854   1.381   1.149   1.755 -0.1946 -1.1122  0.6779
 3964TIP3   OH211855   6.731   1.638   2.897 -0.2458 -0.0426 -0.4893
 3964TIP3    H111856   6.682   1.582   2.837 -1.4009 -0.0140  0.3965
 3964TIP3    H211857   6.681   1.636   2.978  0.9045  0.4883  0.2615
 3965TIP3   OH211858   0.282   1.368   5.171 -0.3796  0.0091 -0.1244
 3965TIP3    H111859   0.345   1.309   5.213  0.0431  0.2110 -0.4768
 3965TIP3    H211860   0.207   1.369   5.232  0.1299  0.1209  0.5115
 3966TIP3   OH211861   3.853   5.554   0.986 -0.0609  0.6320  0.5269
 3966TIP3    H111862   3.787   5.563   1.055 -0.5323  1.8408 -0.0525
 3966TIP3    H211863   3.864   5.460   0.976 -0.9347  0.4229  1.3653
 3967TIP3   OH211864   3.048   0.186   4.547  0.2167  0.3590  1.0033
 3967TIP3    H111865   2.970   0.196   4.493 -0.5197 -0.1072  1.9480
 3967TIP3    H211866   3.119   0.176   4.484 -0.5677  0.1514  0.1220
 3968TIP3   OH211867   6.613   3.539   0.868 -0.7156 -0.4089  0.2712
 3968TIP3    H111868   6.597   3.447   0.844  0.1962  0.1832 -3.0447
 3968TIP3    H211869   6.652   3.534   0.955 -0.5363 -3.1757  0.1401
 3969TIP3   OH211870   5.820   3.435   3.424 -0.3616  0.1511 -0.4487
 3969TIP3    H111871   5.728   3.447   3.445 -0.4961 -2.2738  0.6180
 3969TIP3    H211872   5.829   3.342   3.404  1.6639  0.5322 -1.6410
 3970TIP3   OH211873   6.985   2.340   2.158 -0.4356 -0.3522 -0.1270
 3970TIP3    H111874   7.073   2.303   2.172 -0.3938 -0.4914 -0.7307
 3970TIP3    H211875   7.001   2.431   2.132 -0.4654 -0.4413 -0.4501
 3971TIP3   OH211876   1.694   4.777   3.910  0.4746  0.3330  0.0662
 3971TIP3    H111877   1.659   4.864   3.931 -0.0137  0.5440 -1.5392
 3971TIP3    H211878   1.780   4.776   3.952 -0.3497  0.7732  1.8795
 3972TIP3   OH211879   0.381   2.797   2.299  0.2015  0.1792  0.0972
 3972TIP3    H111880   0.345   2.857   2.234 -2.0105 -0.6525  0.4746
 3972TIP3    H211881   0.318   2.800   2.372  0.7074 -1.6091  0.6566
 3973TIP3   OH211882   1.832   1.454   3.924 -0.1990 -0.1506  0.3097
 3973TIP3    H111883   1.737   1.444   3.913 -0.2900 -0.7108  1.5005
 3973TIP3    H211884   1.843   1.542   3.960 -0.2874 -0.1595  0.3581
 3974TIP3   OH211885   3.736   3.553   2.590 -0.3693 -0.7071 -0.2758
 3974TIP3    H111886   3.800   3.594   2.648  0.6029 -2.3033 -0.1648
 3974TIP3    H211887   3.770   3.465   2.574 -1.7199 -1.0503 -1.5367
 3975TIP3   OH211888   5.893   2.094   5.266 -0.2373 -0.6035 -0.3223
 3975TIP3    H111889   5.976   2.045   5.265  0.3599  0.0774 -4.3694
 3975TIP3    H211890   5.919   2.184   5.288 -0.3169 -0.8637  0.8561
 3976TIP3   OH211891   7.008   5.682   2.518  0.3736 -0.1181 -0.5608
 3976TIP3    H111892   7.085   5.655   2.569 -0.2620 -2.0610 -0.5107
 3976TIP3    H211893   7.030   5.661   2.428 -0.4801 -1.8425 -0.4182
 3977TIP3   OH211894   0.744   5.845   2.437  0.2227 -0.1857 -0.1858
 3977TIP3    H111895   0.805   5.812   2.371  0.2576 -0.0955 -0.1992
 3977TIP3    H211896   0.689   5.770   2.458 -0.2643 -0.0293 -0.8512
 3978TIP3   OH211897   5.656   1.992   3.168  0.2937 -0.3816  0.7922
 3978TIP3    H111898   5.569   1.952   3.164 -0.0860  0.2938  1.8071
 3978TIP3    H211899   5.714   1.927   3.129 -0.8547 -0.2210 -1.2956
 3979TIP3   OH211900   3.897   0.668   4.599 -0.1802  0.1933 -0.0642
 3979TIP3    H111901   3.936   0.628   4.677 -1.5156  0.0040  0.5312
 3979TIP3    H211902   3.913   0.761   4.610  0.1710  0.1121  0.1363
 3980TIP3   OH211903   3.451   3.761   3.083 -0.9612 -0.2018  0.7166
 3980TIP3    H111904   3.476   3.843   3.124 -0.7928 -0.0006  0.2226
 3980TIP3    H211905   3.388   3.785   3.015  0.3479 -0.2572 -0.5784
 3981TIP3   OH211906   2.673   0.401   4.283  0.1875 -0.3579  0.8183
 3981TIP3    H111907   2.679   0.438   4.195  0.6709  0.0236  1.0059
 3981TIP3    H211908   2.672   0.477   4.342  0.0954 -0.6129  1.1507
 3982TIP3   OH211909   4.497   6.687   1.068 -0.1033 -0.2454  0.1005
 3982TIP3    H111910   4.508   6.598   1.102  0.8979 -0.7230 -1.4139
 3982TIP3    H211911   4.517   6.680   0.975 -3.3430  0.9063 -0.7923
 3983TIP3   OH211912   1.013   3.580   2.783 -0.4951 -0.3361 -0.1267
 3983TIP3    H111913   1.060   3.663   2.781  0.7821 -1.0422 -2.3703
 3983TIP3    H211914   1.065   3.525   2.842  0.7355 -0.6227 -1.4083
 3984TIP3   OH211915   4.262   1.307   4.811 -0.0334 -0.4435  0.3967
 3984TIP3    H111916   4.271   1.400   4.791 -1.4166 -0.7124 -1.7148
 3984TIP3    H211917   4.176   1.300   4.853 -0.2538 -0.8455 -0.1077
 3985TIP3   OH211918   6.635   1.678   4.524 -0.1247  0.0796  0.5020
 3985TIP3    H111919   6.575   1.730   4.470 -0.3626  0.8970  1.5170
 3985TIP3    H211920   6.694   1.636   4.460  0.4414  2.0557 -0.3788
 3986TIP3   OH211921   2.823   0.280   1.348  0.0766  0.1953 -0.0999
 3986TIP3    H111922   2.891   0.232   1.301  0.9841  0.5003  0.8710
 3986TIP3    H211923   2.810   0.231   1.429  1.1814  1.6757  1.0087
 3987TIP3   OH211924   5.091   3.247   1.495  0.3593 -0.0726  0.5216
 3987TIP3    H111925   5.164   3.193   1.463  0.4818  0.0449  0.6023
 3987TIP3    H211926   5.051   3.283   1.416  0.9936  0.6524  0.5241
 3988TIP3   OH211927   2.572   5.709   3.254 -0.3335 -0.1001  0.0015
 3988TIP3    H111928   2.523   5.717   3.336 -0.4542  0.2583 -0.1025
 3988TIP3    H211929   2.516   5.749   3.188  0.3282  0.8396 -0.0216
 3989TIP3   OH211930   5.372   1.519   3.567 -0.3182  0.3440  0.3071
 3989TIP3    H111931   5.304   1.571   3.610  1.4753  1.2349  2.2596
 3989TIP3    H211932   5.414   1.580   3.506 -1.9567 -0.5335 -1.7867
 3990TIP3   OH211933   6.848   6.686   3.716 -0.1062 -0.0690 -0.0692
 3990TIP3    H111934   6.848   6.598   3.753  0.4063  0.2141  0.6247
 3990TIP3    H211935   6.764   6.724   3.743 -0.6319 -0.5652 -0.9465
 3991TIP3   OH211936   6.051   3.407   3.604  0.0051  0.1039 -0.0080
 3991TIP3    H111937   6.123   3.443   3.553  0.5024  0.3182  0.8313
 3991TIP3    H211938   5.983   3.388   3.539 -0.6220  3.2939 -0.4399
 3992TIP3   OH211939   5.802   2.692   3.115  0.8255  0.6390  0.1959
 3992TIP3    H111940   5.856   2.626   3.160  0.9588 -0.0722 -0.9677
 3992TIP3    H211941   5.721   2.646   3.093  0.9552  0.8141 -0.7037
 3993TIP3   OH211942   0.973   4.703   0.728  0.0225  0.4724 -0.2363
 3993TIP3    H111943   0.978   4.645   0.651  0.9755  0.6476 -0.3120
 3993TIP3    H211944   0.884   4.689   0.762 -0.1538 -0.1732 -0.9259
 3994TIP3   OH211945   4.285   0.153   2.210 -0.0431 -0.0560 -0.1749
 3994TIP3    H111946   4.276   0.073   2.262 -1.4217  0.9214  1.1758
 3994TIP3    H211947   4.208   0.154   2.154  0.7560 -0.4173 -1.3200
 3995TIP3   OH211948   3.120   1.586   2.056  0.1157 -0.5818  0.3340
 3995TIP3    H111949   3.149   1.495   2.065  1.4200 -0.1845  0.4543
 3995TIP3    H211950   3.101   1.613   2.146  1.4951 -0.2208  0.5519
 3996TIP3   OH211951   2.093   4.220   0.982  0.8459 -0.2453 -0.1925
 3996TIP3    H111952   2.180   4.206   1.019  1.1511 -0.0644 -0.8280
 3996TIP3    H211953   2.045   4.269   1.050  0.7589 -1.6016  0.7642
 3997TIP3   OH211954   1.340   4.220   1.687 -0.2569  0.4010  0.6365
 3997TIP3    H111955   1.330   4.310   1.657 -1.7426 -0.2423 -0.9370
 3997TIP3    H211956   1.433   4.212   1.708 -0.0775  2.2564  0.6951
 3998TIP3   OH211957   6.148   1.195   4.907 -0.3464 -0.8456  0.1934
 3998TIP3    H111958   6.223   1.229   4.859 -0.1410 -0.2996  0.8809
 3998TIP3    H211959   6.080   1.261   4.895 -0.7696 -1.4058 -0.5437
 3999TIP3   OH211960   1.140   5.945   2.155 -0.3232  0.2498  0.2366
 3999TIP3    H111961   1.204   6.010   2.126 -0.9278  0.7188 -0.0923
 3999TIP3    H211962   1.183   5.861   2.142 -0.4868  0.4337 -1.9550
 4000TIP3   OH211963   2.826   6.408   4.553  0.1575  0.3551  0.2098
 4000TIP3    H111964   2.884   6.396   4.478 -0.1971 -0.1532  0.0086
 4000TIP3    H211965   2.748   6.358   4.531 -0.7273  1.7272  0.0889
 4001TIP3   OH211966   3.552   5.150   4.569 -0.2030 -0.1412 -0.0767
 4001TIP3    H111967   3.496   5.225   4.588  0.5773  0.3649  0.3036
 4001TIP3    H211968   3.622   5.156   4.634 -0.1190 -1.1957 -0.0517
 4002TIP3   OH211969   3.439   0.689   0.563  0.3761 -0.5808 -0.2080
 4002TIP3    H111970   3.438   0.735   0.479  2.1261 -0.6279 -0.2949
 4002TIP3    H211971   3.398   0.605   0.546 -0.7498  0.0365 -0.6114
 4003TIP3   OH211972   0.264   3.329   0.088  0.1312  0.1110  0.1854
 4003TIP3    H111973   0.267   3.425   0.085  1.4574  0.0585 -1.3099
 4003TIP3    H211974   0.199   3.305   0.022  1.3279 -0.0373 -0.9880
 4004TIP3   OH211975   3.827   1.729   0.127  0.1130 -0.0014 -0.4446
 4004TIP3    H111976   3.806   1.818   0.155 -1.3499  0.1538 -1.8272
 4004TIP3    H211977   3.789   1.723   0.039 -1.3891 -2.5158  0.2600
 4005TIP3   OH211978   5.351   0.890   2.212 -0.7687 -0.0115  0.3067
 4005TIP3    H111979   5.430   0.943   2.222 -0.3155 -0.7382  0.6387
 4005TIP3    H211980   5.308   0.926   2.134 -0.2155  0.5137  0.2378
 4006TIP3   OH211981   1.323   3.008   0.553 -0.4488 -0.2080  1.4095
 4006TIP3    H111982   1.327   3.100   0.526  0.2753 -1.1164 -2.1128
 4006TIP3    H211983   1.253   2.970   0.500 -0.2469 -1.8472  2.2400
 4007TIP3   OH211984   6.850   5.395   2.337  0.6284  0.4639 -0.1290
 4007TIP3    H111985   6.763   5.413   2.300  1.2012  1.3483 -1.0857
 4007TIP3    H211986   6.841   5.417   2.430  0.3209  2.4623 -0.5809
 4008TIP3   OH211987   5.811   5.340   2.093  0.5684  0.1395  0.4490
 4008TIP3    H111988   5.715   5.345   2.085  0.4272 -2.3770 -0.2339
 4008TIP3    H211989   5.827   5.331   2.186  0.2114  1.1271  0.6228
 4009TIP3   OH211990   4.578   6.520   0.444 -0.1532 -0.0968  0.2124
 4009TIP3    H111991   4.513   6.584   0.472 -2.4076 -2.3279  0.3564
 4009TIP3    H211992   4.572   6.520   0.348  0.4593  0.4310  0.1583
 4010TIP3   OH211993   4.222   5.676   5.597 -0.2963 -0.1161  0.0944
 4010TIP3    H111994   4.176   5.748   5.554  1.4319  0.5839 -0.6785
 4010TIP3    H211995   4.204   5.600   5.543 -1.9498 -0.2678  0.7882
 4011TIP3   OH211996   4.104   2.130   5.329 -0.5157 -0.2235 -0.1705
 4011TIP3    H111997   4.103   2.144   5.424  1.3635  1.3493 -0.3395
 4011TIP3    H211998   4.196   2.123   5.306 -0.8921  0.4019 -2.0343
 4012TIP3   OH211999   0.745   1.304   0.414  0.0816  0.0847  0.1359
 4012TIP3    H112000   0.716   1.379   0.362 -2.0084 -1.5098 -1.1510
 4012TIP3    H212001   0.689   1.305   0.492 -0.5748 -0.6182 -0.3159
 4013TIP3   OH212002   4.971   0.352   0.484  0.3765  0.0670  1.1082
 4013TIP3    H112003   5.054   0.379   0.446  0.0121 -0.8939 -0.5153
 4013TIP3    H212004   4.908   0.362   0.412 -0.4842 -1.2283  1.6323
 4014TIP3   OH212005   3.822   2.550   2.678  0.0127 -0.0263 -0.3499
 4014TIP3    H112006   3.912   2.545   2.711  0.5017  1.0181 -1.4635
 4014TIP3    H212007   3.810   2.642   2.656 -0.5762 -0.5115 -2.2441
 4015TIP3   OH212008   6.029   4.468   3.792 -0.4310 -0.0218 -0.4076
 4015TIP3    H112009   5.976   4.388   3.799 -1.7845  1.0025  1.9289
 4015TIP3    H212010   6.102   4.453   3.852  0.2957 -0.1830 -1.3122
 4016TIP3   OH212011   5.025   6.526   0.058  0.4766 -0.2870 -0.1963
 4016TIP3    H112012   4.973   6.447   0.043 -0.8368  0.5335 -0.0389
 4016TIP3    H212013   5.089   6.526  -0.014 -0.0764 -1.0347 -0.7074
 4017TIP3   OH212014   2.333   3.564   2.078  0.2400  0.2967  0.1210
 4017TIP3    H112015   2.332   3.601   2.167 -2.1483 -0.0274  0.2821
 4017TIP3    H212016   2.256   3.507   2.075  1.2757 -1.0931 -1.6133
 4018TIP3   OH212017   4.610   4.210   5.309 -0.3767  0.3530  0.0739
 4018TIP3    H112018   4.624   4.119   5.285 -0.1142  0.4246 -0.0464
 4018TIP3    H212019   4.515   4.219   5.315 -0.4833  0.4245 -1.3187
 4019TIP3   OH212020   3.809   5.938   2.310  0.3872  0.3056 -0.2626
 4019TIP3    H112021   3.880   5.983   2.265 -1.0116  1.4374 -1.4349
 4019TIP3    H212022   3.745   6.007   2.329 -1.7681 -1.0938 -1.9940
 4020TIP3   OH212023   2.038   1.698   2.241 -0.1906 -0.1572 -0.4429
 4020TIP3    H112024   2.133   1.684   2.238 -0.1889 -0.2015 -0.1780
 4020TIP3    H212025   2.005   1.648   2.166 -0.1468 -1.3170  0.2819
 4021TIP3   OH212026   6.059   4.680   0.351  0.3886 -0.0823  0.7185
 4021TIP3    H112027   6.097   4.600   0.388  1.7860  0.2501  0.0718
 4021TIP3    H212028   6.073   4.672   0.257 -0.9574  0.1927  0.4696
 4022TIP3   OH212029   6.126   3.155   2.935 -0.1704  0.2981 -0.3890
 4022TIP3    H112030   6.121   3.109   2.851  0.1968 -1.2745  0.4133
 4022TIP3    H212031   6.035   3.169   2.960 -0.3026  1.7789 -1.5313
 4023TIP3   OH212032   2.373   5.459   3.223 -0.1530  0.0732  0.3056
 4023TIP3    H112033   2.352   5.512   3.300  0.8594  0.1026  0.5801
 4023TIP3    H212034   2.348   5.514   3.148 -2.7750 -0.6350  0.5733
 4024TIP3   OH212035   2.526   1.342   2.469 -0.4763  0.1087 -0.0096
 4024TIP3    H112036   2.582   1.420   2.469 -0.2125 -0.0670 -1.3275
 4024TIP3    H212037   2.585   1.270   2.446 -0.2694 -0.8738  3.1028
 4025TIP3   OH212038   5.874   3.511   3.069 -0.6680  0.3178  0.0829
 4025TIP3    H112039   5.947   3.573   3.075 -1.1253  0.9280 -0.4737
 4025TIP3    H212040   5.916   3.425   3.066  0.1389  0.7117 -1.7095
 4026TIP3   OH212041   5.211   5.630   4.615 -0.0241 -0.2651  0.0497
 4026TIP3    H112042   5.181   5.719   4.630  1.1117  0.0675  0.4614
 4026TIP3    H212043   5.188   5.583   4.696  0.6698  0.0285  0.4299
 4027TIP3   OH212044   3.568   3.094   0.639 -0.1704  0.3155  0.3824
 4027TIP3    H112045   3.497   3.052   0.590  0.2113  0.2467 -0.1172
 4027TIP3    H212046   3.623   3.134   0.572  0.0728  0.6721  0.7909
 4028TIP3   OH212047   6.289   2.361   0.878 -0.3749  0.1765 -0.0938
 4028TIP3    H112048   6.251   2.340   0.964  0.8930  0.1696  0.4949
 4028TIP3    H212049   6.312   2.453   0.883 -0.4594  0.2215 -0.4956
 4029TIP3   OH212050   2.984   6.334   3.064  0.0742 -0.2406 -0.3181
 4029TIP3    H112051   2.994   6.288   3.147  0.1981 -0.0806 -0.2444
 4029TIP3    H212052   2.990   6.426   3.087 -1.7979 -0.1163 -0.2372
 4030TIP3   OH212053   1.613   1.228   4.433 -0.5458 -0.0826  0.6609
 4030TIP3    H112054   1.650   1.311   4.464  1.0716 -1.1032  1.5873
 4030TIP3    H212055   1.574   1.188   4.510 -0.2521 -0.7201  0.4872
 4031TIP3   OH212056   0.170   1.726   1.756 -0.1518 -0.1830  0.5431
 4031TIP3    H112057   0.201   1.695   1.671  0.8850  0.9204  0.4815
 4031TIP3    H212058   0.088   1.680   1.770  0.4995 -1.6722 -0.2623
 4032TIP3   OH212059   5.305   1.206   0.728 -0.2509  0.3003 -0.1784
 4032TIP3    H112060   5.266   1.181   0.644 -0.9069 -1.0407  0.4994
 4032TIP3    H212061   5.248   1.165   0.794  1.2626 -0.1724  0.8788
 4033TIP3   OH212062   6.790   4.189   4.133 -0.1766  0.3660 -0.6189
 4033TIP3    H112063   6.775   4.192   4.227 -0.9682 -1.5346 -0.6271
 4033TIP3    H212064   6.868   4.134   4.123 -1.2983 -1.2283 -1.0957
 4034TIP3   OH212065   3.639   3.262   2.535 -0.4200 -0.0677  0.1270
 4034TIP3    H112066   3.681   3.209   2.601 -0.2756 -0.0464  0.0520
 4034TIP3    H212067   3.577   3.317   2.583  0.4874  0.7566  0.3791
 4035TIP3   OH212068   0.450   0.108   1.708 -0.4818 -0.4440  0.4357
 4035TIP3    H112069   0.452   0.189   1.758 -3.3064  2.0594 -3.0243
 4035TIP3    H212070   0.358   0.083   1.706 -0.2646 -1.3161 -2.0292
 4036TIP3   OH212071   5.244   0.622   3.876 -0.2937 -0.3344  1.0515
 4036TIP3    H112072   5.315   0.575   3.832  0.4296  2.3571 -0.9775
 4036TIP3    H212073   5.288   0.681   3.938 -0.9872 -0.7048  1.9153
 4037TIP3   OH212074   0.445   4.187   5.741 -0.6494  0.4740 -0.0742
 4037TIP3    H112075   0.538   4.198   5.763 -1.1671  0.4857  2.4424
 4037TIP3    H212076   0.426   4.258   5.680  0.6477  1.4825  0.6481
 4038TIP3   OH212077   3.913   1.455   0.084 -0.4370 -0.1181 -0.3123
 4038TIP3    H112078   3.868   1.514   0.145  0.3851  1.1382 -0.8833
 4038TIP3    H212079   3.991   1.503   0.058  0.4722 -1.6368 -0.5013
 4039TIP3   OH212080   1.109   5.731   5.497  0.1031 -0.0155  0.3537
 4039TIP3    H112081   1.159   5.810   5.519 -2.1012  1.3357  0.7303
 4039TIP3    H212082   1.140   5.707   5.409  1.4371  0.7104  0.5960
 4040TIP3   OH212083   1.609   4.878   0.132 -0.0163 -0.0297 -0.6608
 4040TIP3    H112084   1.513   4.881   0.126  0.1010  0.6625 -3.1467
 4040TIP3    H212085   1.635   4.970   0.137  0.5118 -0.2135  2.8235
 4041TIP3   OH212086   6.351   3.548   4.134  0.3860  0.0776 -0.6138
 4041TIP3    H112087   6.342   3.579   4.044  0.2746 -0.9019 -0.9479
 4041TIP3    H212088   6.262   3.529   4.162  0.2967  1.4097  0.0988
 4042TIP3   OH212089   3.127   6.665   4.719 -0.4275 -0.4167  0.5709
 4042TIP3    H112090   3.136   6.718   4.640  1.4214 -0.3153  0.8140
 4042TIP3    H212091   3.169   6.716   4.787  4.2865 -3.2831  0.2545
 4043TIP3   OH212092   6.431   5.272   4.482  0.1655  0.3550 -0.4595
 4043TIP3    H112093   6.389   5.201   4.532 -1.6523  1.1246 -0.8076
 4043TIP3    H212094   6.403   5.352   4.527 -0.6060  1.0031 -2.0298
 4044TIP3   OH212095   5.375  -0.001   3.303 -0.1002 -0.2195  0.3658
 4044TIP3    H112096   5.286   0.036   3.307 -0.2841 -0.6121 -0.0093
 4044TIP3    H212097   5.415   0.025   3.386 -0.4804  0.1779  0.4304
 4045TIP3   OH212098   3.421   4.839   2.318 -0.3039  0.5050 -0.3546
 4045TIP3    H112099   3.366   4.764   2.342  1.7906 -1.8812 -2.4155
 4045TIP3    H212100   3.361   4.899   2.273 -1.7489 -0.7560 -0.2102
 4046TIP3   OH212101   6.853   0.767   2.145  0.0532  0.6063 -0.1642
 4046TIP3    H112102   6.871   0.727   2.059 -2.3121  1.5788 -1.1947
 4046TIP3    H212103   6.842   0.860   2.126  0.6749  1.0214  1.4191
 4047TIP3   OH212104   6.224   5.095   5.375 -0.2986 -0.0518 -0.6401
 4047TIP3    H112105   6.175   5.090   5.293 -0.1898 -1.2820 -0.6416
 4047TIP3    H212106   6.295   5.156   5.356 -0.3801 -0.1833 -1.4059
 4048TIP3   OH212107   5.717   2.747   4.669  0.2703 -0.2196 -0.4166
 4048TIP3    H112108   5.751   2.752   4.579 -1.7807 -0.7742 -1.2667
 4048TIP3    H212109   5.645   2.810   4.671  0.7301  0.2862  1.0712
 4049TIP3   OH212110   1.115   3.773   0.262 -0.2264  0.4544 -0.2467
 4049TIP3    H112111   1.208   3.762   0.277 -0.2716  0.7498  0.2942
 4049TIP3    H212112   1.076   3.688   0.283 -0.0012  0.0957 -1.2286
 4050TIP3   OH212113   6.333   5.457   2.996  0.0225  0.1461 -0.1205
 4050TIP3    H112114   6.421   5.422   3.011  1.0552  3.0619  1.5218
 4050TIP3    H212115   6.348   5.545   2.962 -2.3929 -0.8241 -4.4147
 4051TIP3   OH212116   1.784   0.779   3.043  0.2224 -0.4800  0.4376
 4051TIP3    H112117   1.704   0.820   3.010 -0.1158 -0.7808  0.8698
 4051TIP3    H212118   1.820   0.734   2.967 -0.1072 -0.4772  0.2746
 4052TIP3   OH212119   6.171   6.122   2.032 -0.1474 -0.3553 -0.1990
 4052TIP3    H112120   6.247   6.162   2.075  0.8425 -0.6624 -1.5871
 4052TIP3    H212121   6.100   6.130   2.096  1.1535 -0.4576  1.3049
 4053TIP3   OH212122   5.117   1.448   0.672  0.1067 -0.5590 -0.4041
 4053TIP3    H112123   5.198   1.491   0.644 -0.1545  0.5491  0.4363
 4053TIP3    H212124   5.146   1.374   0.726  0.6102  0.8003  1.2887
 4054TIP3   OH212125   6.007   6.376   1.578 -0.0672 -0.7871 -0.4330
 4054TIP3    H112126   6.059   6.435   1.632 -1.4605 -0.6193  0.7933
 4054TIP3    H212127   6.071   6.317   1.538  1.0252 -1.1681  1.7305
 4055TIP3   OH212128   5.333   3.366   4.979 -0.6909  0.5354  0.4637
 4055TIP3    H112129   5.370   3.440   5.028  0.6229  1.1021 -1.3000
 4055TIP3    H212130   5.399   3.297   4.986  0.4408  1.2647 -1.9859
 4056TIP3   OH212131   4.893   1.927   3.462  0.6680 -0.4222 -0.3461
 4056TIP3    H112132   4.864   1.993   3.399 -0.1210 -2.1455 -1.8640
 4056TIP3    H212133   4.814   1.904   3.510  0.9183 -0.3677  0.0979
 4057TIP3   OH212134   5.274   0.912   1.744  0.4099 -0.0110  0.5814
 4057TIP3    H112135   5.305   0.892   1.656 -0.2525 -0.4324  0.4404
 4057TIP3    H212136   5.241   1.002   1.738  0.0685 -0.1530  0.3207
 4058TIP3   OH212137   3.270   6.672   5.521 -0.0463  0.0087  0.1743
 4058TIP3    H112138   3.298   6.582   5.503  2.1882  0.7722 -0.4491
 4058TIP3    H212139   3.200   6.689   5.458  1.1437 -0.5317 -1.3544
 4059TIP3   OH212140   5.934   0.374   5.534  0.2769  0.1406  0.4595
 4059TIP3    H112141   5.992   0.391   5.608 -1.8163  0.5132  2.1039
 4059TIP3    H212142   5.909   0.461   5.502 -1.1704  0.0919  1.3220
 4060TIP3   OH212143   6.701   0.591   1.138  0.1846  0.1796 -0.1399
 4060TIP3    H112144   6.632   0.651   1.109  0.3660 -0.1227 -1.2564
 4060TIP3    H212145   6.780   0.644   1.137 -0.2047  1.0096  2.7749
 4061TIP3   OH212146   0.171   5.622   1.976 -0.1551  0.2963  0.0128
 4061TIP3    H112147   0.191   5.710   1.947 -2.2951  0.6808 -0.4596
 4061TIP3    H212148   0.177   5.568   1.897 -1.5267  0.5435 -0.2911
 4062TIP3   OH212149   1.564   0.275   1.163 -0.0640  0.6599 -0.4414
 4062TIP3    H112150   1.535   0.215   1.095 -1.3971  0.6142  0.1212
 4062TIP3    H212151   1.533   0.236   1.245  1.8640  0.5064  0.2547
 4063TIP3   OH212152   4.556   1.866   2.792  0.0440 -0.2207  0.8774
 4063TIP3    H112153   4.484   1.924   2.817 -0.0012 -0.2972  0.9275
 4063TIP3    H212154   4.630   1.895   2.844 -0.1807 -0.7044  1.4896
 4064TIP3   OH212155   4.938   2.239   5.863  0.8079 -0.1213  0.0401
 4064TIP3    H112156   4.972   2.314   5.814 -1.2582  1.1463  0.4036
 4064TIP3    H212157   4.997   2.230   5.938 -0.7093  3.4486  1.9127
 4065TIP3   OH212158   3.774   2.215   2.979 -0.2159 -0.0635  0.5374
 4065TIP3    H112159   3.827   2.148   3.021 -2.7739 -1.8017  1.1755
 4065TIP3    H212160   3.780   2.291   3.037  1.2103 -0.3433  0.7808
 4066TIP3   OH212161   0.311   3.278   5.134 -0.5440 -0.1254  0.2090
 4066TIP3    H112162   0.263   3.361   5.128 -0.5513 -0.1655 -0.3819
 4066TIP3    H212163   0.388   3.290   5.079 -1.3242 -1.0181 -1.1421
 4067TIP3   OH212164   3.160   4.279   3.252  0.7977  0.1960 -0.0841
 4067TIP3    H112165   3.181   4.247   3.164  0.2972 -3.1191  0.8358
 4067TIP3    H212166   3.065   4.293   3.250  0.2505 -2.7565  0.5838
 4068TIP3   OH212167   3.818   5.789   0.852  0.4158  0.0691 -0.2949
 4068TIP3    H112168   3.834   5.777   0.758  0.4816 -0.5718 -0.2067
 4068TIP3    H212169   3.854   5.710   0.892  1.8920  1.0783  0.4425
 4069TIP3   OH212170   4.001   3.686   4.712  0.1001 -0.1393 -0.0411
 4069TIP3    H112171   3.939   3.681   4.639 -0.3758  1.5680  0.1956
 4069TIP3    H212172   3.960   3.747   4.774  1.8619  0.7802  0.2837
 4070TIP3   OH212173   2.568   3.281   0.391  0.3363 -0.0969 -0.7251
 4070TIP3    H112174   2.631   3.274   0.462 -2.9371 -1.3566  2.3509
 4070TIP3    H212175   2.558   3.376   0.378  0.1432  0.2445  1.4689
 4071TIP3   OH212176   4.729   1.716   0.320  0.0972  0.0193 -0.1498
 4071TIP3    H112177   4.744   1.707   0.414 -0.6218 -0.0687 -0.0445
 4071TIP3    H212178   4.758   1.633   0.283  2.0337  0.6568 -0.2307
 4072TIP3   OH212179   2.906   3.081   2.507  0.2398  0.1035  0.0092
 4072TIP3    H112180   2.837   3.061   2.443 -1.8120  0.3430  2.0047
 4072TIP3    H212181   2.915   3.001   2.557  1.9606 -0.1368 -0.6340
 4073TIP3   OH212182   4.528   1.089   2.025  0.1443 -0.2088 -0.4979
 4073TIP3    H112183   4.463   1.056   1.963  1.3206 -3.1694 -0.3569
 4073TIP3    H212184   4.482   1.091   2.109  0.1717 -2.5516 -0.3405
 4074TIP3   OH212185   4.501   2.945   1.045 -0.1697 -0.2192 -0.2836
 4074TIP3    H112186   4.527   2.865   0.999 -0.7630  0.2696 -1.5230
 4074TIP3    H212187   4.424   2.976   0.998 -0.1084  0.9406  0.3401
 4075TIP3   OH212188   5.444   2.679   4.532 -0.3766  0.0246  0.8277
 4075TIP3    H112189   5.483   2.750   4.481  0.6896 -0.4071  1.0004
 4075TIP3    H212190   5.488   2.600   4.500 -1.4048 -0.5382  0.7695
 4076TIP3   OH212191   5.088   0.592   2.102 -0.1078  0.1320  0.1073
 4076TIP3    H112192   5.067   0.505   2.069  1.1182 -0.3283  0.5239
 4076TIP3    H212193   5.140   0.633   2.033  0.9591 -0.1825  0.7153
 4077TIP3   OH212194   6.896   3.716   0.149 -0.1032 -0.0114 -0.2993
 4077TIP3    H112195   6.808   3.750   0.136 -0.5069  0.0070  2.0539
 4077TIP3    H212196   6.889   3.621   0.134 -0.7064 -0.1117  0.5620
 4078TIP3   OH212197   2.414   2.642   4.119 -0.1745  0.1291 -0.0254
 4078TIP3    H112198   2.460   2.696   4.184  0.2694 -0.8541  0.4981
 4078TIP3    H212199   2.428   2.688   4.036 -0.1201  1.0125  0.4528
 4079TIP3   OH212200   1.566   4.407   2.738  0.1608 -0.0191  0.2859
 4079TIP3    H112201   1.513   4.405   2.817  0.1780  0.5323  0.3123
 4079TIP3    H212202   1.652   4.437   2.767  0.7726 -1.7705  0.4002
 4080TIP3   OH212203   5.707   4.870   5.775 -0.9057 -0.4910  0.6012
 4080TIP3    H112204   5.769   4.891   5.844 -0.7135 -2.0147  0.9313
 4080TIP3    H212205   5.632   4.831   5.820 -0.7789 -1.5052 -0.0355
 4081TIP3   OH212206   2.053   1.999   3.009 -0.1034  0.5038 -0.1929
 4081TIP3    H112207   2.043   2.045   2.925 -1.5738  1.5509  0.5121
 4081TIP3    H212208   1.965   1.969   3.030  0.6021 -1.5809  0.0080
 4082TIP3   OH212209   2.127   4.855   0.464  0.7958  0.4351  1.5573
 4082TIP3    H112210   2.091   4.785   0.409 -0.2248 -0.1531  2.9382
 4082TIP3    H212211   2.195   4.812   0.515  0.3134  0.4830  2.2527
 4083TIP3   OH212212   6.414   5.677   5.576  0.4196 -0.3225  0.0916
 4083TIP3    H112213   6.366   5.600   5.547 -1.7774  1.0301 -0.0810
 4083TIP3    H212214   6.435   5.660   5.668 -0.6614 -0.8488  0.2496
 4084TIP3   OH212215   1.789   4.457   4.139  0.7343 -0.1517  1.1414
 4084TIP3    H112216   1.885   4.467   4.134  0.9485 -1.6615  1.7012
 4084TIP3    H212217   1.757   4.545   4.156  1.7856  0.9115 -1.6884
 4085TIP3   OH212218   0.788   5.882   3.728 -0.0591  0.6920 -0.3665
 4085TIP3    H112219   0.790   5.843   3.641  1.8239  1.9579 -0.9467
 4085TIP3    H212220   0.827   5.969   3.717 -3.2960  2.5270  1.0156
 4086TIP3   OH212221   2.846   2.919   0.871 -0.5122 -0.1589  0.3061
 4086TIP3    H112222   2.837   2.824   0.862 -2.0143 -0.0749  0.6475
 4086TIP3    H212223   2.787   2.955   0.804 -0.4461  0.5317  0.6069
 4087TIP3   OH212224   2.092   6.693   0.300 -0.1297 -0.2566 -0.4723
 4087TIP3    H112225   2.055   6.667   0.385 -0.1963  0.8731 -0.1341
 4087TIP3    H212226   2.121   6.611   0.260 -2.4183 -1.1322 -0.4781
 4088TIP3   OH212227   5.857   5.132   0.232 -0.6733 -0.3182  0.3634
 4088TIP3    H112228   5.932   5.119   0.291 -1.3778  1.0806  1.6518
 4088TIP3    H212229   5.880   5.208   0.180 -0.3089 -1.1967 -0.8036
 4089TIP3   OH212230   7.171   1.518   3.811 -0.0116 -0.1060  0.1734
 4089TIP3    H112231   7.206   1.505   3.723  3.3963  0.6749  1.2648
 4089TIP3    H212232   7.118   1.440   3.827 -3.1797  0.9466 -3.4448
 4090TIP3   OH212233   1.260   0.824   1.968  0.2505 -0.2237 -0.6182
 4090TIP3    H112234   1.326   0.891   1.985  1.4615 -0.9274 -2.2821
 4090TIP3    H212235   1.251   0.778   2.051  1.2578  0.4025 -0.1381
 4091TIP3   OH212236   0.910   6.633   0.222 -0.0773  0.0345  0.4002
 4091TIP3    H112237   0.898   6.728   0.220 -0.0403  0.0583  1.2649
 4091TIP3    H212238   0.859   6.601   0.147 -0.0793  0.7337  0.0984
 4092TIP3   OH212239   6.878   5.402   1.468  0.0354 -0.2965 -0.4237
 4092TIP3    H112240   6.970   5.385   1.488 -0.1271 -0.6472  0.0408
 4092TIP3    H212241   6.831   5.369   1.544 -0.3298  1.8463  0.3630
 4093TIP3   OH212242   6.245   4.419   3.948  0.0976 -0.3141 -0.0761
 4093TIP3    H112243   6.328   4.459   3.973 -0.3416  1.0477 -0.7136
 4093TIP3    H212244   6.207   4.388   4.030  1.0764 -0.6746  0.2560
 4094TIP3   OH212245   3.533   2.856   3.310  0.2984 -0.0958 -0.4033
 4094TIP3    H112246   3.473   2.904   3.253 -1.4295 -0.2022  1.2276
 4094TIP3    H212247   3.516   2.764   3.291 -1.6110 -0.2072  1.4193
 4095TIP3   OH212248   5.156   6.320   3.391  0.2646  0.1219 -0.3856
 4095TIP3    H112249   5.104   6.313   3.311 -0.1882  1.4959 -0.2394
 4095TIP3    H212250   5.107   6.270   3.456 -0.0816  0.1211 -0.6414
 4096TIP3   OH212251   5.423   6.461   1.329 -0.5427 -0.2854  0.2525
 4096TIP3    H112252   5.449   6.432   1.241  1.6052  0.8768  0.4533
 4096TIP3    H212253   5.364   6.392   1.360  0.2090 -1.7201 -1.3335
 4097TIP3   OH212254   5.433   3.627   5.117  0.3132  0.3131  0.3902
 4097TIP3    H112255   5.527   3.625   5.137  0.7894  0.3321 -1.6212
 4097TIP3    H212256   5.415   3.718   5.097  0.2244  0.0700 -0.6827
 4098TIP3   OH212257   3.189   2.742   1.113 -0.2560 -0.0285 -0.2319
 4098TIP3    H112258   3.093   2.735   1.106 -0.5309  1.5009  1.3404
 4098TIP3    H212259   3.213   2.811   1.052 -0.1808 -0.2203 -0.4211
 4099TIP3   OH212260   4.446   5.275   5.424 -0.3113  0.1710  0.5403
 4099TIP3    H112261   4.470   5.198   5.372  0.4256 -0.2127  1.4205
 4099TIP3    H212262   4.408   5.238   5.504 -2.7330  0.7535 -0.2573
 4100TIP3   OH212263   3.113   6.661   2.106 -0.0136  0.1124 -0.5610
 4100TIP3    H112264   3.128   6.671   2.200 -1.2523  1.8761 -0.4976
 4100TIP3    H212265   3.177   6.596   2.078  0.1047 -0.7580  1.5702
 4101TIP3   OH212266   6.784   6.569   4.985 -0.8294  0.0439  0.0080
 4101TIP3    H112267   6.863   6.554   4.933  0.6406  3.9823  0.6931
 4101TIP3    H212268   6.716   6.590   4.921 -0.6425 -0.9049 -0.5055
 4102TIP3   OH212269   3.231   1.036   1.907  0.5460  0.3272  0.3031
 4102TIP3    H112270   3.257   1.059   1.818  2.2468  0.6098  0.8391
 4102TIP3    H212271   3.301   0.978   1.938 -0.2416 -0.1031  1.3153
 4103TIP3   OH212272   5.363   3.434   3.936  0.2363 -0.6750  0.2820
 4103TIP3    H112273   5.386   3.408   4.025  0.0226  0.9693  0.8666
 4103TIP3    H212274   5.267   3.439   3.937  0.2907  1.2831  0.6111
 4104TIP3   OH212275   3.467   0.562   4.735 -0.5025  0.0360  0.3477
 4104TIP3    H112276   3.474   0.492   4.799  0.2289  1.1233  1.5125
 4104TIP3    H212277   3.373   0.570   4.718 -0.5559 -1.6284 -0.3182
 4105TIP3   OH212278   2.702   4.913   5.098  0.2544  0.4066 -0.8533
 4105TIP3    H112279   2.721   4.982   5.162 -1.5397 -0.3897  0.6318
 4105TIP3    H212280   2.654   4.847   5.148  2.5977 -2.3808 -1.9765
 4106TIP3   OH212281   6.258   4.602   2.015  0.0741 -0.2759 -0.0991
 4106TIP3    H112282   6.209   4.528   2.051 -0.4936  1.0930  2.2075
 4106TIP3    H212283   6.194   4.674   2.014  0.5512  0.1912 -2.4391
 4107TIP3   OH212284   2.381   0.276   0.702 -0.0153  0.2586 -0.1758
 4107TIP3    H112285   2.404   0.368   0.690 -1.1072  0.3917 -1.4916
 4107TIP3    H212286   2.301   0.278   0.753  0.4515 -0.0083  0.5720
 4108TIP3   OH212287   0.645   0.273   2.270  0.2784 -0.2893  0.1097
 4108TIP3    H112288   0.677   0.362   2.289  1.4852 -0.5913 -0.4336
 4108TIP3    H212289   0.607   0.280   2.183  1.1554 -0.4903 -0.2956
 4109TIP3   OH212290   1.223   5.615   0.165  0.0417  0.0916  0.3225
 4109TIP3    H112291   1.276   5.686   0.203 -1.0648  1.3057 -0.3049
 4109TIP3    H212292   1.287   5.550   0.137  1.1387  1.0714  0.4700
 4110TIP3   OH212293   1.315   3.542   4.806 -0.4659 -0.8509 -0.1000
 4110TIP3    H112294   1.391   3.591   4.776 -0.7340 -1.0649 -1.1718
 4110TIP3    H212295   1.276   3.597   4.875 -0.3668  0.1097 -0.7974
 4111TIP3   OH212296   4.542   1.160   2.881  0.6023 -0.3236 -0.7757
 4111TIP3    H112297   4.534   1.078   2.833  3.1484 -1.9696  1.3424
 4111TIP3    H212298   4.613   1.207   2.837  1.3307 -0.7589 -0.0871
 4112TIP3   OH212299   4.807   5.764   4.117  0.5976  0.0277  0.2731
 4112TIP3    H112300   4.834   5.789   4.029  1.6474 -1.6092  0.0858
 4112TIP3    H212301   4.883   5.782   4.172  0.5284 -0.5003  0.5480
 4113TIP3   OH212302   6.351   4.500   1.371 -0.0369 -0.2878 -0.3966
 4113TIP3    H112303   6.444   4.481   1.384 -0.0499  0.5076  0.9914
 4113TIP3    H212304   6.349   4.590   1.340 -0.3674 -0.1145  0.1183
 4114TIP3   OH212305   4.027   4.382   0.596  0.7959 -0.2989 -0.1270
 4114TIP3    H112306   4.111   4.338   0.583  1.7755  1.5544 -0.3547
 4114TIP3    H212307   4.022   4.447   0.526  0.3144  1.2699  1.2883
 4115TIP3   OH212308   5.034   1.335   4.929 -0.3002  0.4119 -0.0077
 4115TIP3    H112309   5.105   1.271   4.930  0.8513  1.6554  0.8820
 4115TIP3    H212310   4.956   1.284   4.954  0.4343 -0.7910 -0.0749
 4116TIP3   OH212311   3.136   5.403   0.482  0.2334 -0.3051 -0.0287
 4116TIP3    H112312   3.050   5.407   0.524 -0.5863 -3.7688 -1.0588
 4116TIP3    H212313   3.186   5.341   0.535  1.5077  0.3399 -0.4356
 4117TIP3   OH212314   3.678   3.300   0.440  0.2456  0.2810 -0.0825
 4117TIP3    H112315   3.759   3.324   0.396  0.1674  0.0409 -0.3558
 4117TIP3    H212316   3.619   3.272   0.370  0.7081 -1.8347  0.3277
 4118TIP3   OH212317   1.940   6.272   4.021 -0.0948 -0.3555  0.2456
 4118TIP3    H112318   2.032   6.264   4.049 -0.2443 -2.5987  0.3235
 4118TIP3    H212319   1.891   6.280   4.103 -0.0523 -0.1913  0.2559
 4119TIP3   OH212320   1.376   1.283   5.402 -0.3910  0.1534  0.4866
 4119TIP3    H112321   1.352   1.348   5.467 -1.4928  1.2790 -0.9749
 4119TIP3    H212322   1.298   1.230   5.390  0.1500 -0.7471  0.8549
 4120TIP3   OH212323   5.138   3.110   3.503  1.2685 -0.1628  0.2015
 4120TIP3    H112324   5.189   3.066   3.572 -0.3721 -1.8548  0.4410
 4120TIP3    H212325   5.141   3.050   3.429  0.9347  0.4423 -0.3117
 4121TIP3   OH212326   3.198   2.254   0.937  0.3672 -0.7005  0.4085
 4121TIP3    H112327   3.260   2.309   0.889  0.9582 -1.5481  0.1777
 4121TIP3    H212328   3.211   2.166   0.901 -1.2510 -0.8359  0.0820
 4122TIP3   OH212329   4.485   3.500   1.677 -0.1239  0.0960 -0.2713
 4122TIP3    H112330   4.476   3.494   1.772 -0.0698  1.2850 -0.1724
 4122TIP3    H212331   4.396   3.495   1.644 -0.0514 -1.9703 -0.3094
 4123TIP3   OH212332   2.249   2.048   3.213  0.3113 -0.0664 -0.1386
 4123TIP3    H112333   2.293   2.127   3.184 -0.7875  0.6097 -0.0449
 4123TIP3    H212334   2.201   2.017   3.136 -0.9106  0.5401  0.3459
 4124TIP3   OH212335   4.516   0.591   4.737 -0.4560  0.3843 -0.1707
 4124TIP3    H112336   4.584   0.659   4.736  1.1154 -1.0531  1.6231
 4124TIP3    H212337   4.561   0.512   4.707 -1.1767 -0.7039  1.4637
 4125TIP3   OH212338   4.201   4.656   2.317  0.2114 -0.2903  0.3528
 4125TIP3    H112339   4.275   4.604   2.348 -0.6722 -0.0760  3.0669
 4125TIP3    H212340   4.216   4.743   2.356 -0.1548  0.5223 -1.2258
 4126TIP3   OH212341   7.036   2.097   3.202  0.4710 -0.1077  0.1783
 4126TIP3    H112342   7.051   2.111   3.109 -0.3597  1.1185  0.2047
 4126TIP3    H212343   7.011   2.005   3.209 -0.5336  0.0648 -0.9576
 4127TIP3   OH212344   2.883   6.066  -0.033 -0.4283 -0.7144  0.6288
 4127TIP3    H112345   2.974   6.056  -0.004  0.7747  2.8670 -1.2251
 4127TIP3    H212346   2.835   6.089   0.046  1.3620  2.1308  1.0346
 4128TIP3   OH212347   4.164   2.414   3.474  0.3457 -0.0482 -0.5816
 4128TIP3    H112348   4.162   2.336   3.418  0.2456 -1.0203  0.7095
 4128TIP3    H212349   4.254   2.418   3.506 -0.1812 -1.0104  1.1493
 4129TIP3   OH212350   7.194   4.585   5.428  0.9194 -0.7067  0.1523
 4129TIP3    H112351   7.169   4.665   5.475 -1.8500 -0.8712 -0.8496
 4129TIP3    H212352   7.207   4.613   5.338  0.0249 -1.3164 -0.1895
 4130TIP3   OH212353   0.877   3.568   4.438 -0.0611 -0.1780  0.5331
 4130TIP3    H112354   0.917   3.647   4.402 -0.1123 -0.6857 -0.6900
 4130TIP3    H212355   0.784   3.576   4.419  0.2855 -2.0199 -2.7615
 4131TIP3   OH212356   0.319   2.917   5.225  0.4139 -0.3152 -0.3094
 4131TIP3    H112357   0.380   2.925   5.152 -1.0671  0.4118 -1.5324
 4131TIP3    H212358   0.233   2.939   5.187 -0.3644  0.3964  1.7178
 4132TIP3   OH212359   2.278   1.343   1.494 -0.1529  0.0873 -0.3509
 4132TIP3    H112360   2.281   1.279   1.422 -0.5467 -0.3808  0.0380
 4132TIP3    H212361   2.289   1.290   1.573 -1.2281  0.4008  0.0284
 4133TIP3   OH212362   0.895   6.304   5.631 -0.3313 -0.3155 -0.1081
 4133TIP3    H112363   0.866   6.365   5.563 -0.6622  0.8783  1.0633
 4133TIP3    H212364   0.840   6.324   5.707  2.0221  0.5203  1.4986
 4134TIP3   OH212365   4.056   3.579   1.966 -0.3314  0.7284  0.0815
 4134TIP3    H112366   3.966   3.610   1.955 -0.2020  0.8910 -0.5988
 4134TIP3    H212367   4.111   3.655   1.946  0.0259 -0.1850 -2.9757
 4135TIP3   OH212368   3.484   0.222   1.084 -0.2287 -0.4111 -0.1972
 4135TIP3    H112369   3.412   0.219   1.147 -0.0415 -0.1927  0.0337
 4135TIP3    H212370   3.450   0.275   1.012 -0.0420  0.3314  0.2522
 4136TIP3   OH212371   0.121   1.211   1.571 -0.1812 -0.2665 -0.1619
 4136TIP3    H112372   0.167   1.220   1.488 -0.0724 -2.0050 -0.3231
 4136TIP3    H212373   0.068   1.132   1.561  1.1191 -1.5198  1.9745
 4137TIP3   OH212374   6.128   2.397   2.921 -0.3847 -0.2381  0.3328
 4137TIP3    H112375   6.056   2.449   2.957 -0.0030  2.6387 -2.5658
 4137TIP3    H212376   6.189   2.387   2.994 -1.4397  1.6792  1.5624
 4138TIP3   OH212377   3.569   1.694   3.925  0.4227  0.2667 -0.3056
 4138TIP3    H112378   3.538   1.733   3.843  0.7345  0.0235 -0.5496
 4138TIP3    H212379   3.503   1.715   3.990  0.2719  0.6379 -0.5807
 4139TIP3   OH212380   4.301   4.350   0.535 -0.2441 -0.3049 -0.1616
 4139TIP3    H112381   4.344   4.356   0.449 -1.4999 -0.9066 -0.8579
 4139TIP3    H212382   4.374   4.348   0.598  0.7055 -0.0943 -1.2186
 4140TIP3   OH212383   0.299   6.201   2.592  0.4971  0.2618 -0.1752
 4140TIP3    H112384   0.372   6.261   2.577  0.1991  0.2635 -1.7107
 4140TIP3    H212385   0.319   6.124   2.539 -1.0027  0.6038 -1.2909
 4141TIP3   OH212386  -0.002   2.517   4.954 -0.2637  0.1110  0.3398
 4141TIP3    H112387   0.079   2.565   4.968 -0.3344  0.3463 -0.0497
 4141TIP3    H212388   0.023   2.425   4.967  0.3010  0.0860 -0.7385
 4142TIP3   OH212389   1.904   3.941   5.246 -0.1390 -0.6223 -0.3639
 4142TIP3    H112390   1.883   3.848   5.234 -0.2869 -0.6175 -0.1374
 4142TIP3    H212391   1.898   3.955   5.340  0.5182 -0.5318 -0.3315
 4143TIP3   OH212392   6.214   3.975   3.966 -0.0815 -0.4801 -0.1061
 4143TIP3    H112393   6.240   3.979   3.874  1.7641 -0.7726  0.3460
 4143TIP3    H212394   6.293   4.000   4.014 -0.9694 -0.4396  1.4097
 4144TIP3   OH212395   4.982   6.613   5.764 -0.1501 -0.3971  0.2053
 4144TIP3    H112396   5.013   6.602   5.853 -1.9820 -0.2783  0.9072
 4144TIP3    H212397   5.048   6.569   5.710 -0.0488 -2.3313  1.7798
 4145TIP3   OH212398   0.925   1.396   5.856  0.3150 -0.0269 -0.3249
 4145TIP3    H112399   0.879   1.422   5.777  0.2809  0.7376 -0.0581
 4145TIP3    H212400   0.899   1.460   5.922  0.3007 -0.6841  0.3232
 4146TIP3   OH212401   2.537   0.937   1.008  0.4398 -0.4091  0.4043
 4146TIP3    H112402   2.574   0.850   0.992  0.6633 -0.0918 -0.9990
 4146TIP3    H212403   2.566   0.960   1.096  0.1081 -1.8779  0.9395
 4147TIP3   OH212404   3.268   0.489   0.403 -0.5800  0.7218 -0.0481
 4147TIP3    H112405   3.196   0.480   0.465 -0.4116 -0.7053 -0.0196
 4147TIP3    H212406   3.230   0.529   0.325 -1.5804 -0.7165 -0.3184
 4148TIP3   OH212407   5.480   6.449   0.272  0.2017  0.1567  0.7520
 4148TIP3    H112408   5.568   6.429   0.303  0.4099  0.1872  0.1923
 4148TIP3    H212409   5.455   6.528   0.319  0.8432  0.6814  0.2266
 4149TIP3   OH212410   0.460   1.048   2.064 -0.4326 -0.2631  0.1081
 4149TIP3    H112411   0.476   1.139   2.038 -1.3339 -0.5172 -1.4586
 4149TIP3    H212412   0.465   0.999   1.982 -3.7180 -1.1042  0.2797
 4150TIP3   OH212413   4.696   2.204   1.376  0.0451 -0.7672  0.0420
 4150TIP3    H112414   4.686   2.293   1.409  2.4511 -0.4446  0.1230
 4150TIP3    H212415   4.632   2.196   1.306 -0.5381  0.8618  0.3486
 4151TIP3   OH212416   2.302   6.129   0.229 -0.0598 -0.0141  0.7496
 4151TIP3    H112417   2.361   6.188   0.181 -0.6016 -0.6143 -0.7185
 4151TIP3    H212418   2.352   6.101   0.305  0.7236  1.2390  0.7230
 4152TIP3   OH212419   3.533   0.739   5.479 -0.6050 -0.6662  0.0538
 4152TIP3    H112420   3.605   0.786   5.522 -2.1965  0.4692  1.6346
 4152TIP3    H212421   3.503   0.677   5.545 -0.5531 -1.7149 -0.8917
 4153TIP3   OH212422   0.268   5.217   0.087  0.3431 -0.4136 -0.1285
 4153TIP3    H112423   0.335   5.150   0.100 -1.4781 -2.0643  1.2626
 4153TIP3    H212424   0.288   5.285   0.152 -0.1130 -1.5598  1.2425
 4154TIP3   OH212425   1.376   0.483   3.179  0.4663 -0.2238 -0.1653
 4154TIP3    H112426   1.361   0.467   3.086  0.2049 -0.3671 -0.1006
 4154TIP3    H212427   1.325   0.416   3.223 -0.0678  0.3433  0.0983
 4155TIP3   OH212428   1.599   4.453   5.216 -0.1771  0.4116 -0.3346
 4155TIP3    H112429   1.529   4.395   5.247  0.9700 -0.6765  0.2889
 4155TIP3    H212430   1.623   4.503   5.294 -0.2968  0.8362 -0.5675
 4156TIP3   OH212431   0.503   0.777   4.795  0.2832  0.2596  0.3721
 4156TIP3    H112432   0.485   0.860   4.751 -0.3703 -0.6811 -1.2545
 4156TIP3    H212433   0.420   0.755   4.838  0.2858  0.2024  0.3480
 4157TIP3   OH212434   0.593   0.898   2.320 -0.3233 -0.2827 -0.5192
 4157TIP3    H112435   0.513   0.853   2.293 -1.5358  0.3765  1.7873
 4157TIP3    H212436   0.590   0.982   2.275  0.0047 -0.9322 -1.8108
 4158TIP3   OH212437   3.788   1.903   0.959 -0.1065 -0.7146 -0.3333
 4158TIP3    H112438   3.801   1.995   0.979 -1.3035 -0.8955  1.4906
 4158TIP3    H212439   3.864   1.859   0.997 -0.9571 -0.7504  1.3935
 4159TIP3   OH212440   3.731   5.775   4.205 -0.4776 -0.0020  0.4416
 4159TIP3    H112441   3.721   5.789   4.299 -0.6283 -0.5287  0.5031
 4159TIP3    H212442   3.654   5.724   4.179 -0.6797  0.5458 -0.0572
 4160TIP3   OH212443   6.841   3.929   5.267 -0.2398 -0.3537  0.1183
 4160TIP3    H112444   6.793   3.848   5.245 -0.2335 -0.2695 -0.2162
 4160TIP3    H212445   6.912   3.900   5.324  0.6078 -0.7924 -1.1105
 4161TIP3   OH212446   1.640   5.211   4.315  0.0516 -0.1694 -0.7630
 4161TIP3    H112447   1.732   5.230   4.295  0.4822 -0.7412  0.5565
 4161TIP3    H212448   1.590   5.270   4.258  1.2670  1.4582 -0.2180
 4162TIP3   OH212449   2.826   6.154   0.704 -0.4219 -0.0425 -0.4439
 4162TIP3    H112450   2.821   6.067   0.744  0.2635 -0.5295 -1.3847
 4162TIP3    H212451   2.919   6.167   0.687 -0.6133  0.4752 -1.1543
 4163TIP3   OH212452   2.575   5.060   5.556  0.2222 -0.1439 -0.3325
 4163TIP3    H112453   2.504   5.060   5.491  0.3665 -2.3051 -0.5736
 4163TIP3    H212454   2.653   5.085   5.507 -0.4817  3.9108  0.2556
 4164TIP3   OH212455   6.994   6.116   3.755  0.3774 -0.4872 -0.0441
 4164TIP3    H112456   7.049   6.047   3.792  1.9019  0.8021  0.1984
 4164TIP3    H212457   6.986   6.181   3.826 -2.6585 -1.2149  0.4432
 4165TIP3   OH212458   5.742   0.320   4.829  0.0875 -0.8564  0.3030
 4165TIP3    H112459   5.689   0.400   4.830 -1.7939 -2.0311 -0.2432
 4165TIP3    H212460   5.812   0.337   4.892  0.4115  1.6268 -0.6294
 4166TIP3   OH212461   7.114   0.952   1.366 -0.6974 -0.0213 -0.0048
 4166TIP3    H112462   7.122   1.047   1.354  0.9242  0.1067  1.7020
 4166TIP3    H212463   7.149   0.915   1.285 -0.0228  0.8270 -0.1239
 4167TIP3   OH212464   1.674   6.309   1.850  0.5219 -0.1901  0.0015
 4167TIP3    H112465   1.625   6.235   1.815  0.4853 -0.5139  0.7001
 4167TIP3    H212466   1.766   6.287   1.833  0.7841 -1.9274  2.8178
 4168TIP3   OH212467   6.176   0.455   1.009  0.2242  0.0787  0.1135
 4168TIP3    H112468   6.114   0.514   1.053  0.3401  0.1532  0.1757
 4168TIP3    H212469   6.133   0.434   0.926 -0.0043 -0.0791  0.2707
 4169TIP3   OH212470   1.791   1.254   3.079 -0.0131  0.3734  0.3204
 4169TIP3    H112471   1.740   1.184   3.037 -2.1608  2.5441 -0.9529
 4169TIP3    H212472   1.770   1.246   3.172 -1.0109 -0.0726  0.0735
 4170TIP3   OH212473   1.831   4.745   2.342 -0.4758 -0.0970  0.0906
 4170TIP3    H112474   1.867   4.694   2.415  0.4425  0.8615  0.3331
 4170TIP3    H212475   1.854   4.694   2.264  2.8524  1.1753  0.0867
 4171TIP3   OH212476   0.820   3.686   4.845  0.5541  0.2077 -0.1849
 4171TIP3    H112477   0.780   3.606   4.811 -0.0515  0.4808 -0.1332
 4171TIP3    H212478   0.905   3.691   4.802  0.8562 -0.7788  0.2744
 4172TIP3   OH212479   3.288   4.281   1.565  0.5788 -0.0835  0.4765
 4172TIP3    H112480   3.288   4.223   1.489 -0.5529  1.8749 -1.1310
 4172TIP3    H212481   3.289   4.222   1.640  0.7751 -2.1310 -1.0437
 4173TIP3   OH212482   2.277   5.349   1.979  0.1390 -0.1306 -0.7464
 4173TIP3    H112483   2.229   5.401   2.044  1.5778 -0.9829  1.1138
 4173TIP3    H212484   2.356   5.399   1.961  1.1177 -1.1912  0.4002
 4174TIP3   OH212485   0.240   5.977   5.528  0.0901  0.2979 -0.1801
 4174TIP3    H112486   0.193   5.963   5.611 -0.7165  3.2182 -0.0362
 4174TIP3    H212487   0.214   5.904   5.473 -0.4108 -1.0100  1.6912
 4175TIP3   OH212488   0.443   1.160   4.847 -0.0301  0.0536 -0.2195
 4175TIP3    H112489   0.500   1.237   4.847  1.0601 -0.7088  1.2313
 4175TIP3    H212490   0.368   1.186   4.900  0.4243  0.0689  0.4255
 4176TIP3   OH212491   1.617   4.734   1.907 -0.2768 -0.2418 -0.4287
 4176TIP3    H112492   1.680   4.773   1.846 -0.3761 -2.2147 -1.8895
 4176TIP3    H212493   1.671   4.682   1.967 -0.3682 -0.4631 -0.5364
 4177TIP3   OH212494   1.252   1.882   5.002  0.3830  0.4138 -0.2295
 4177TIP3    H112495   1.190   1.955   4.998  0.4282  0.4153 -0.9432
 4177TIP3    H212496   1.223   1.831   5.078 -0.2855  0.5959 -0.3567
 4178TIP3   OH212497   5.321   0.586   3.265 -0.0787  0.6845  0.8119
 4178TIP3    H112498   5.347   0.653   3.327  3.2384  0.5140 -0.1842
 4178TIP3    H212499   5.355   0.504   3.303 -1.0462  0.0781  0.3963
 4179TIP3   OH212500   6.340   6.592   3.544 -0.1976 -0.1145  0.2332
 4179TIP3    H112501   6.403   6.532   3.504 -0.8294  1.4237 -3.4796
 4179TIP3    H212502   6.394   6.658   3.587  0.5374 -1.6576  1.7836
 4180TIP3   OH212503   4.274   0.587   2.119 -0.5858 -0.5765  0.3196
 4180TIP3    H112504   4.353   0.560   2.166 -0.5645  0.4119  0.8897
 4180TIP3    H212505   4.219   0.509   2.116  0.6572 -1.4505 -0.6249
 4181TIP3   OH212506   1.442   6.677   0.545  0.3540  0.2358 -0.4229
 4181TIP3    H112507   1.377   6.646   0.483  0.1976 -0.6009  0.1293
 4181TIP3    H212508   1.504   6.727   0.493 -0.6769  0.9737 -0.9666
 4182TIP3   OH212509   4.185   1.456   5.659 -0.2836 -0.2966 -0.0014
 4182TIP3    H112510   4.276   1.436   5.683 -0.5086  0.5963  1.7627
 4182TIP3    H212511   4.139   1.464   5.743 -1.4840  1.6291 -0.7675
 4183TIP3   OH212512   6.318   4.741   4.924  0.0625  0.0622  0.1096
 4183TIP3    H112513   6.320   4.760   5.017  1.2633  0.9638 -0.0684
 4183TIP3    H212514   6.407   4.762   4.894  0.2417 -1.9696 -0.9007
 4184TIP3   OH212515   1.890   6.675   0.613  0.3617  0.2749 -0.2962
 4184TIP3    H112516   1.841   6.756   0.598  0.9075  0.5077 -0.8582
 4184TIP3    H212517   1.931   6.688   0.699 -0.2892  0.2063  0.0363
 4185TIP3   OH212518   3.676   4.973   0.225  0.0894 -0.0077 -0.3378
 4185TIP3    H112519   3.724   4.891   0.234 -0.4674 -0.2119  0.9797
 4185TIP3    H212520   3.612   4.971   0.296 -2.9426 -0.4551 -2.8876
 4186TIP3   OH212521   6.388   3.960   3.137  0.2902  0.9512  0.5379
 4186TIP3    H112522   6.379   4.005   3.053  1.7915 -0.2133 -0.3026
 4186TIP3    H212523   6.311   3.903   3.142  0.1180  1.1268  0.0054
 4187TIP3   OH212524   2.970   0.112   1.192 -0.1071 -0.3006  0.8643
 4187TIP3    H112525   3.016   0.126   1.109  0.0039  0.3920  1.0386
 4187TIP3    H212526   2.965   0.017   1.200 -1.0574 -0.4075 -0.4567
 4188TIP3   OH212527   4.159   4.786   4.017 -0.4117  0.2069 -0.0160
 4188TIP3    H112528   4.182   4.693   4.019  0.4813  0.3937 -0.8076
 4188TIP3    H212529   4.066   4.787   3.993  0.1890 -0.4483 -2.7133
 4189TIP3   OH212530   2.869   0.158   2.273 -0.0200  0.7556 -0.4996
 4189TIP3    H112531   2.913   0.221   2.215  0.2034  0.3183 -0.8111
 4189TIP3    H212532   2.792   0.205   2.305  1.2872  1.9662  1.0220
 4190TIP3   OH212533   2.402   3.222   2.874  0.7398 -0.1140  0.2280
 4190TIP3    H112534   2.470   3.187   2.932  2.2418  0.9485 -0.8115
 4190TIP3    H212535   2.419   3.316   2.871  0.3454 -0.0646 -1.4379
 4191TIP3   OH212536   1.264   4.725   2.484 -0.5701  0.1235  0.2678
 4191TIP3    H112537   1.211   4.785   2.432 -0.8034 -0.6336 -0.3822
 4191TIP3    H212538   1.201   4.674   2.535 -0.3171  1.6651  2.2763
 4192TIP3   OH212539   4.840   3.065   2.505  0.1774  0.4021  0.5107
 4192TIP3    H112540   4.850   3.082   2.599  0.5109 -1.6512  0.8900
 4192TIP3    H212541   4.749   3.089   2.485  0.5662  2.4245  0.9521
 4193TIP3   OH212542   3.699   2.137   4.747 -0.0679  0.0502 -1.0569
 4193TIP3    H112543   3.618   2.088   4.761 -0.6697  1.3347  0.3724
 4193TIP3    H212544   3.671   2.218   4.704  0.6237  0.0198 -1.5851
 4194TIP3   OH212545   0.804   2.698   1.591 -0.7934  0.0677  0.1170
 4194TIP3    H112546   0.850   2.756   1.530 -1.0114 -0.5218 -0.6320
 4194TIP3    H212547   0.754   2.757   1.647 -0.5968  0.6302 -0.2853
 4195TIP3   OH212548   5.837   1.820   0.112 -0.3114 -0.1643  0.1477
 4195TIP3    H112549   5.775   1.811   0.040 -0.7175  0.5594  0.3931
 4195TIP3    H212550   5.923   1.807   0.072 -0.6232 -1.5795 -0.1228
 4196TIP3   OH212551   4.686   0.909   4.039 -0.2824  0.2580 -0.1876
 4196TIP3    H112552   4.611   0.953   4.079 -2.5232 -0.6866 -3.0195
 4196TIP3    H212553   4.663   0.816   4.041  1.2550 -0.1504 -0.3120
 4197TIP3   OH212554   5.973   6.540   5.348 -0.2904  1.0595 -0.2199
 4197TIP3    H112555   5.883   6.550   5.316 -0.2818  1.8433 -0.0383
 4197TIP3    H212556   6.025   6.592   5.288  0.0593  0.5122 -0.3899
 4198TIP3   OH212557   0.665   6.638   1.992  0.0387 -0.5422 -0.3278
 4198TIP3    H112558   0.720   6.567   2.025  0.9556  1.3556  2.5949
 4198TIP3    H212559   0.724   6.712   1.983 -0.5658 -0.3273 -4.7768
 4199TIP3   OH212560   6.410   5.713   0.349  0.0777 -0.4113  0.2740
 4199TIP3    H112561   6.361   5.699   0.430 -0.2410 -2.4362 -0.2135
 4199TIP3    H212562   6.381   5.643   0.291  1.7424 -0.1907 -0.9081
 4200TIP3   OH212563   4.124   4.791   3.387 -0.2553  0.1563 -0.2542
 4200TIP3    H112564   4.125   4.886   3.390  2.0508  0.1526  1.0323
 4200TIP3    H212565   4.126   4.764   3.479  0.3801 -1.1090 -0.6164
 4201TIP3   OH212566   2.833   3.664   1.716  0.3551  0.6169 -0.6900
 4201TIP3    H112567   2.847   3.572   1.740  0.0798  0.5601 -0.7398
 4201TIP3    H212568   2.739   3.670   1.701  0.6198  0.4034 -2.7120
 4202TIP3   OH212569   4.210   2.420   4.504  0.0343 -0.3049  0.0016
 4202TIP3    H112570   4.300   2.421   4.472  0.2929  0.3753  0.7028
 4202TIP3    H212571   4.218   2.393   4.596 -0.4154  0.3208  0.2293
 4203TIP3   OH212572   4.161   6.471   5.010  0.1346  0.2039 -0.1603
 4203TIP3    H112573   4.080   6.505   4.973 -0.0379 -0.3859 -0.3348
 4203TIP3    H212574   4.135   6.432   5.093  0.6465  2.2585  1.0434
 4204TIP3   OH212575   6.352   0.283   3.401  0.4223 -0.4737 -0.3649
 4204TIP3    H112576   6.286   0.219   3.373  0.0136 -1.2395  2.1435
 4204TIP3    H212577   6.435   0.248   3.368  0.0099 -1.4868 -0.3584
 4205TIP3   OH212578   5.219   5.599   1.504  0.1174 -0.2508 -0.2307
 4205TIP3    H112579   5.172   5.578   1.585 -0.0003  1.3219  0.1290
 4205TIP3    H212580   5.305   5.629   1.533 -0.2561  1.2514 -0.6144
 4206TIP3   OH212581   1.527   3.270   5.387 -0.0146  0.3748 -0.3752
 4206TIP3    H112582   1.446   3.254   5.337  0.3778 -2.1161 -0.3666
 4206TIP3    H212583   1.497   3.292   5.475 -0.6699  1.7350 -0.9064
 4207TIP3   OH212584   0.885   1.691   3.726 -0.1390 -0.4990 -0.3004
 4207TIP3    H112585   0.970   1.683   3.682  0.4387 -0.7239  0.8167
 4207TIP3    H212586   0.886   1.778   3.765 -0.4601 -0.4686 -0.3584
 4208TIP3   OH212587   2.698   0.485   5.435 -0.4026 -0.2872  0.1450
 4208TIP3    H112588   2.690   0.408   5.491  2.1189 -0.5279  0.2605
 4208TIP3    H212589   2.736   0.452   5.353  2.1163  0.9878  0.7323
 4209TIP3   OH212590   3.871   6.201   2.524 -0.3632  0.0055 -0.6810
 4209TIP3    H112591   3.848   6.109   2.540  2.2753 -0.8287 -1.1633
 4209TIP3    H212592   3.898   6.235   2.609 -0.9589  0.2106 -0.5746
 4210TIP3   OH212593   5.019   0.290   3.732  0.1221  0.5056 -0.2269
 4210TIP3    H112594   4.960   0.234   3.782 -0.5806  0.6879 -0.8396
 4210TIP3    H212595   4.981   0.295   3.644  1.0347  0.6408 -0.6364
 4211TIP3   OH212596   4.436   3.353   4.092  0.5529  0.6158  0.1484
 4211TIP3    H112597   4.406   3.443   4.103 -0.3277  0.2229  1.1852
 4211TIP3    H212598   4.413   3.332   4.001 -1.7037  0.6076  0.6457
 4212TIP3   OH212599   0.506   1.381   2.980 -0.5605 -0.3687  0.1079
 4212TIP3    H112600   0.547   1.378   3.066 -1.8924  0.9950  0.8374
 4212TIP3    H212601   0.577   1.410   2.922  0.6438 -2.3754  0.4912
 4213TIP3   OH212602   0.141   2.467   3.687  0.0156 -0.3806 -0.4448
 4213TIP3    H112603   0.101   2.518   3.617  1.3514  1.7704  0.2796
 4213TIP3    H212604   0.223   2.512   3.706  0.6143 -2.0317  1.1893
 4214TIP3   OH212605   3.818   4.867   5.554 -0.0333 -0.0404 -0.7817
 4214TIP3    H112606   3.759   4.847   5.482 -1.3786  0.2381  0.1987
 4214TIP3    H212607   3.870   4.941   5.523 -0.8244  0.2906 -1.3599
 4215TIP3   OH212608   4.446   4.983   3.129 -0.0089 -0.2165  0.0035
 4215TIP3    H112609   4.476   5.051   3.069 -2.8589  0.2770 -1.0009
 4215TIP3    H212610   4.350   4.987   3.125 -0.3425 -1.1648  3.4941
 4216TIP3   OH212611   1.993   3.280   5.814  0.5571 -0.6786 -0.1588
 4216TIP3    H112612   2.044   3.265   5.734 -0.2468 -2.4199 -0.3894
 4216TIP3    H212613   1.911   3.319   5.782  0.4547 -0.8752 -0.1395
 4217TIP3   OH212614   6.450   1.371   5.042 -0.3590  0.1311 -0.0210
 4217TIP3    H112615   6.471   1.463   5.058  0.5504 -0.4531  2.5554
 4217TIP3    H212616   6.358   1.363   5.064  0.0247  0.0714  1.6544
 4218TIP3   OH212617   2.993   3.245   0.906 -0.7012  0.6600  0.0037
 4218TIP3    H112618   2.993   3.340   0.907 -0.9546  0.6570  0.1727
 4218TIP3    H212619   2.953   3.219   0.989 -1.8110  0.4120 -0.5844
 4219TIP3   OH212620   3.050   6.161   5.127 -0.3371 -0.0001 -0.2757
 4219TIP3    H112621   2.967   6.177   5.083 -0.5095  0.6210  0.2607
 4219TIP3    H212622   3.048   6.068   5.150 -2.7178  0.7651  3.3465
 4220TIP3   OH212623   6.367   3.887   2.247 -0.5518  0.3273  0.4745
 4220TIP3    H112624   6.361   3.914   2.339  0.3205  0.0683  0.6129
 4220TIP3    H212625   6.460   3.870   2.233 -0.2082  3.0381 -1.2214
 4221TIP3   OH212626   6.474   1.431   4.463 -0.2493  0.0779  0.2989
 4221TIP3    H112627   6.523   1.377   4.400 -2.5702  0.5446 -2.1040
 4221TIP3    H212628   6.528   1.509   4.475  1.0772 -0.8115  0.2863
 4222TIP3   OH212629   6.662   4.020   1.259  0.4907 -0.5171 -0.2242
 4222TIP3    H112630   6.717   4.014   1.337  0.4960  1.7537 -0.0043
 4222TIP3    H212631   6.681   4.106   1.222 -2.8956  0.3833 -0.1694
 4223TIP3   OH212632   2.280   2.213   2.969 -0.4340  0.4966  0.4816
 4223TIP3    H112633   2.371   2.217   2.998  0.2785  0.5258 -1.5589
 4223TIP3    H212634   2.269   2.290   2.914 -1.3611 -0.0676 -0.1581
 4224TIP3   OH212635   2.423   0.953   5.721 -0.1211  0.2176  0.1980
 4224TIP3    H112636   2.458   0.929   5.806 -0.2249  1.8582  0.7430
 4224TIP3    H212637   2.331   0.971   5.736 -0.3956 -0.5690 -0.4918
 4225TIP3   OH212638   3.234   6.522   4.423 -0.5020  0.0931  0.1642
 4225TIP3    H112639   3.159   6.578   4.444  0.3286  0.5014  2.3027
 4225TIP3    H212640   3.252   6.539   4.330 -3.1246 -0.1621 -0.4616
 4226TIP3   OH212641   5.090   6.483   4.659  0.1211 -0.9330  0.0982
 4226TIP3    H112642   5.039   6.480   4.740 -0.6478  0.7960 -0.2636
 4226TIP3    H212643   5.129   6.571   4.659 -0.1780 -0.7604 -1.5688
 4227TIP3   OH212644   0.906   1.736   4.141 -0.0603 -0.0270 -0.4114
 4227TIP3    H112645   0.891   1.651   4.184  1.3145 -1.0458 -1.8111
 4227TIP3    H212646   1.001   1.749   4.148 -0.1813  1.1139 -0.7432
 4228TIP3   OH212647   0.511   5.034   4.011 -0.4153  0.3551  0.2566
 4228TIP3    H112648   0.561   5.045   3.930  0.6681 -0.2189  0.8369
 4228TIP3    H212649   0.422   5.016   3.981 -0.0682  0.3484 -0.8077
 4229TIP3   OH212650   0.379   0.729   1.619 -0.0908 -0.1644  0.3674
 4229TIP3    H112651   0.437   0.693   1.552 -0.0601  0.9851 -0.2449
 4229TIP3    H212652   0.307   0.769   1.570 -0.1705  0.5265  1.0229
 4230TIP3   OH212653   4.077   1.064   2.501 -0.0547 -0.4481  0.1766
 4230TIP3    H112654   4.014   1.055   2.573  0.6291 -1.0484  0.7159
 4230TIP3    H212655   4.162   1.041   2.541  0.3196 -0.8565 -0.8344
 4231TIP3   OH212656   5.609   6.759   2.069 -0.4863  0.1148 -0.4253
 4231TIP3    H112657   5.574   6.767   2.158 -1.2255  0.1384 -0.7178
 4231TIP3    H212658   5.540   6.717   2.019 -0.0692  0.0954 -0.9980
 4232TIP3   OH212659   4.765   1.724   1.547  0.2265 -0.1389 -0.2627
 4232TIP3    H112660   4.704   1.675   1.491 -1.3559 -0.2226  1.4163
 4232TIP3    H212661   4.735   1.815   1.541 -0.1622 -0.1946  0.6496
 4233TIP3   OH212662   6.238   4.241   3.724  0.4273 -0.4298 -0.1402
 4233TIP3    H112663   6.168   4.177   3.738 -0.5196  0.6674  0.2754
 4233TIP3    H212664   6.210   4.319   3.772  2.3206 -0.2110  0.7094
 4234TIP3   OH212665   2.971   2.128   0.659 -0.1524 -0.1265 -0.0935
 4234TIP3    H112666   2.996   2.047   0.614 -0.3108 -1.7737  2.5830
 4234TIP3    H212667   2.879   2.141   0.636 -0.6071 -1.6682  0.7114
 4235TIP3   OH212668   6.991   5.589   4.323 -0.1146 -0.4022 -0.2529
 4235TIP3    H112669   6.926   5.651   4.290 -1.1248 -0.5531  1.3358
 4235TIP3    H212670   6.938   5.518   4.361  0.8534  0.6598  3.4076
 4236TIP3   OH212671   4.393   4.515   1.774 -0.7108  0.1851 -0.4230
 4236TIP3    H112672   4.362   4.581   1.712 -0.2665 -0.4334 -1.3160
 4236TIP3    H212673   4.411   4.438   1.721  0.2388 -0.1740  0.3817
 4237TIP3   OH212674   1.106   2.001   1.049 -0.5427  0.3735 -0.2848
 4237TIP3    H112675   1.093   1.941   1.123 -2.4102  1.6960  0.5423
 4237TIP3    H212676   1.191   2.041   1.065 -0.4009 -0.2267  0.5275
 4238TIP3   OH212677   5.481   5.176   2.379  0.1096 -0.0191  0.6222
 4238TIP3    H112678   5.522   5.210   2.458 -0.6490  1.8771  0.2568
 4238TIP3    H212679   5.512   5.085   2.373  3.0065  0.8214  1.1743
 4239TIP3   OH212680   6.009   6.739   2.369  0.7236  0.1346  0.6470
 4239TIP3    H112681   6.074   6.808   2.357  1.4332 -0.7352 -0.7667
 4239TIP3    H212682   5.936   6.782   2.414  1.4391  1.6163  0.4406
 4240TIP3   OH212683   7.143   6.226   0.832 -0.3502  0.0139  0.6047
 4240TIP3    H112684   7.062   6.218   0.781 -1.3423 -1.1736  2.2556
 4240TIP3    H212685   7.194   6.149   0.807 -1.1731 -0.9918  1.8902
 4241TIP3   OH212686   6.872   5.246   3.224 -0.0679  0.0440 -0.0794
 4241TIP3    H112687   6.867   5.287   3.138  1.1736 -1.2621 -0.8296
 4241TIP3    H212688   6.794   5.276   3.270 -0.2396  1.5830 -1.2831
 4242TIP3   OH212689   3.590   2.643   3.711 -0.6251  0.1060  0.2314
 4242TIP3    H112690   3.545   2.636   3.796 -1.9720  0.3279 -0.4403
 4242TIP3    H212691   3.531   2.694   3.657  2.3254  4.4039  0.5550
 4243TIP3   OH212692   2.593   2.060   2.356  0.3111 -0.1802  0.1342
 4243TIP3    H112693   2.522   2.122   2.371  3.1092  3.4390 -0.0680
 4243TIP3    H212694   2.640   2.096   2.280  3.0383 -1.6007  0.9954
 4244TIP3   OH212695   0.894   0.512   1.059 -0.7749  0.3374  0.0746
 4244TIP3    H112696   0.929   0.424   1.075 -1.4373 -0.1218 -0.8562
 4244TIP3    H212697   0.947   0.570   1.113  0.0258 -0.5786  0.2917
 4245TIP3   OH212698   6.569   4.221   3.326 -0.4900 -0.1530 -0.3516
 4245TIP3    H112699   6.494   4.194   3.273 -1.9070  1.8545  0.4885
 4245TIP3    H212700   6.545   4.196   3.415  0.4279 -0.6421 -0.2336
 4246TIP3   OH212701   1.005   2.892   2.073 -0.3435  0.0945 -0.1116
 4246TIP3    H112702   1.025   2.958   2.139  0.2398 -0.6294  0.4426
 4246TIP3    H212703   0.951   2.938   2.008 -0.1375  1.0454  0.3876
 4247TIP3   OH212704   4.641   1.027   5.231 -0.0395  0.2384 -0.6524
 4247TIP3    H112705   4.736   1.011   5.238 -0.0430 -0.2986 -1.6107
 4247TIP3    H212706   4.613   1.043   5.320  0.9964  0.6042 -0.3768
 4248TIP3   OH212707   4.029   4.256   4.838 -0.2728  0.4002  0.4640
 4248TIP3    H112708   3.977   4.176   4.827 -2.0467  1.6750 -0.8634
 4248TIP3    H212709   4.002   4.291   4.923 -0.8908  0.5513  0.2095
 4249TIP3   OH212710   6.452   4.860   0.747  0.0528  0.1216 -0.2864
 4249TIP3    H112711   6.518   4.925   0.771  0.7205 -1.0126  1.1253
 4249TIP3    H212712   6.484   4.824   0.664  1.2969 -0.4608  0.4074
 4250TIP3   OH212713   3.928   3.529   1.516  0.3530  0.4088 -0.0964
 4250TIP3    H112714   3.835   3.519   1.538  0.7195 -0.6044  1.1060
 4250TIP3    H212715   3.937   3.623   1.498 -0.6020  0.8383  1.3992
 4251TIP3   OH212716   3.285   5.896   5.670  0.2652 -0.2539 -0.2383
 4251TIP3    H112717   3.240   5.944   5.740 -1.3786 -2.5197  0.3838
 4251TIP3    H212718   3.294   5.807   5.705 -1.0360 -1.6050 -3.0303
 4252TIP3   OH212719   0.498   1.154   1.625 -0.0308 -0.2947 -1.1069
 4252TIP3    H112720   0.467   1.105   1.701  1.9466  0.3701  0.2081
 4252TIP3    H212721   0.484   1.095   1.550 -1.1981 -1.3094 -0.1332
 4253TIP3   OH212722   5.929   3.474   5.392 -0.4327 -0.1396 -0.5096
 4253TIP3    H112723   5.847   3.509   5.427  0.6918  0.4243  1.7926
 4253TIP3    H212724   5.993   3.491   5.461  1.7661 -0.0360 -2.4448
 4254TIP3   OH212725   5.637   1.901   0.276  0.3676 -0.0006 -0.1388
 4254TIP3    H112726   5.602   1.967   0.216  0.3498 -0.2988 -0.4580
 4254TIP3    H212727   5.713   1.864   0.229 -0.4400 -1.1835 -0.5688
 4255TIP3   OH212728   6.105   1.184   3.477  0.0442  0.4360  0.0094
 4255TIP3    H112729   6.085   1.268   3.437  0.2469 -0.1014 -1.2787
 4255TIP3    H212730   6.191   1.195   3.517 -0.2864  1.0630  0.5659
 4256TIP3   OH212731   4.034   0.163   1.331  0.7397  0.3053 -0.2526
 4256TIP3    H112732   3.964   0.121   1.381  2.0227  0.1570  1.5472
 4256TIP3    H212733   3.999   0.249   1.306 -1.6561 -1.3755 -3.3446
 4257TIP3   OH212734   3.669   6.725   0.891  0.1862 -0.1660  0.7682
 4257TIP3    H112735   3.650   6.700   0.982  0.1577  0.3680  0.9138
 4257TIP3    H212736   3.762   6.749   0.891 -0.0851  0.9499  0.9253
 4258TIP3   OH212737   5.851   2.028   3.378  0.2936  0.1652  0.3151
 4258TIP3    H112738   5.787   2.022   3.308  0.2606  0.1862  0.3435
 4258TIP3    H212739   5.803   2.003   3.457  0.3821 -0.0565  0.2999
 4259TIP3   OH212740   3.597   6.333   4.219 -0.7849 -0.2855 -0.2466
 4259TIP3    H112741   3.674   6.382   4.250 -1.3856  0.2583  0.4124
 4259TIP3    H212742   3.598   6.252   4.270  0.1653 -0.9634 -1.2821
 4260TIP3   OH212743   5.930   4.248   2.337 -0.1127 -0.2203 -0.3398
 4260TIP3    H112744   5.999   4.197   2.294  2.2397  0.9184  1.8391
 4260TIP3    H212745   5.907   4.316   2.273  0.2399 -1.0516 -1.3788
 4261TIP3   OH212746   0.919   2.984  -0.018 -0.1010  0.5710 -0.9854
 4261TIP3    H112747   0.906   2.938   0.065  1.7958 -0.3021 -1.1344
 4261TIP3    H212748   0.835   3.027  -0.035 -0.3471  1.3223  1.7119
 4262TIP3   OH212749   5.636   6.683   4.711 -0.3502  0.1994 -0.1610
 4262TIP3    H112750   5.687   6.613   4.752  1.2564  1.2187 -0.3304
 4262TIP3    H212751   5.548   6.672   4.746  0.1503 -1.1641  0.7530
 4263TIP3   OH212752   0.986   0.963  -0.001  0.0834  0.9306 -0.1511
 4263TIP3    H112753   0.901   0.945   0.038  0.9157 -0.4684  1.1333
 4263TIP3    H212754   0.980   1.054  -0.031 -1.7590  0.9383  0.1200
 4264TIP3   OH212755   0.901   0.388   4.014  1.2318 -0.4669 -0.5069
 4264TIP3    H112756   0.918   0.481   3.998  1.6062 -0.3500  0.5030
 4264TIP3    H212757   0.863   0.356   3.933 -1.6676  1.2362  0.0534
 4265TIP3   OH212758   3.252   2.629   2.940  0.1101  0.0814 -0.3120
 4265TIP3    H112759   3.257   2.605   2.847 -0.8261  1.4588 -0.7528
 4265TIP3    H212760   3.225   2.549   2.984  1.1047 -0.7376 -1.1424
 4266TIP3   OH212761   3.002   4.088   0.918  0.3089 -0.2713 -1.0510
 4266TIP3    H112762   3.032   4.169   0.877  1.7757 -1.3736 -2.2634
 4266TIP3    H212763   3.068   4.023   0.893 -0.4387 -1.6801  0.5051
 4267TIP3   OH212764   6.539   6.586   2.609  0.4876  0.0791  0.0580
 4267TIP3    H112765   6.546   6.510   2.667  0.4171  0.1451  0.1526
 4267TIP3    H212766   6.446   6.603   2.602  0.5708  1.4002  1.6677
 4268TIP3   OH212767   5.540   6.262   5.048  0.2511  0.4022  0.3027
 4268TIP3    H112768   5.449   6.286   5.030  0.0895  0.1341  0.7564
 4268TIP3    H212769   5.535   6.174   5.084  0.7546  0.0882 -0.3644
 4269TIP3   OH212770   1.853   1.354   4.572  0.7932  0.0905 -0.0475
 4269TIP3    H112771   1.877   1.268   4.537  1.7403  0.7964 -1.1911
 4269TIP3    H212772   1.897   1.417   4.514 -1.6855  1.4169 -0.6189
 4270TIP3   OH212773   2.559   0.526   0.348  0.2979  0.2969 -0.1907
 4270TIP3    H112774   2.635   0.506   0.403  0.0293 -1.1601 -0.2957
 4270TIP3    H212775   2.525   0.440   0.323 -1.0612  0.9287 -0.5966
 4271TIP3   OH212776   1.464   6.113   3.034 -0.4273 -0.1957 -0.1828
 4271TIP3    H112777   1.552   6.080   3.015 -0.6206 -1.9673  1.6289
 4271TIP3    H212778   1.478   6.190   3.089  0.0134 -0.8986  0.7137
 4272TIP3   OH212779   2.557   3.867   5.578 -0.4037  0.3605 -0.6161
 4272TIP3    H112780   2.592   3.849   5.665 -0.4327  1.0279 -0.4588
 4272TIP3    H212781   2.633   3.860   5.520 -0.1876  0.8807 -0.4026
 4273TIP3   OH212782   0.431   3.513   5.800 -0.0621  0.2137  0.0559
 4273TIP3    H112783   0.411   3.424   5.771 -0.9175  0.1503  0.8213
 4273TIP3    H212784   0.455   3.504   5.892 -0.6317  0.8308  0.2746
 4274TIP3   OH212785   5.457   4.917   4.821 -0.1506 -0.1340  0.2374
 4274TIP3    H112786   5.499   4.925   4.736 -0.9739  2.2049 -0.0319
 4274TIP3    H212787   5.468   5.003   4.861 -0.9615 -0.7775  1.9388
 4275TIP3   OH212788   6.452   3.303   4.198 -0.2690  0.3310  0.4415
 4275TIP3    H112789   6.432   3.395   4.180 -0.4179  0.1476 -0.3910
 4275TIP3    H212790   6.465   3.299   4.292  0.2725  1.3073  0.4217
 4276TIP3   OH212791   6.364   0.965   2.230  0.1390 -0.6736 -0.0538
 4276TIP3    H112792   6.396   0.980   2.141  0.5981  0.1991  0.2435
 4276TIP3    H212793   6.421   0.897   2.266  0.1585 -0.7967 -0.3191
 4277TIP3   OH212794   0.137   1.317   2.298 -0.2479  0.0216 -0.1075
 4277TIP3    H112795   0.178   1.400   2.325  0.8664 -1.2801  2.5761
 4277TIP3    H212796   0.052   1.317   2.341 -0.0063 -0.4640  0.3792
 4278TIP3   OH212797   1.549   5.892   1.528  0.6318  0.3058 -0.0284
 4278TIP3    H112798   1.488   5.931   1.466  1.6954  0.7300 -0.8414
 4278TIP3    H212799   1.525   5.799   1.531  0.5672  0.2814 -1.0915
 4279TIP3   OH212800   2.731   6.141   2.579 -0.2466  0.3289 -0.2309
 4279TIP3    H112801   2.717   6.089   2.500 -0.2502 -1.0785  0.6586
 4279TIP3    H212802   2.825   6.162   2.578 -0.2320  0.2562 -0.5556
 4280TIP3   OH212803   2.001   3.428   0.470 -0.6403 -0.0918  0.4150
 4280TIP3    H112804   1.984   3.440   0.377 -0.0296  0.7534  0.3983
 4280TIP3    H212805   1.930   3.474   0.514 -0.5538  0.0882  0.3652
 4281TIP3   OH212806   0.936   2.703   1.869 -0.3886 -0.3080 -0.3265
 4281TIP3    H112807   0.924   2.627   1.927  1.7689 -0.5830 -0.1460
 4281TIP3    H212808   0.958   2.775   1.929 -1.1476  0.1458 -0.5912
 4282TIP3   OH212809   4.781   1.027   1.607 -0.3021 -0.2831  0.3712
 4282TIP3    H112810   4.705   0.973   1.586 -0.3526  0.2536 -0.8952
 4282TIP3    H212811   4.763   1.060   1.695 -0.4050 -2.0532  1.0713
 4283TIP3   OH212812   6.667   6.209   1.425  0.0973 -0.0755  0.1415
 4283TIP3    H112813   6.685   6.145   1.493  1.8470  1.6783  1.4377
 4283TIP3    H212814   6.752   6.249   1.407 -0.8017  1.3364 -1.1802
 4284TIP3   OH212815   3.994   4.212   0.919  0.0576  0.2702  0.0543
 4284TIP3    H112816   3.910   4.211   0.872  0.2150  0.1854 -0.2265
 4284TIP3    H212817   4.058   4.236   0.852  0.4139 -0.7580  0.0158
 4285TIP3   OH212818   2.159   0.243   4.129 -0.1517 -0.1223 -0.2407
 4285TIP3    H112819   2.245   0.243   4.086  0.3308  0.8245  0.6731
 4285TIP3    H212820   2.179   0.230   4.222 -1.1145 -1.3347 -0.1731
 4286TIP3   OH212821   6.787   4.238   0.060  0.1474  0.0771 -0.3999
 4286TIP3    H112822   6.708   4.269   0.104 -0.6651 -2.9402  0.5005
 4286TIP3    H212823   6.839   4.197   0.130  0.0808 -2.4400 -1.6947
 4287TIP3   OH212824   4.167   5.924   1.936  0.0482  0.3009  0.2193
 4287TIP3    H112825   4.115   5.884   2.005 -0.4416  0.5755  0.0203
 4287TIP3    H212826   4.102   5.962   1.877  0.3852 -1.2064 -1.1966
 4288TIP3   OH212827   2.771   0.589   2.325 -0.2614 -0.0388  0.0869
 4288TIP3    H112828   2.814   0.593   2.411 -0.2295 -0.6463  0.1031
 4288TIP3    H212829   2.823   0.648   2.270 -0.2676  0.3366  0.4772
 4289TIP3   OH212830   2.268   2.030   4.680 -0.3150 -0.3753  0.0763
 4289TIP3    H112831   2.320   2.049   4.758 -0.8146  1.1424  0.0674
 4289TIP3    H212832   2.241   1.939   4.690 -0.1407 -0.2773  1.5401
 4290TIP3   OH212833   1.340   0.827   0.725 -0.3735  0.3516 -0.4825
 4290TIP3    H112834   1.398   0.752   0.740 -1.0411 -0.0660  0.0492
 4290TIP3    H212835   1.299   0.809   0.641 -0.1865  0.3489 -0.5738
 4291TIP3   OH212836   0.913   3.000   1.826 -0.0311 -0.4689 -0.5757
 4291TIP3    H112837   0.839   2.941   1.811 -0.0106 -0.8185  0.5860
 4291TIP3    H212838   0.887   3.083   1.784 -0.4232 -1.0276 -1.4777
 4292TIP3   OH212839   5.799   2.561   4.155 -0.9040  0.0725 -0.3883
 4292TIP3    H112840   5.784   2.557   4.061 -2.2352 -0.0827 -0.1829
 4292TIP3    H212841   5.788   2.653   4.177 -0.8160  0.0750 -0.3561
 4293TIP3   OH212842   6.411   1.428   1.300 -0.6642  0.0882 -0.3789
 4293TIP3    H112843   6.488   1.421   1.356 -0.7550  0.3099 -0.2240
 4293TIP3    H212844   6.378   1.338   1.294 -0.9936  0.1400  0.4195
 4294TIP3   OH212845   5.410   5.827   0.067  0.3788 -0.4143  0.5426
 4294TIP3    H112846   5.432   5.734   0.070 -1.7835 -1.1251 -1.6213
 4294TIP3    H212847   5.346   5.840   0.137 -0.5160 -0.9657 -0.1603
 4295TIP3   OH212848   3.994   1.675   2.608  0.2949  0.4364  0.4770
 4295TIP3    H112849   3.959   1.764   2.601 -0.4604  0.1877  1.0225
 4295TIP3    H212850   4.088   1.688   2.624  0.4768  1.1084 -1.0001
 4296TIP3   OH212851   3.020   3.410   3.879 -0.0257  0.1095  0.4523
 4296TIP3    H112852   3.038   3.318   3.899  2.5229  0.7953  1.7306
 4296TIP3    H212853   3.103   3.445   3.849 -1.4062  1.6154 -1.9332
 4297TIP3   OH212854   7.193   4.238   4.072  0.0672  0.6058 -0.1306
 4297TIP3    H112855   7.149   4.239   4.157  2.3626  1.1700  1.1311
 4297TIP3    H212856   7.123   4.254   4.008 -2.4885 -3.8607  1.1532
 4298TIP3   OH212857   2.963   5.194   2.888  0.4136  0.4596  0.6353
 4298TIP3    H112858   2.981   5.118   2.943 -0.7222  0.0438  0.4527
 4298TIP3    H212859   2.927   5.259   2.948  0.5535  0.5459  0.6287
 4299TIP3   OH212860   0.901   1.198   2.162  0.3687 -0.3168  0.0425
 4299TIP3    H112861   0.971   1.227   2.104  0.6070  1.3132  1.0891
 4299TIP3    H212862   0.924   1.233   2.248 -1.3831 -0.3261  0.5527
 4300TIP3   OH212863   2.106   6.089   4.956 -0.0329 -0.1324 -0.1955
 4300TIP3    H112864   2.154   6.088   4.874 -1.4722  1.0178 -1.1193
 4300TIP3    H212865   2.088   5.996   4.975  1.0772 -0.4596 -0.6915
 4301TIP3   OH212866   3.027   5.525   1.087 -0.2337 -0.1352  0.2382
 4301TIP3    H112867   3.032   5.621   1.082  1.9885 -0.1672  0.6239
 4301TIP3    H212868   2.957   5.501   1.026  1.4851  1.5368 -2.6358
 4302TIP3   OH212869   7.114   0.788   4.644 -0.0537 -0.2677  0.7533
 4302TIP3    H112870   7.106   0.849   4.717 -2.3908 -0.5507  0.7854
 4302TIP3    H212871   7.067   0.710   4.672 -1.2561 -0.2755 -1.1172
 4303TIP3   OH212872   4.830   5.106   4.280  0.6120  0.3314  0.0180
 4303TIP3    H112873   4.787   5.189   4.303  1.9864  0.6174  1.8232
 4303TIP3    H212874   4.804   5.046   4.349  0.3075 -0.5329 -0.8245
 4304TIP3   OH212875   4.189   1.905   4.216 -0.6495 -0.6491  0.4943
 4304TIP3    H112876   4.250   1.923   4.144 -0.4988 -0.7110  0.6051
 4304TIP3    H212877   4.155   1.818   4.198 -0.9860 -0.4644  0.2346
 4305TIP3   OH212878   5.155   5.788   2.023 -0.0901 -0.3231 -0.1201
 4305TIP3    H112879   5.093   5.793   2.096 -1.3817  0.6916 -1.2307
 4305TIP3    H212880   5.100   5.792   1.945  1.2746 -1.2258 -1.1595
 4306TIP3   OH212881   5.220   0.863   2.438 -0.2501  0.1445  0.3046
 4306TIP3    H112882   5.282   0.866   2.365  0.6362 -0.7483  1.0005
 4306TIP3    H212883   5.145   0.915   2.407  0.1641 -0.0784 -1.1723
 4307TIP3   OH212884   7.098   5.317   2.593 -0.0465 -0.3570 -0.0581
 4307TIP3    H112885   7.188   5.287   2.607  0.2572  0.5467  0.0240
 4307TIP3    H212886   7.051   5.240   2.562  0.6000 -1.0023  0.5431
 4308TIP3   OH212887   6.711   5.490   3.756 -0.1855 -0.2920  0.0354
 4308TIP3    H112888   6.738   5.577   3.783  0.9397 -0.6249  0.0343
 4308TIP3    H212889   6.726   5.488   3.661 -0.5023 -0.3841 -0.0149
 4309TIP3   OH212890   0.976   2.944   0.977 -0.0466 -0.3129  0.0055
 4309TIP3    H112891   0.940   3.011   1.035  1.1737  0.1516  0.2592
 4309TIP3    H212892   0.917   2.944   0.901 -0.2276  0.8791  0.1183
 4310TIP3   OH212893   1.837   1.488   0.334 -0.2219 -0.1412  0.1433
 4310TIP3    H112894   1.796   1.432   0.268 -1.1856 -0.4956  1.0247
 4310TIP3    H212895   1.852   1.431   0.408 -0.9349  0.6713  0.9414
 4311TIP3   OH212896   4.192   4.526   1.295  0.0494 -0.3768  0.5709
 4311TIP3    H112897   4.224   4.601   1.344  0.6147 -0.0471 -0.2730
 4311TIP3    H212898   4.137   4.563   1.226  0.6652 -0.6810 -0.1075
 4312TIP3   OH212899   0.929   3.381   0.440  0.1177  0.1388 -0.0757
 4312TIP3    H112900   0.941   3.407   0.349 -1.6422  2.6039  0.2969
 4312TIP3    H212901   0.959   3.456   0.491  0.9416 -1.1445  1.3999
 4313TIP3   OH212902   6.588   6.324   2.295  0.8159  0.1337  0.3524
 4313TIP3    H112903   6.591   6.330   2.200 -0.6247 -0.9171  0.1948
 4313TIP3    H212904   6.649   6.391   2.326  2.1990 -0.2991 -1.3028
 4314TIP3   OH212905   0.860   3.041   3.245  0.2063 -0.0891  0.1343
 4314TIP3    H112906   0.905   2.995   3.316  0.6515  0.2435  0.0735
 4314TIP3    H212907   0.879   2.989   3.167  0.4863  0.0475  0.1101
 4315TIP3   OH212908   5.172   3.558   1.633 -0.0531  0.2894 -0.5285
 4315TIP3    H112909   5.240   3.619   1.605 -1.0797  0.9765 -1.6130
 4315TIP3    H212910   5.113   3.551   1.557 -1.0392 -0.5056  0.2813
 4316TIP3   OH212911   0.383   6.262   5.264 -0.1404  0.0113 -0.3818
 4316TIP3    H112912   0.475   6.234   5.260  0.1631  0.8916 -0.0156
 4316TIP3    H212913   0.381   6.326   5.336 -1.3593 -1.1148  0.6209
 4317TIP3   OH212914   3.911   3.140   0.132 -0.4265 -0.1248  0.4545
 4317TIP3    H112915   3.911   3.161   0.226  0.3428  0.3138  0.3608
 4317TIP3    H212916   3.978   3.197   0.095  0.9141 -1.9245 -0.0122
 4318TIP3   OH212917   2.541   6.259   0.069 -0.8674 -0.1103  0.2065
 4318TIP3    H112918   2.586   6.182   0.103 -1.8502  0.0307  1.9623
 4318TIP3    H212919   2.582   6.333   0.114 -1.4674  0.1864  0.2882
 4319TIP3   OH212920   5.341   3.120   5.272 -0.4165  0.4241 -0.2731
 4319TIP3    H112921   5.369   3.209   5.252  0.9115  0.1849  0.4145
 4319TIP3    H212922   5.246   3.127   5.286 -0.1025  2.0557  1.4022
 4320TIP3   OH212923   4.202   4.670   2.637 -0.1420 -0.8369  0.5226
 4320TIP3    H112924   4.143   4.657   2.712 -1.6943 -2.3848 -0.9004
 4320TIP3    H212925   4.171   4.609   2.571 -0.0892  1.8333 -2.1706
 4321TIP3   OH212926   5.670   5.927   0.269 -0.4851 -0.2482 -0.1482
 4321TIP3    H112927   5.634   5.840   0.291 -0.4080  0.0551  1.2878
 4321TIP3    H212928   5.717   5.913   0.188  0.9236 -1.9606  0.8786
 4322TIP3   OH212929   0.798   4.558   4.268  0.5957  0.3621 -0.0775
 4322TIP3    H112930   0.856   4.532   4.196  0.4195  0.4323 -0.2446
 4322TIP3    H212931   0.735   4.617   4.228  0.2342  0.0646  0.0457
 4323TIP3   OH212932   6.659   0.360   2.864  0.5188  0.0009 -0.4944
 4323TIP3    H112933   6.587   0.416   2.894 -0.1354 -0.7027 -0.7159
 4323TIP3    H212934   6.616   0.281   2.831  1.4855 -1.5348  1.6279
 4324TIP3   OH212935   1.222   3.107   3.397  0.0278  0.2450 -0.0191
 4324TIP3    H112936   1.218   3.131   3.305  0.2320  1.5677  0.2863
 4324TIP3    H212937   1.297   3.048   3.404  0.2043  0.3888 -0.6444
 4325TIP3   OH212938   7.018   0.588   4.206  0.0365 -0.0646  0.1493
 4325TIP3    H112939   6.993   0.664   4.153 -3.1332 -0.3153  1.0693
 4325TIP3    H212940   7.026   0.517   4.143 -0.2874  0.3371 -0.3569
 4326TIP3   OH212941   4.549   4.729   3.218  0.1740  0.4725  0.2145
 4326TIP3    H112942   4.639   4.748   3.193  0.2740 -1.3339 -1.0350
 4326TIP3    H212943   4.499   4.805   3.188  0.9396  0.3217 -1.5529
 4327TIP3   OH212944   1.132   3.688   5.451 -0.3268  0.0402 -0.4152
 4327TIP3    H112945   1.045   3.723   5.431 -0.2036  1.6959  1.6652
 4327TIP3    H212946   1.182   3.763   5.481  1.7523 -0.9555 -1.1727
 4328TIP3   OH212947   7.044   3.668   4.025  0.1901 -0.2108  0.3823
 4328TIP3    H112948   7.090   3.732   3.971  1.7161 -0.9491  0.7499
 4328TIP3    H212949   7.109   3.642   4.091  0.0821 -3.0602 -0.5241
 4329TIP3   OH212950   6.111   6.361   0.058 -0.3475 -0.2073  0.0593
 4329TIP3    H112951   6.090   6.288   0.117  0.1008 -1.0248 -0.7757
 4329TIP3    H212952   6.033   6.371   0.003  0.3344 -1.4303 -1.1937
 4330TIP3   OH212953   6.812   4.479   4.102  0.5729  0.3937  0.2671
 4330TIP3    H112954   6.894   4.510   4.062  1.0137 -1.4986 -0.4189
 4330TIP3    H212955   6.812   4.384   4.085 -0.2496 -0.1768  3.0023
 4331TIP3   OH212956   0.536   4.721   2.060 -0.2989 -0.0313 -0.2390
 4331TIP3    H112957   0.567   4.803   2.099 -1.1896  0.9848 -1.5441
 4331TIP3    H212958   0.551   4.655   2.127 -2.7376  1.7467  2.2905
 4332TIP3   OH212959   6.094   0.854   2.280 -0.1242 -0.2049 -0.6599
 4332TIP3    H112960   6.006   0.891   2.271 -0.1027  0.0828  0.2147
 4332TIP3    H212961   6.149   0.911   2.227 -0.4564 -0.3368 -1.1487
 4333TIP3   OH212962   4.492   0.622   0.912 -0.4895  0.4746 -0.3260
 4333TIP3    H112963   4.574   0.620   0.962 -1.2780  0.5416  1.0242
 4333TIP3    H212964   4.425   0.642   0.977 -1.8190 -1.2200 -1.0825
 4334TIP3   OH212965   1.239   1.291   3.873 -0.2645  0.3608 -0.3204
 4334TIP3    H112966   1.211   1.337   3.952  0.4726  2.2309 -1.0835
 4334TIP3    H212967   1.315   1.240   3.900 -0.4414  0.4351  0.3203
 4335TIP3   OH212968   0.603   0.810   1.013  0.2246  0.4189 -0.3136
 4335TIP3    H112969   0.533   0.860   1.057  0.1209  0.9455 -1.0660
 4335TIP3    H212970   0.558   0.737   0.972  0.3608 -0.2530  0.6864
 4336TIP3   OH212971   0.831   0.749   2.397  0.3530 -0.6143 -0.0873
 4336TIP3    H112972   0.754   0.787   2.355  0.6743  0.9874  0.6975
 4336TIP3    H212973   0.905   0.778   2.344  0.6563  0.4629  0.8701
 4337TIP3   OH212974   2.392   3.747   4.049 -0.6841 -0.2621 -0.0629
 4337TIP3    H112975   2.326   3.730   4.116 -0.0841 -3.3372 -0.0869
 4337TIP3    H212976   2.476   3.742   4.096 -0.3373  0.2750 -0.6052
 4338TIP3   OH212977   2.127   4.594   3.735  0.1966 -0.2097  0.1857
 4338TIP3    H112978   2.144   4.689   3.736  1.0524 -0.2872  3.3757
 4338TIP3    H212979   2.033   4.586   3.747  0.0744  0.2085 -0.4242
 4339TIP3   OH212980   2.966   3.310   4.742  0.0508  0.6165 -0.1342
 4339TIP3    H112981   2.893   3.271   4.791  0.9119  0.1206  0.7891
 4339TIP3    H212982   2.930   3.324   4.654 -1.5897  1.6905  0.6527
 4340TIP3   OH212983   0.121   3.266   1.618 -0.3320  0.4701  0.0590
 4340TIP3    H112984   0.080   3.342   1.577  1.2503  0.6273 -1.3805
 4340TIP3    H212985   0.124   3.200   1.548  1.3216  0.2901  0.2608
 4341TIP3   OH212986   5.754   2.319   0.678 -0.3038  0.2909 -0.0721
 4341TIP3    H112987   5.841   2.281   0.689  0.2419  1.5174  0.0580
 4341TIP3    H212988   5.719   2.277   0.599  0.2305 -0.5107  0.1069
 4342TIP3   OH212989   1.116   3.952   3.992  0.2497  0.0840  0.0423
 4342TIP3    H112990   1.081   4.040   4.004 -0.6448  0.0705 -2.0296
 4342TIP3    H212991   1.052   3.894   4.033  0.3317  0.3281  0.5190
 4343TIP3   OH212992   3.405   3.415   2.280  0.0008 -0.4073 -0.5787
 4343TIP3    H112993   3.497   3.387   2.280  0.4300  0.8740  0.9149
 4343TIP3    H212994   3.358   3.342   2.320  0.4515 -0.8086 -0.7679
 4344TIP3   OH212995   4.505   4.851   1.869  0.2969  0.3455  0.9144
 4344TIP3    H112996   4.410   4.846   1.864  0.3632 -0.6167  0.2913
 4344TIP3    H212997   4.535   4.831   1.780  1.0712  1.0291  1.0085
 4345TIP3   OH212998   3.166   6.557   2.864 -0.1701  1.1189 -0.2437
 4345TIP3    H112999   3.240   6.618   2.868  2.1598 -1.5797  2.4978
 4345TIP3    H213000   3.121   6.567   2.948 -0.4085 -0.1303 -0.2033
 4346TIP3   OH213001   3.662   1.523   5.513  0.5283  0.0869 -0.5808
 4346TIP3    H113002   3.638   1.616   5.509  0.2264  0.0169 -0.4297
 4346TIP3    H213003   3.581   1.478   5.536  1.3022  0.0781  2.5126
 4347TIP3   OH213004   6.970   6.756   1.787  0.0178 -0.7487 -0.8683
 4347TIP3    H113005   6.990   6.683   1.845  1.3910  0.3254  0.0852
 4347TIP3    H213006   6.890   6.795   1.823 -0.0731 -1.0860 -0.7015
 4348TIP3   OH213007   6.290   6.249   2.915  0.6842 -0.1241 -0.1936
 4348TIP3    H113008   6.232   6.264   2.841  0.8302 -0.6873 -0.4280
 4348TIP3    H213009   6.240   6.278   2.991 -0.0375 -0.9141 -0.3532
 4349TIP3   OH213010   3.814   6.607   1.207 -0.2066  0.1296 -0.2196
 4349TIP3    H113011   3.873   6.551   1.157 -1.2069 -0.2365 -1.0255
 4349TIP3    H213012   3.726   6.572   1.190 -0.8897  1.9941 -0.8599
 4350TIP3   OH213013   4.637   0.235   0.847  0.1741 -0.4556  0.6750
 4350TIP3    H113014   4.638   0.257   0.941  1.9418  0.9880  0.3660
 4350TIP3    H213015   4.544   0.234   0.825 -0.2434  0.3385  2.2026
 4351TIP3   OH213016   4.795   6.098   1.659 -0.1925 -0.2256  0.5429
 4351TIP3    H113017   4.720   6.158   1.655  0.1900  0.2254 -0.0343
 4351TIP3    H213018   4.871   6.155   1.656  0.1812 -0.6785  1.2736
 4352TIP3   OH213019   3.971   1.658   1.317  0.0642 -0.5578 -0.5389
 4352TIP3    H113020   3.910   1.606   1.369 -0.7145  0.5187 -0.3606
 4352TIP3    H213021   3.999   1.728   1.375 -0.1277  0.1430 -1.2707
 4353TIP3   OH213022   2.075   3.508   1.571  0.2122 -0.5102 -0.0644
 4353TIP3    H113023   2.142   3.443   1.591 -0.1945 -0.8166  0.3549
 4353TIP3    H213024   2.018   3.465   1.507 -0.5319 -0.9028  0.8280
 4354TIP3   OH213025   0.312   2.880   4.235 -0.6753  0.0121  0.1893
 4354TIP3    H113026   0.266   2.954   4.275 -0.1474  0.9520 -0.8836
 4354TIP3    H213027   0.260   2.857   4.159 -0.0977  0.2017 -0.2711
 4355TIP3   OH213028   2.243   2.503   1.384  0.1480  0.7570  0.2792
 4355TIP3    H113029   2.307   2.435   1.405 -0.3753  0.3130  0.4631
 4355TIP3    H213030   2.163   2.455   1.366  0.3296  1.1880 -1.8355
 4356TIP3   OH213031   7.004   1.393   0.627  0.6937 -0.1189 -0.2333
 4356TIP3    H113032   7.016   1.418   0.535 -0.4370 -0.4181 -0.4842
 4356TIP3    H213033   7.084   1.346   0.650  0.7979 -0.4497 -1.2215
 4357TIP3   OH213034   0.189   3.561   5.648 -0.5806  0.0873 -0.4375
 4357TIP3    H113035   0.260   3.553   5.712 -3.0442  0.3607  2.5842
 4357TIP3    H213036   0.230   3.544   5.563  2.5623 -2.3039  1.3521
 4358TIP3   OH213037   0.742   6.558   1.057  0.5990 -0.3384  0.6631
 4358TIP3    H113038   0.786   6.594   0.980  0.7456  0.5400  1.1448
 4358TIP3    H213039   0.652   6.540   1.027  0.2740  1.2192  0.6078
 4359TIP3   OH213040   1.593   1.671   4.594  0.0209 -0.1738  0.2924
 4359TIP3    H113041   1.634   1.661   4.680  0.0373  0.7252  0.3984
 4359TIP3    H213042   1.574   1.582   4.566  0.1227 -0.4827  1.1786
 4360TIP3   OH213043   0.959   5.541   3.293 -0.2688 -0.4593  0.1707
 4360TIP3    H113044   1.036   5.544   3.236 -0.3279 -1.2097  0.0463
 4360TIP3    H213045   0.905   5.471   3.258 -1.7597  1.0250 -0.6639
 4361TIP3   OH213046   2.492   5.501   1.975  0.0864  0.1066 -0.3400
 4361TIP3    H113047   2.470   5.583   2.019  1.0108  1.1930 -1.7971
 4361TIP3    H213048   2.581   5.482   2.003 -0.0587 -0.3083 -0.1537
 4362TIP3   OH213049   1.204   5.715   4.545 -0.1125 -0.0504 -0.0744
 4362TIP3    H113050   1.128   5.760   4.583  0.6303  0.0297  1.4048
 4362TIP3    H213051   1.214   5.754   4.458 -0.1812  1.8851  0.7140
 4363TIP3   OH213052   1.847   5.329   0.972  0.2431  0.0514  0.2679
 4363TIP3    H113053   1.895   5.401   1.011  1.2609  1.1988 -2.8209
 4363TIP3    H213054   1.789   5.371   0.908  0.4050 -1.8173 -1.1673
 4364TIP3   OH213055   0.375   4.378   2.303  0.0271 -0.2798  0.1826
 4364TIP3    H113056   0.457   4.413   2.270  0.2046 -0.9496 -0.1099
 4364TIP3    H213057   0.401   4.317   2.372 -0.2198 -0.5105  0.0742
 4365TIP3   OH213058   1.623   6.554   4.047  0.1321 -0.0143  0.1204
 4365TIP3    H113059   1.590   6.466   4.061 -2.4074  0.7966 -0.3354
 4365TIP3    H213060   1.661   6.580   4.131  0.6573 -1.3969  0.3289
 4366TIP3   OH213061   2.031   5.745   0.062 -0.2894  0.1983  0.4694
 4366TIP3    H113062   1.985   5.778   0.139 -0.1824  0.2451  0.5136
 4366TIP3    H213063   2.088   5.817   0.036 -1.2247  0.6442 -0.3915
 4367TIP3   OH213064   2.160   4.770   4.813  0.7072  0.2680  0.1150
 4367TIP3    H113065   2.188   4.807   4.897  1.1595  0.9984 -0.3395
 4367TIP3    H213066   2.130   4.846   4.763 -1.2233 -0.3762  0.2289
 4368TIP3   OH213067   2.428   6.039   1.363  0.5390  0.0320  0.0807
 4368TIP3    H113068   2.403   5.951   1.393  0.9616 -0.6771 -1.5330
 4368TIP3    H213069   2.501   6.024   1.304 -0.7138  1.2427 -1.8950
 4369TIP3   OH213070   6.447   3.486   3.672 -0.6905 -0.5128 -0.0472
 4369TIP3    H113071   6.521   3.484   3.733 -0.9024 -0.7835  0.2044
 4369TIP3    H213072   6.476   3.543   3.601 -0.5201 -0.0194  0.4115
 4370TIP3   OH213073   5.591   0.301   3.135  0.3261  0.1048  0.3288
 4370TIP3    H113074   5.634   0.338   3.057 -0.2873  0.4270  0.1370
 4370TIP3    H213075   5.498   0.316   3.119  0.2743  2.0749  2.0784
 4371TIP3   OH213076   3.255   1.697   4.881  0.0471 -0.6896 -0.4968
 4371TIP3    H113077   3.341   1.677   4.919 -0.9734 -1.4330  1.5713
 4371TIP3    H213078   3.272   1.709   4.788  2.4367 -0.5085 -0.0986
 4372TIP3   OH213079   0.947   3.296   4.494 -0.2961  0.4414  0.1783
 4372TIP3    H113080   0.911   3.303   4.582 -0.5250  0.0117  0.1236
 4372TIP3    H213081   0.942   3.385   4.458 -0.9556  0.4637  0.3114
 4373TIP3   OH213082   6.700   2.726   5.384 -0.4009 -0.2635  0.0952
 4373TIP3    H113083   6.683   2.719   5.290 -0.8709  0.2697  0.1387
 4373TIP3    H213084   6.752   2.805   5.394  1.0727 -1.2034  0.1085
 4374TIP3   OH213085   2.072   1.946   0.838 -0.4527 -0.1221 -0.6656
 4374TIP3    H113086   1.990   1.984   0.870 -0.5652 -0.6172 -0.3469
 4374TIP3    H213087   2.122   1.926   0.917 -0.4484 -0.7394 -0.8196
 4375TIP3   OH213088   6.613   4.133   2.844  0.4983 -0.0793  0.2348
 4375TIP3    H113089   6.574   4.174   2.921 -0.0530 -0.2942  0.0817
 4375TIP3    H213090   6.695   4.096   2.875 -0.0773 -0.8342  0.9012
 4376TIP3   OH213091   3.332   5.028   5.663 -0.2919 -0.0571 -0.5359
 4376TIP3    H113092   3.355   5.088   5.592 -0.7216  1.9528  0.9289
 4376TIP3    H213093   3.416   5.001   5.699 -0.0795  1.4473  0.1683
 4377TIP3   OH213094   3.766   6.172   3.683 -0.1369 -0.2531 -0.4335
 4377TIP3    H113095   3.689   6.182   3.739  0.6491  0.9335  0.4813
 4377TIP3    H213096   3.840   6.168   3.744  0.9326  2.9572 -1.3604
 4378TIP3   OH213097   4.236   6.568   4.107  0.4357  0.2227 -0.0622
 4378TIP3    H113098   4.216   6.629   4.178 -0.6742  0.1800 -0.3149
 4378TIP3    H213099   4.330   6.576   4.094  0.5329  0.7853  0.9071
 4379TIP3   OH213100   4.384   4.088   1.750 -0.0725  0.0763 -0.5568
 4379TIP3    H113101   4.444   4.149   1.708  0.7346 -1.5347 -1.8760
 4379TIP3    H213102   4.341   4.042   1.678 -1.3291 -0.2783  0.3827
 4380TIP3   OH213103   5.306   0.369   4.109 -0.4867 -0.2860  0.2755
 4380TIP3    H113104   5.285   0.346   4.018 -1.6771  2.9398 -0.3744
 4380TIP3    H213105   5.401   0.356   4.115 -0.4666 -1.0931 -1.2369
 4381TIP3   OH213106   2.444   4.868   0.906 -0.0683  0.0761  0.3676
 4381TIP3    H113107   2.512   4.808   0.876  1.3005  0.9641  1.5315
 4381TIP3    H213108   2.431   4.846   0.998 -1.0510  0.2292  0.2831
 4382TIP3   OH213109   1.806   2.219   4.782 -0.0706  0.1550 -0.3564
 4382TIP3    H113110   1.842   2.295   4.827 -0.5372  0.0544  0.1968
 4382TIP3    H213111   1.718   2.245   4.756  0.1543  0.1723 -1.1209
 4383TIP3   OH213112   3.188   3.447   1.143 -0.4210 -0.3889 -0.4272
 4383TIP3    H113113   3.154   3.535   1.131 -0.8386 -0.6272 -1.0564
 4383TIP3    H213114   3.151   3.418   1.227 -0.4471 -0.0429 -0.3185
 4384TIP3   OH213115   3.423   6.727   3.943 -0.2729 -0.4620 -0.5233
 4384TIP3    H113116   3.480   6.660   3.906  0.3925 -0.4215  0.3925
 4384TIP3    H213117   3.481   6.801   3.960 -0.9815  0.3190 -1.4155
 4385TIP3   OH213118   3.619   1.495   1.244 -0.5104  0.1640  0.4344
 4385TIP3    H113119   3.681   1.463   1.310  0.4586  0.1605 -0.4599
 4385TIP3    H213120   3.673   1.519   1.169 -1.4690  1.4100  0.1011
 4386TIP3   OH213121   0.972   2.050   1.926  0.0376  0.0356  0.3252
 4386TIP3    H113122   1.005   2.140   1.925  0.3153 -0.0718 -0.9968
 4386TIP3    H213123   1.050   1.995   1.917 -0.2901 -0.2795 -0.6666
 4387TIP3   OH213124   4.047   0.339   3.399 -0.8343 -0.0223  0.2587
 4387TIP3    H113125   4.033   0.246   3.380 -1.3325  0.0688  0.1793
 4387TIP3    H213126   4.082   0.375   3.318 -0.1241 -0.2496  0.4587
 4388TIP3   OH213127   4.139   2.645   5.383 -0.3516 -0.0676 -0.0791
 4388TIP3    H113128   4.211   2.649   5.446 -0.1684 -0.7946 -0.2392
 4388TIP3    H213129   4.142   2.730   5.338  0.9630 -0.4044 -0.6832
 4389TIP3   OH213130   2.525   5.375   3.014 -0.0415 -0.2264 -0.4739
 4389TIP3    H113131   2.504   5.394   3.106 -0.5604 -0.4065 -0.5544
 4389TIP3    H213132   2.440   5.368   2.971  0.1934 -0.5853 -0.8809
 4390TIP3   OH213133   3.530   0.675   0.237 -0.2779 -0.0897  0.1849
 4390TIP3    H113134   3.505   0.582   0.237 -2.2206  0.4016 -0.0465
 4390TIP3    H213135   3.460   0.720   0.283 -0.4956  1.5326 -1.6011
 4391TIP3   OH213136   7.190   3.732   5.535  0.0323  0.3302  0.2744
 4391TIP3    H113137   7.112   3.705   5.485 -0.7126  1.5165  0.7593
 4391TIP3    H213138   7.238   3.650   5.549 -1.0009 -0.3967 -0.2357
 4392TIP3   OH213139   5.386   1.573   0.617  0.0780  0.2913 -0.4144
 4392TIP3    H113140   5.461   1.590   0.560  0.6783  0.7275  0.4832
 4392TIP3    H213141   5.323   1.641   0.593  0.6092  0.9139 -0.0851
 4393TIP3   OH213142   2.756   3.006   5.548 -0.0033  0.0543 -0.2894
 4393TIP3    H113143   2.747   2.992   5.642 -1.0558 -1.1776 -0.5297
 4393TIP3    H213144   2.666   2.996   5.514  0.2693  1.0249 -1.3574
 4394TIP3   OH213145   2.612   1.633   2.715  0.3792  0.1901  0.7394
 4394TIP3    H113146   2.642   1.723   2.725 -0.9539  0.8149 -0.4675
 4394TIP3    H213147   2.516   1.639   2.722  0.1699 -0.9100 -0.7462
 4395TIP3   OH213148   4.523   6.602   5.443  0.2736  0.2363  0.3889
 4395TIP3    H113149   4.536   6.661   5.517 -1.8790  0.7133  0.4438
 4395TIP3    H213150   4.541   6.657   5.366 -0.9680  0.7883  0.4686
 4396TIP3   OH213151   6.080   2.082   2.335 -0.1584 -0.2227 -0.6853
 4396TIP3    H113152   6.142   2.098   2.407  1.1681  1.0384 -2.0347
 4396TIP3    H213153   6.037   2.000   2.359 -1.6849  1.3729  2.8161
 4397TIP3   OH213154   1.331   6.400   1.638 -0.2447  0.0742  0.4216
 4397TIP3    H113155   1.343   6.422   1.546 -1.8012 -0.1957  0.1235
 4397TIP3    H213156   1.378   6.318   1.650  0.5291  0.4590  0.0368
 4398TIP3   OH213157   0.652   3.742   2.593 -0.7934 -0.4141 -0.0797
 4398TIP3    H113158   0.602   3.724   2.514 -0.7465  2.2470 -0.7853
 4398TIP3    H213159   0.644   3.661   2.644 -3.6650 -1.0378 -1.2699
 4399TIP3   OH213160   1.442   1.671   1.450 -0.5499  0.4596 -0.2532
 4399TIP3    H113161   1.459   1.605   1.518 -0.0646  0.6236 -0.2083
 4399TIP3    H213162   1.470   1.629   1.369  1.3381  1.1727 -0.0316
 4400TIP3   OH213163   4.069   5.970   0.631  0.4175 -0.7452 -0.1478
 4400TIP3    H113164   4.029   6.055   0.649 -1.6063 -1.7771  0.6748
 4400TIP3    H213165   4.158   5.977   0.665  0.7737  1.4446 -1.3626
 4401TIP3   OH213166   3.761   3.742   4.553  0.2107 -0.0819 -0.1918
 4401TIP3    H113167   3.782   3.673   4.491  0.0417 -0.3082  0.0045
 4401TIP3    H213168   3.691   3.792   4.511 -1.3558 -1.4509  0.6746
 4402TIP3   OH213169   1.730   1.522   2.186 -0.2609 -0.1686  0.5475
 4402TIP3    H113170   1.682   1.541   2.105 -0.3887  0.1558  0.6947
 4402TIP3    H213171   1.816   1.492   2.156 -0.6904 -1.1564  0.2744
 4403TIP3   OH213172   5.726   0.353   5.776  0.2224 -0.3047  0.3290
 4403TIP3    H113173   5.776   0.350   5.695 -1.4675 -0.5842 -0.7566
 4403TIP3    H213174   5.758   0.279   5.827  1.0626 -0.3275 -0.2104
 4404TIP3   OH213175   2.184   4.371   3.561 -0.3688 -0.3007 -0.1561
 4404TIP3    H113176   2.174   4.427   3.638  1.6058  0.5937 -0.4889
 4404TIP3    H213177   2.195   4.283   3.597  2.0570  0.2978  0.7323
 4405TIP3   OH213178   0.026   1.768   1.091 -0.1047 -0.0779 -0.2270
 4405TIP3    H113179   0.099   1.794   1.035  0.1074 -0.3907 -0.1016
 4405TIP3    H213180   0.067   1.731   1.169 -0.3972  0.6446  0.2854
 4406TIP3   OH213181   2.061   2.360   4.063 -0.2218 -0.2569 -0.5904
 4406TIP3    H113182   2.002   2.291   4.032 -2.4386  0.9508  0.7350
 4406TIP3    H213183   2.031   2.381   4.151  1.6172  1.0865 -0.2126
 4407TIP3   OH213184   5.581   4.573   4.509 -0.2849 -0.0738  0.0308
 4407TIP3    H113185   5.631   4.612   4.580 -0.1588  0.0786 -0.1423
 4407TIP3    H213186   5.506   4.531   4.552  0.0115 -0.3391  0.2960
 4408TIP3   OH213187   3.950   4.007   0.619 -0.0821 -0.1688 -0.1793
 4408TIP3    H113188   3.883   4.046   0.563  1.0800 -0.6082 -1.9428
 4408TIP3    H213189   4.013   4.077   0.635 -0.6760  0.1123  1.0959
 4409TIP3   OH213190   4.823   1.606   3.052  0.4462  0.4723 -0.2939
 4409TIP3    H113191   4.874   1.610   2.971 -0.8230  1.9854 -1.0539
 4409TIP3    H213192   4.878   1.554   3.111  2.3252  1.0308 -1.4508
 4410TIP3   OH213193   5.445   4.549   5.395 -0.3824 -0.4604  0.4052
 4410TIP3    H113194   5.360   4.505   5.397 -0.8905  0.4912  0.2425
 4410TIP3    H213195   5.474   4.550   5.486  0.1772 -2.1286  0.2758
 4411TIP3   OH213196   6.471   2.686   1.546  0.2311 -0.1991  0.1996
 4411TIP3    H113197   6.412   2.664   1.618  1.5728  1.5857  1.9517
 4411TIP3    H213198   6.419   2.744   1.490 -1.3234 -2.7716 -1.2109
 4412TIP3   OH213199   4.820   4.823   3.206  0.4484  0.0348 -0.4170
 4412TIP3    H113200   4.824   4.917   3.222  1.7540 -0.2022  0.8317
 4412TIP3    H213201   4.904   4.789   3.238  0.0027 -1.5630 -0.8366
 4413TIP3   OH213202   7.221   1.952   3.777  0.1848  0.1988 -0.4065
 4413TIP3    H113203   7.245   2.041   3.803 -0.5741  0.6619 -1.2474
 4413TIP3    H213204   7.125   1.951   3.779  0.1762 -0.4625 -0.8580
 4414TIP3   OH213205   1.679   4.137   1.157 -0.6014 -0.5742  0.1340
 4414TIP3    H113206   1.584   4.125   1.152 -0.6409 -1.3564  1.9248
 4414TIP3    H213207   1.709   4.128   1.066 -2.1487 -1.0699 -0.3652
 4415TIP3   OH213208   6.096   4.436   0.479  0.2760  0.1950 -0.0169
 4415TIP3    H113209   6.028   4.468   0.538  0.2649  1.7215 -0.7967
 4415TIP3    H213210   6.117   4.348   0.511 -0.9198  0.3238  1.2010
 4416TIP3   OH213211   1.816   4.174   1.404 -0.2273 -0.2242 -0.4447
 4416TIP3    H113212   1.896   4.224   1.390 -0.8613  1.1131  0.5654
 4416TIP3    H213213   1.779   4.164   1.316  1.4988 -1.7265 -1.0688
 4417TIP3   OH213214   5.534   4.795   3.781  0.1840 -0.1503  0.6709
 4417TIP3    H113215   5.450   4.841   3.781 -0.3151 -0.9540 -1.2468
 4417TIP3    H213216   5.515   4.710   3.741  2.1757  0.2807 -1.4349
 4418TIP3   OH213217   2.642   4.893   0.487  0.5005  0.3738 -0.2161
 4418TIP3    H113218   2.725   4.939   0.500  0.2617  1.0537 -1.0499
 4418TIP3    H213219   2.648   4.856   0.399  0.0392  0.1775 -0.1676
 4419TIP3   OH213220   3.023   0.119   0.907  0.1381 -0.2085  0.3115
 4419TIP3    H113221   2.979   0.053   0.854  1.9399 -1.0011 -0.2881
 4419TIP3    H213222   3.036   0.193   0.847 -3.8928  1.8010  1.5554
 4420TIP3   OH213223   1.062   0.350   3.108 -0.0392 -0.5925 -0.1263
 4420TIP3    H113224   1.022   0.263   3.112  0.2441 -0.7068  0.2149
 4420TIP3    H213225   0.993   0.409   3.138  0.0081 -0.7778  0.3461
 4421TIP3   OH213226   3.036   3.696   1.126 -0.1184  0.2315 -0.2813
 4421TIP3    H113227   3.011   3.763   1.190  0.6787 -0.5412  0.8841
 4421TIP3    H213228   2.954   3.672   1.083 -0.2962  2.5883 -1.4125
 4422TIP3   OH213229   3.795   1.569   1.038  0.1357  0.7484 -0.1073
 4422TIP3    H113230   3.844   1.646   1.064  0.7922  0.3412 -0.1185
 4422TIP3    H213231   3.779   1.581   0.944  2.6129 -0.3746 -0.7508
 4423TIP3   OH213232   6.085   0.290   5.318  0.5495  0.6121  0.4565
 4423TIP3    H113233   6.127   0.206   5.336  0.2327 -0.0265 -1.5225
 4423TIP3    H213234   5.992   0.275   5.339  0.2980  0.0791 -0.9109
 4424TIP3   OH213235   4.149   1.155   1.495 -0.0734 -0.2899 -0.4027
 4424TIP3    H113236   4.234   1.147   1.453 -1.2702 -0.9619 -2.8750
 4424TIP3    H213237   4.145   1.247   1.523  1.2501 -0.1171 -0.7219
 4425TIP3   OH213238   4.645   3.937   4.862 -0.0379  0.1866  0.1068
 4425TIP3    H113239   4.564   3.939   4.913 -0.1595  2.2006 -0.0842
 4425TIP3    H213240   4.636   4.009   4.799  2.6477  1.7742  1.3477
 4426TIP3   OH213241   4.245   0.109   4.226  0.4273  0.1410 -0.2465
 4426TIP3    H113242   4.320   0.099   4.168  0.4098 -1.0971 -0.0828
 4426TIP3    H213243   4.176   0.143   4.170  0.8152  0.2953 -0.6371
 4427TIP3   OH213244   6.375   1.559  -0.006  0.5650 -0.4147 -0.3214
 4427TIP3    H113245   6.330   1.559   0.079 -0.5069  0.1421 -0.8625
 4427TIP3    H213246   6.356   1.472  -0.042 -0.2027 -0.1492 -0.5896
 4428TIP3   OH213247   2.163   5.007   1.077 -0.4270  0.0837 -0.5038
 4428TIP3    H113248   2.226   4.962   1.133 -2.3002 -0.7547  1.0494
 4428TIP3    H213249   2.132   4.940   1.016  0.1922  0.5106 -1.3121
 4429TIP3   OH213250   4.916   4.866   0.272  0.0355 -0.1588 -0.0866
 4429TIP3    H113251   4.918   4.787   0.325 -0.6747 -0.0241  0.1469
 4429TIP3    H213252   4.853   4.924   0.315  1.5288  1.1038  0.5259
 4430TIP3   OH213253   1.370   3.023   5.821 -0.0438  0.1152  0.6972
 4430TIP3    H113254   1.439   3.042   5.884  1.3121 -0.6590 -0.4963
 4430TIP3    H213255   1.369   2.928   5.812  0.5378  0.2294 -1.1741
 4431TIP3   OH213256   1.217   2.164   4.663 -0.8395  0.4971 -0.3404
 4431TIP3    H113257   1.154   2.104   4.702 -2.0697  2.2057  0.3999
 4431TIP3    H213258   1.232   2.129   4.575 -1.0592 -1.1894  0.2626
 4432TIP3   OH213259   6.509   2.923   4.031  0.5285 -0.6619 -0.3974
 4432TIP3    H113260   6.432   2.967   4.066  0.3041 -1.3479 -0.0033
 4432TIP3    H213261   6.528   2.969   3.949  0.5189  0.3803  0.1732
 4433TIP3   OH213262   0.746   0.150   1.878 -0.1498 -0.5421 -0.2845
 4433TIP3    H113263   0.755   0.089   1.951  0.7659  0.1533  0.1982
 4433TIP3    H213264   0.680   0.212   1.906 -0.2063 -0.6024 -0.2831
 4434TIP3   OH213265   2.254   1.148   1.270  0.0945  0.0308  0.7228
 4434TIP3    H113266   2.199   1.176   1.197  1.6838  1.2053 -0.0877
 4434TIP3    H213267   2.344   1.161   1.239  0.8286  0.2374  2.7694
 4435TIP3   OH213268   2.447   6.221   2.141  0.3408  0.3204 -0.1390
 4435TIP3    H113269   2.496   6.152   2.097  0.3477  1.2435 -1.6779
 4435TIP3    H213270   2.514   6.282   2.172  0.2545  1.0295 -1.2805
 4436TIP3   OH213271   5.251   6.238   5.178  0.1537  0.2039  0.0327
 4436TIP3    H113272   5.164   6.273   5.196  0.8183  1.4379  0.9581
 4436TIP3    H213273   5.263   6.252   5.084 -0.5457  0.2061 -0.0650
 4437TIP3   OH213274   4.369   1.705   1.322  0.2490  0.0393  0.3294
 4437TIP3    H113275   4.340   1.777   1.378  0.3796  0.1515  0.2536
 4437TIP3    H213276   4.372   1.743   1.234  2.5388  0.6182  0.5893
 4438TIP3   OH213277   1.033   5.700   1.904  0.0600  0.4459  0.0425
 4438TIP3    H113278   1.031   5.684   1.809  0.2066  0.3457  0.0551
 4438TIP3    H213279   0.942   5.688   1.932 -0.1421  1.3069 -0.2162
 4439TIP3   OH213280   2.561   2.599   4.830 -0.3976 -0.3533  0.0436
 4439TIP3    H113281   2.617   2.562   4.898  0.4604  0.8894  0.0400
 4439TIP3    H213282   2.526   2.679   4.869  0.3975  0.5743 -1.0822
 4440TIP3   OH213283   1.305   2.439   3.920  0.2921  0.4212 -0.0888
 4440TIP3    H113284   1.275   2.491   3.845  0.5894  0.4293 -0.2064
 4440TIP3    H213285   1.337   2.504   3.983  2.2683  0.3370 -0.9394
 4441TIP3   OH213286   2.285   4.756   1.702  0.1135 -0.3843 -0.5120
 4441TIP3    H113287   2.234   4.837   1.690  0.8901  0.1775 -0.0911
 4441TIP3    H213288   2.346   4.777   1.773 -0.4339 -1.7082  0.3934
 4442TIP3   OH213289   2.069   6.037   0.501 -1.1582  0.0149  0.6291
 4442TIP3    H113290   2.148   6.006   0.458 -0.6272 -2.4093  3.0770
 4442TIP3    H213291   2.083   6.131   0.512 -0.6224  0.4540 -2.7571
 4443TIP3   OH213292   5.374   6.136   2.708 -0.0649 -0.1806  0.2501
 4443TIP3    H113293   5.458   6.147   2.663 -0.3807 -1.6332 -0.7429
 4443TIP3    H213294   5.398   6.121   2.799  0.6177  2.0031  0.4881
 4444TIP3   OH213295   5.283   3.613   1.289  0.2157  0.0610 -0.2426
 4444TIP3    H113296   5.268   3.552   1.361  0.8072 -1.0053 -0.9751
 4444TIP3    H213297   5.344   3.678   1.324 -1.1024  0.7724  0.8147
 4445TIP3   OH213298   3.764   1.978   5.490 -0.2243  0.5281 -0.2261
 4445TIP3    H113299   3.803   2.046   5.434 -0.8055  0.6903 -0.4380
 4445TIP3    H213300   3.753   2.020   5.575  2.7495 -0.3669  0.7290
 4446TIP3   OH213301   4.136   3.169   4.991  0.2628  0.9920  0.5707
 4446TIP3    H113302   4.071   3.217   4.940  0.7357  1.4335  0.3726
 4446TIP3    H213303   4.171   3.103   4.931 -0.2526  0.5135  0.7863
 4447TIP3   OH213304   0.170   0.645   3.908 -0.1723 -0.6541  0.0884
 4447TIP3    H113305   0.169   0.597   3.991  1.1939 -1.1178 -0.1305
 4447TIP3    H213306   0.125   0.587   3.846  0.0479 -0.9383  0.1933
 4448TIP3   OH213307   1.350   3.429   2.917  0.0065 -0.0144  0.0382
 4448TIP3    H113308   1.406   3.494   2.874  1.1540  0.0380  1.5415
 4448TIP3    H213309   1.304   3.478   2.985  1.0364 -0.7746  1.3252
 4449TIP3   OH213310   2.771   2.649   5.807  0.4419 -0.2209  0.1493
 4449TIP3    H113311   2.779   2.648   5.902 -0.0467 -0.5401  0.1924
 4449TIP3    H213312   2.854   2.685   5.776  0.5893 -0.0794  0.6959
 4450TIP3   OH213313   2.707   0.863   5.796 -0.0745 -0.0725 -0.7892
 4450TIP3    H113314   2.693   0.771   5.819 -0.3972  0.2267  0.2656
 4450TIP3    H213315   2.786   0.888   5.843 -0.5542  0.4595 -0.2361
 4451TIP3   OH213316   3.877   6.629   3.640  0.6756 -0.0623  0.6384
 4451TIP3    H113317   3.967   6.642   3.611  0.9856 -2.7799  0.1437
 4451TIP3    H213318   3.837   6.575   3.572 -1.1162  0.4125  1.2456
 4452TIP3   OH213319   7.066   0.653   1.899 -0.1841  0.0480 -0.6132
 4452TIP3    H113320   7.094   0.673   1.810  1.4960  1.1647  0.1263
 4452TIP3    H213321   7.066   0.737   1.944 -1.7265 -0.3834  0.2770
 4453TIP3   OH213322   3.214   1.350   4.563 -1.1945 -0.2758  0.3397
 4453TIP3    H113323   3.232   1.299   4.484 -0.0966 -0.4521  0.6938
 4453TIP3    H213324   3.245   1.438   4.543 -0.5688 -0.4119  0.7106
 4454TIP3   OH213325   1.798   5.115   0.146 -0.1566  0.4354  0.3339
 4454TIP3    H113326   1.872   5.067   0.183 -0.6558  0.4292  1.3401
 4454TIP3    H213327   1.824   5.207   0.150 -0.6061  0.5191  1.6446
 4455TIP3   OH213328   6.215   0.620   4.524  0.1092 -0.2037 -0.2417
 4455TIP3    H113329   6.190   0.638   4.615 -1.9673  0.8779 -0.9614
 4455TIP3    H213330   6.153   0.670   4.472  1.0987 -0.9976 -2.2900
 4456TIP3   OH213331   7.005   2.564   5.877 -0.3468 -0.0704 -0.2420
 4456TIP3    H113332   6.986   2.619   5.953  1.0916  0.6982 -0.3945
 4456TIP3    H213333   6.958   2.605   5.804 -0.1658  0.3176 -0.1390
 4457TIP3   OH213334   2.878   3.250   1.157  0.1358  0.1211 -0.0418
 4457TIP3    H113335   2.905   3.282   1.243  1.1070  0.3985 -0.4334
 4457TIP3    H213336   2.812   3.312   1.127 -0.2047  0.0251  0.4906
 4458TIP3   OH213337   3.368   0.180   5.324  0.8855  0.9795  0.0522
 4458TIP3    H113338   3.382   0.124   5.400  1.4028  1.2744  0.1838
 4458TIP3    H213339   3.403   0.131   5.250  1.0308  0.9876  0.1158
 4459TIP3   OH213340   2.011   5.821   4.955 -0.1334 -0.0862 -0.1358
 4459TIP3    H113341   2.075   5.755   4.980 -0.7504 -0.4536  0.4982
 4459TIP3    H213342   1.955   5.776   4.891 -0.2950 -0.0499 -0.0210
 4460TIP3   OH213343   1.014   1.454   1.014  0.0483 -0.5549 -0.3643
 4460TIP3    H113344   1.067   1.456   1.094  2.6513 -0.1110 -1.9852
 4460TIP3    H213345   0.929   1.421   1.043  0.9173 -0.5468  2.5454
 4461TIP3   OH213346   6.914   2.811   5.776  0.7059 -0.1578 -0.3051
 4461TIP3    H113347   6.997   2.858   5.782  1.4504 -1.5643  1.2695
 4461TIP3    H213348   6.862   2.845   5.849  0.4298 -0.2712 -0.4486
 4462TIP3   OH213349   1.607   6.635   3.585  0.7308 -0.3494  0.0933
 4462TIP3    H113350   1.644   6.563   3.534  3.5957  2.0270 -1.4655
 4462TIP3    H213351   1.605   6.709   3.525 -0.7774  1.2941  2.0198
 4463TIP3   OH213352   1.767   3.907   2.107 -0.5738 -0.1445  0.0916
 4463TIP3    H113353   1.765   3.887   2.014 -1.7649  0.3153 -0.0077
 4463TIP3    H213354   1.744   3.824   2.149  0.9495 -0.6126  0.0512
 4464TIP3   OH213355   5.671   2.380   0.277  0.5796 -0.0030 -0.0105
 4464TIP3    H113356   5.582   2.377   0.242  0.3533 -0.6767  0.6106
 4464TIP3    H213357   5.727   2.365   0.201  0.2829  2.4798 -0.8143
 4465TIP3   OH213358   5.057   4.864   1.657 -0.3250  0.2075  0.4856
 4465TIP3    H113359   5.046   4.807   1.581 -2.1633 -0.5712  1.2639
 4465TIP3    H213360   5.128   4.923   1.634 -0.7998 -0.0422 -1.7958
 4466TIP3   OH213361   4.300   4.874   4.231 -0.0377 -0.3049 -0.5925
 4466TIP3    H113362   4.243   4.825   4.172 -0.4884  1.3941 -1.6483
 4466TIP3    H213363   4.241   4.935   4.275  0.9130  1.6416 -1.8667
 4467TIP3   OH213364   0.312   1.507   2.017 -0.8274 -0.7920  0.0074
 4467TIP3    H113365   0.349   1.589   1.984  1.9456 -1.7449  0.4353
 4467TIP3    H213366   0.225   1.530   2.049  0.2503  2.2240  1.1279
 4468TIP3   OH213367   5.921   4.803   2.468  0.1684  0.2397  0.0602
 4468TIP3    H113368   5.900   4.710   2.464 -0.1737  0.1139  2.5820
 4468TIP3    H213369   6.010   4.809   2.436  0.0641 -0.8954 -0.5063
 4469TIP3   OH213370   1.910   3.540   4.554  0.7201 -0.0189  0.0148
 4469TIP3    H113371   1.980   3.591   4.513  1.2402 -1.6013 -1.1602
 4469TIP3    H213372   1.918   3.452   4.515 -2.1374 -0.1778 -0.4439
 4470TIP3   OH213373   3.606   0.790   4.778 -0.0319 -0.1658 -0.4121
 4470TIP3    H113374   3.522   0.837   4.783  0.2153  0.4615 -1.8118
 4470TIP3    H213375   3.581   0.700   4.756 -0.3774 -0.1549 -0.0757
 4471TIP3   OH213376   4.504   4.685   2.889  0.1337 -0.0157 -0.4212
 4471TIP3    H113377   4.588   4.646   2.915  0.1831  0.3513 -0.0194
 4471TIP3    H213378   4.460   4.615   2.841  0.6003 -0.2681 -0.4924
 4472TIP3   OH213379   4.450   5.334   4.261 -0.1410 -0.1831 -0.0995
 4472TIP3    H113380   4.394   5.349   4.337 -0.1993 -1.8512  0.2173
 4472TIP3    H213381   4.425   5.247   4.229  1.6024 -0.5684 -0.5306
 4473TIP3   OH213382   6.191   4.710   4.337  0.2890  0.0283 -0.0187
 4473TIP3    H113383   6.136   4.727   4.261 -0.1410  0.8774  0.4605
 4473TIP3    H213384   6.130   4.686   4.407  0.5310  0.6749  0.4361
 4474TIP3   OH213385   4.042   0.734   0.107  0.1226  0.0971 -0.0528
 4474TIP3    H113386   4.091   0.660   0.072 -2.3481 -1.4205 -0.6053
 4474TIP3    H213387   4.053   0.728   0.202  2.3365  0.8878 -0.2001
 4475TIP3   OH213388   5.134   3.834   3.086 -0.1185  0.7235  0.2425
 4475TIP3    H113389   5.145   3.768   3.018  1.0816  0.6867  0.4416
 4475TIP3    H213390   5.051   3.812   3.128 -0.7949  0.6494 -1.0920
 4476TIP3   OH213391   4.704   2.767   1.738 -0.2401 -0.0513 -0.1391
 4476TIP3    H113392   4.618   2.731   1.762 -0.5183 -0.3885 -1.5581
 4476TIP3    H213393   4.683   2.848   1.692  0.3628  1.8763  2.6762
 4477TIP3   OH213394   1.730   4.212   5.698 -0.3586 -0.1935 -0.5443
 4477TIP3    H113395   1.798   4.202   5.765 -1.1820  0.6170  0.4428
 4477TIP3    H213396   1.715   4.123   5.666  0.8495 -0.4425 -0.4780
 4478TIP3   OH213397   0.663   3.976   3.303  0.0808  0.0041  0.0007
 4478TIP3    H113398   0.639   4.061   3.268  0.4755 -0.1109 -0.5718
 4478TIP3    H213399   0.746   3.991   3.349  0.5351 -0.2027 -0.7301
 4479TIP3   OH213400   5.967   3.773   3.043 -0.0018  0.2308  0.0932
 4479TIP3    H113401   6.033   3.757   3.110 -0.6174  0.0712  0.6615
 4479TIP3    H213402   6.014   3.760   2.960  0.6600  0.0481  0.4897
 4480TIP3   OH213403   5.620   5.512   2.749 -0.4495 -0.4261 -0.0572
 4480TIP3    H113404   5.532   5.485   2.777 -0.1241 -0.9065  0.5366
 4480TIP3    H213405   5.662   5.430   2.723  0.5456 -0.5465  1.7356
 4481TIP3   OH213406   3.320   0.780   1.986 -0.2578  0.6021  0.0781
 4481TIP3    H113407   3.322   0.697   2.034 -0.8096  1.0853  0.9556
 4481TIP3    H213408   3.376   0.765   1.909  2.3441  0.4145  1.8727
 4482TIP3   OH213409   0.558   2.260   1.024 -0.1064  0.3467  0.4502
 4482TIP3    H113410   0.554   2.213   1.107  0.8854  0.5450  0.6186
 4482TIP3    H213411   0.586   2.195   0.960 -0.1930  0.3592  0.3987
 4483TIP3   OH213412   4.360   5.353   3.935 -0.1301  0.1484  0.1540
 4483TIP3    H113413   4.313   5.345   3.853  0.1643  0.0741 -0.0086
 4483TIP3    H213414   4.292   5.352   4.002 -0.4584  1.3889 -0.1472
 4484TIP3   OH213415   6.991   0.172   4.895  0.3563 -0.0226  0.3068
 4484TIP3    H113416   6.952   0.229   4.828 -0.4841 -0.6349  0.2666
 4484TIP3    H213417   6.930   0.176   4.968  1.6759  1.2899  1.3906
 4485TIP3   OH213418   0.994   1.377   4.528 -0.3388 -0.5710  0.2308
 4485TIP3    H113419   1.044   1.297   4.511  0.8754  0.4466 -1.2804
 4485TIP3    H213420   1.032   1.413   4.609 -0.6440 -1.3025  0.7110
 4486TIP3   OH213421   4.199   3.332   0.341 -0.3253  0.0333 -0.4498
 4486TIP3    H113422   4.150   3.252   0.359 -0.3956  0.4216  1.3134
 4486TIP3    H213423   4.202   3.378   0.426  2.4305  0.3883 -0.6340
 4487TIP3   OH213424   0.638   4.240   1.871  0.3004  0.0398  0.4083
 4487TIP3    H113425   0.587   4.316   1.898  0.3273  1.1050 -2.2470
 4487TIP3    H213426   0.623   4.232   1.777  0.8302 -2.8763  0.4530
 4488TIP3   OH213427   3.563   0.692   3.615 -0.7707  0.7538  0.6258
 4488TIP3    H113428   3.647   0.681   3.659 -1.0201  1.5306  1.3341
 4488TIP3    H213429   3.572   0.774   3.567  0.0444 -0.8306 -2.1260
 4489TIP3   OH213430   5.199   0.413   0.322 -0.2194 -0.6471  0.1899
 4489TIP3    H113431   5.240   0.488   0.364 -1.9182 -0.6152  1.9396
 4489TIP3    H213432   5.150   0.451   0.249 -1.5833  0.0971  1.4369
 4490TIP3   OH213433   2.830   5.329   3.113 -0.3975 -0.2080  0.1187
 4490TIP3    H113434   2.839   5.403   3.173  2.5848 -1.0468  0.8896
 4490TIP3    H213435   2.803   5.256   3.170 -0.4857 -0.3378 -0.0905
 4491TIP3   OH213436   6.800   3.647   5.577  0.8614  0.6003 -0.2023
 4491TIP3    H113437   6.770   3.556   5.582  1.2735  0.4727  0.0671
 4491TIP3    H213438   6.731   3.693   5.529 -0.2496  0.5470  1.2802
 4492TIP3   OH213439   6.238   5.418   0.825 -0.0884 -0.1260 -0.7011
 4492TIP3    H113440   6.318   5.421   0.877 -0.3068  0.0054 -0.3642
 4492TIP3    H213441   6.194   5.501   0.844 -0.7659 -0.5987 -0.1268
 4493TIP3   OH213442   1.152   0.267   4.338 -0.0342 -0.3750 -0.1823
 4493TIP3    H113443   1.181   0.229   4.421  0.8367 -0.2465 -0.4202
 4493TIP3    H213444   1.059   0.283   4.351  0.5970  2.4263  1.8859
 4494TIP3   OH213445   3.905   3.217   5.859 -0.1996 -0.1102  0.2436
 4494TIP3    H113446   3.848   3.294   5.870  1.5938  1.5317 -1.2494
 4494TIP3    H213447   3.850   3.154   5.812 -1.4119  0.5908  0.6581
 4495TIP3   OH213448   3.483   3.196   3.328 -0.3985 -0.3805  0.0719
 4495TIP3    H113449   3.438   3.163   3.406 -0.1755 -0.2109  0.2740
 4495TIP3    H213450   3.413   3.210   3.264 -0.3887 -2.2842 -0.4168
 4496TIP3   OH213451   6.899   3.174   3.941  0.6920  0.5735 -0.1773
 4496TIP3    H113452   6.825   3.224   3.977  1.5884  0.8748  1.3457
 4496TIP3    H213453   6.967   3.239   3.927  1.2963  0.0383  0.2063
 4497TIP3   OH213454   2.180   5.431   2.229  0.0198 -0.3764  0.1353
 4497TIP3    H113455   2.255   5.375   2.248  0.3021 -0.3809 -0.9450
 4497TIP3    H213456   2.177   5.493   2.302  1.3599 -0.0825 -0.0412
 4498TIP3   OH213457   2.985   4.932   3.009 -0.0969 -0.1551  0.0268
 4498TIP3    H113458   3.066   4.935   2.959  1.3359  0.1310  2.2463
 4498TIP3    H213459   2.986   4.847   3.052 -1.1392 -0.2662 -0.1316
 4499TIP3   OH213460  -0.012   4.980   4.554 -0.1135 -0.3175 -1.2463
 4499TIP3    H113461  -0.058   5.063   4.566  1.9436  0.5583  1.5256
 4499TIP3    H213462   0.077   5.005   4.527  0.7696 -1.4970  0.3693
 4500TIP3   OH213463   2.396   0.352   2.129  0.6178  0.2404 -0.0727
 4500TIP3    H113464   2.481   0.310   2.120  0.6575 -0.0001  1.2453
 4500TIP3    H213465   2.414   0.433   2.176 -0.0236 -0.4978  1.5492
 4501TIP3   OH213466   3.178   5.835   5.403  0.7738  0.5408  0.4023
 4501TIP3    H113467   3.231   5.828   5.483  0.3158  2.2644  0.8865
 4501TIP3    H213468   3.089   5.847   5.434  0.6237  1.4645 -0.3544
 4502TIP3   OH213469   5.367   4.580   0.657  0.0029  0.1416 -0.0125
 4502TIP3    H113470   5.374   4.621   0.743 -1.2945 -0.1862  0.2641
 4502TIP3    H213471   5.403   4.645   0.597  2.2048 -0.1531  0.8877
 4503TIP3   OH213472   5.041   1.357   4.544 -0.4159 -0.0445 -0.1194
 4503TIP3    H113473   4.973   1.374   4.480 -0.3810 -2.7105 -0.9829
 4503TIP3    H213474   5.121   1.350   4.493  0.2122  1.1144  0.6572
 4504TIP3   OH213475   5.312   1.892   3.673  0.2208  0.4136  0.3226
 4504TIP3    H113476   5.295   1.823   3.737 -1.2423  1.5018  1.1765
 4504TIP3    H213477   5.244   1.881   3.606  0.3689  0.6313  0.1322
 4505TIP3   OH213478   4.391   1.391   2.604 -0.3060  0.0281 -0.0589
 4505TIP3    H113479   4.481   1.387   2.572 -0.2757  0.4828 -0.0426
 4505TIP3    H213480   4.338   1.368   2.527 -0.1707 -0.4722 -0.0074
 4506TIP3   OH213481   0.830   3.336   0.995  0.4864  0.2108 -0.4943
 4506TIP3    H113482   0.898   3.295   0.941  0.9235 -0.5266  0.5848
 4506TIP3    H213483   0.751   3.332   0.941  0.9793 -0.2457 -1.1930
 4507TIP3   OH213484   0.046   0.044   5.708  0.1425  0.1883 -0.0312
 4507TIP3    H113485   0.114  -0.021   5.723  0.7134  1.0917  1.5050
 4507TIP3    H213486   0.007   0.059   5.794 -0.8769  0.9119 -0.5939
 4508TIP3   OH213487   4.983   3.706   3.459  0.2563 -0.3992  0.1575
 4508TIP3    H113488   5.056   3.697   3.398 -0.6314 -0.3540 -0.9433
 4508TIP3    H213489   4.975   3.801   3.473 -0.8550 -0.2301 -1.3526
 4509TIP3   OH213490   2.890   4.282   2.245  0.2180  0.7107  0.8868
 4509TIP3    H113491   2.984   4.283   2.225 -0.4992 -1.5727 -4.0440
 4509TIP3    H213492   2.869   4.374   2.265  3.5620  1.0729  3.5442
 4510TIP3   OH213493   3.662   0.898   4.519 -0.2677 -0.0988 -0.2242
 4510TIP3    H113494   3.684   0.860   4.604  1.3445 -0.1830 -0.6490
 4510TIP3    H213495   3.648   0.822   4.462 -0.2101 -0.0472 -0.3075
 4511TIP3   OH213496   5.807   4.988   4.752 -0.3768 -0.1448 -0.3397
 4511TIP3    H113497   5.859   4.960   4.676 -0.7856 -1.3011 -0.2115
 4511TIP3    H213498   5.776   5.075   4.729  0.7553  0.1508 -0.8577
 4512TIP3   OH213499   6.129   0.811   5.695  0.0907  0.1388  0.1739
 4512TIP3    H113500   6.158   0.757   5.769  0.5921  0.8793  0.5263
 4512TIP3    H213501   6.162   0.765   5.618 -2.0112 -1.6432  0.2505
 4513TIP3   OH213502   1.439   0.194   4.888 -0.1537 -0.4955 -0.0062
 4513TIP3    H113503   1.347   0.192   4.862 -0.0656 -2.5867 -0.3749
 4513TIP3    H213504   1.486   0.224   4.810 -0.5232  0.9835  0.3133
 4514TIP3   OH213505   5.029   5.832   2.817 -0.3645 -0.3578 -0.5756
 4514TIP3    H113506   5.093   5.869   2.756 -0.1827  0.3478  0.0291
 4514TIP3    H213507   5.049   5.739   2.819  1.2050 -0.0436  0.2264
 4515TIP3   OH213508   2.871   6.346   2.804  0.0110  0.1044  0.0362
 4515TIP3    H113509   2.915   6.271   2.765  0.0176 -0.8318  1.7587
 4515TIP3    H213510   2.919   6.362   2.885 -1.8774  0.0034  1.2269
 4516TIP3   OH213511   3.829   4.956   2.251  0.3687  0.6390 -0.1088
 4516TIP3    H113512   3.866   4.868   2.252  1.5018  1.0754  2.0128
 4516TIP3    H213513   3.885   5.006   2.192 -1.4745 -0.4270 -2.9883
 4517TIP3   OH213514   3.962   3.103   0.401 -0.2864 -0.0754  0.5172
 4517TIP3    H113515   3.958   3.071   0.491 -0.3503 -1.1943  0.1288
 4517TIP3    H213516   4.045   3.069   0.367 -0.3325  0.2180  0.0985
 4518TIP3   OH213517   5.355   0.743   5.596 -0.2977  0.0089 -0.1748
 4518TIP3    H113518   5.449   0.747   5.618 -0.1577  1.7327 -0.9710
 4518TIP3    H213519   5.345   0.804   5.524 -2.2251  0.5585  0.5148
 4519TIP3   OH213520   4.589   1.626   3.823 -0.0699  0.5222  0.2569
 4519TIP3    H113521   4.494   1.619   3.818  0.0529 -1.8498 -0.1139
 4519TIP3    H213522   4.608   1.631   3.916 -0.5053 -1.0115  0.4513
 4520TIP3   OH213523   5.748   6.209   0.225  0.5654 -0.1680  0.2894
 4520TIP3    H113524   5.687   6.139   0.248  2.2055 -1.2196  1.7776
 4520TIP3    H213525   5.740   6.273   0.296 -0.0708  0.5795 -0.4450
 4521TIP3   OH213526   4.625   3.009   5.000 -0.1122  0.4415 -0.6891
 4521TIP3    H113527   4.636   3.086   4.944 -1.1967 -0.0025 -1.5653
 4521TIP3    H213528   4.565   2.952   4.950  1.3951 -1.3997 -0.4940
 4522TIP3   OH213529   4.633   1.443   4.584  0.0602 -0.2675  0.3985
 4522TIP3    H113530   4.617   1.395   4.502  0.8044 -0.3128  0.2734
 4522TIP3    H213531   4.578   1.398   4.649 -2.6179  1.3598 -0.5626
 4523TIP3   OH213532   3.538   1.910   4.773 -0.0380  0.2164  0.1670
 4523TIP3    H113533   3.609   1.848   4.793 -0.9356 -1.3760 -1.2943
 4523TIP3    H213534   3.481   1.862   4.712 -2.3031  1.4842  1.1661
 4524TIP3   OH213535   6.009   1.778   4.312  0.3043 -0.0152 -0.2848
 4524TIP3    H113536   5.932   1.813   4.269  1.1364  1.0893 -0.9208
 4524TIP3    H213537   5.987   1.779   4.405 -0.8000 -0.6464 -0.5271
 4525TIP3   OH213538   5.854   1.799   4.002  0.6363  0.3446  0.6518
 4525TIP3    H113539   5.863   1.893   3.983 -1.6195  0.3945 -0.5388
 4525TIP3    H213540   5.829   1.760   3.918 -2.0604 -0.6987  1.8022
 4526TIP3   OH213541   2.771   5.650   1.993 -0.1487 -0.6331 -0.2884
 4526TIP3    H113542   2.819   5.570   2.014 -1.7033 -1.5443 -0.0752
 4526TIP3    H213543   2.776   5.702   2.073  0.9789 -0.4480 -0.4681
 4527TIP3   OH213544   2.922   4.995   0.465  0.0256 -0.4832 -0.3153
 4527TIP3    H113545   2.980   4.962   0.534  2.0823  0.7043 -1.3667
 4527TIP3    H213546   2.956   4.955   0.385 -0.4790  0.3790 -0.9808
 4528TIP3   OH213547   4.581   1.373   5.037  0.0273 -0.2295 -0.3163
 4528TIP3    H113548   4.501   1.423   5.055 -0.8802 -1.0313 -1.8710
 4528TIP3    H213549   4.648   1.439   5.022 -0.7328  0.5019 -0.5981
 4529TIP3   OH213550   1.687   5.990   0.365  0.2084 -0.7279  0.1497
 4529TIP3    H113551   1.725   6.065   0.412 -0.9521  0.2915 -0.4806
 4529TIP3    H213552   1.639   5.941   0.432  0.7545 -0.7619  0.5169
 4530TIP3   OH213553   1.326   6.193   0.485 -0.4789 -0.1719 -0.3432
 4530TIP3    H113554   1.368   6.145   0.413  0.5722 -1.8842  1.2936
 4530TIP3    H213555   1.383   6.177   0.560 -1.2555  1.9834  0.7761
 4531TIP3   OH213556   0.486   5.945   2.748  0.5317 -0.0796 -0.4783
 4531TIP3    H113557   0.510   6.003   2.675 -1.2626  0.0681 -0.9935
 4531TIP3    H213558   0.448   5.868   2.706 -0.0925 -0.2012  0.2947
 4532TIP3   OH213559   4.284   5.813   4.777  0.2284 -0.0800 -0.1849
 4532TIP3    H113560   4.369   5.779   4.750  0.3470  0.3666 -0.3831
 4532TIP3    H213561   4.258   5.872   4.706 -0.3033 -0.3098 -0.1864
 4533TIP3   OH213562   4.351   4.788   1.101  0.0902  0.4171 -0.2063
 4533TIP3    H113563   4.344   4.853   1.172  1.1784  1.0064 -0.6132
 4533TIP3    H213564   4.265   4.747   1.098 -0.2269  0.9503  0.9232
 4534TIP3   OH213565   0.262   2.040   2.288  1.4524  0.2114  0.5532
 4534TIP3    H113566   0.354   2.017   2.300  1.9532 -0.5931 -3.2879
 4534TIP3    H213567   0.230   1.977   2.222 -1.0566  2.1258 -0.2303
 4535TIP3   OH213568   2.315   4.952   2.286  0.7390 -1.0647  0.3011
 4535TIP3    H113569   2.288   4.874   2.237  1.2143 -0.3978 -1.0726
 4535TIP3    H213570   2.360   5.007   2.222  0.6350  0.2437  1.2952
 4536TIP3   OH213571   5.735   4.937   2.170  0.3961 -0.2189  0.2694
 4536TIP3    H113572   5.799   5.002   2.141  0.4258 -0.0671  0.6618
 4536TIP3    H213573   5.739   4.941   2.266  1.1124 -1.4880  0.3214
 4537TIP3   OH213574   3.900   1.015   2.732  0.5186 -0.0545  0.4561
 4537TIP3    H113575   3.844   0.972   2.667  0.7300  1.9691 -1.1891
 4537TIP3    H213576   3.883   0.969   2.814 -0.8523 -1.7864 -0.7395
 4538TIP3   OH213577   2.996   3.251   5.166 -0.5186 -0.1918  0.1518
 4538TIP3    H113578   2.961   3.303   5.239 -1.8932 -1.4731  0.4693
 4538TIP3    H213579   2.923   3.194   5.141 -0.0567  0.1409 -2.1961
 4539TIP3   OH213580   6.740   5.812   3.220  0.3549  0.4377  0.1330
 4539TIP3    H113581   6.834   5.821   3.205  0.2337  0.1461 -0.9090
 4539TIP3    H213582   6.700   5.842   3.138 -0.3478 -1.7387 -0.3903
 4540TIP3   OH213583   4.528   0.956   4.946  0.1371  0.4058  0.2616
 4540TIP3    H113584   4.561   0.893   4.881 -0.0147  1.4659 -0.8911
 4540TIP3    H213585   4.603   0.976   5.002  0.3153 -0.4098  0.3237
 4541TIP3   OH213586   0.482   4.011   3.577 -0.5029  0.1870  0.0401
 4541TIP3    H113587   0.444   3.964   3.502 -0.3683 -0.6838  0.4999
 4541TIP3    H213588   0.493   3.943   3.644  0.7218  0.6736  0.3503
 4542TIP3   OH213589   2.347   5.723   3.989  0.1608 -0.2751 -0.2608
 4542TIP3    H113590   2.375   5.696   3.901  0.8625  0.0618 -0.1461
 4542TIP3    H213591   2.338   5.818   3.983  1.5385 -0.0827  0.3873
 4543TIP3   OH213592   4.325   4.067   3.363  0.0433  0.1354 -0.1760
 4543TIP3    H113593   4.247   4.032   3.320  0.2589 -0.7281  0.1055
 4543TIP3    H213594   4.314   4.162   3.360 -2.1190  0.0271  1.9001
 4544TIP3   OH213595   6.720   1.614   2.357  0.2637 -0.3781  0.2375
 4544TIP3    H113596   6.736   1.708   2.362  1.6856 -0.5510 -0.4702
 4544TIP3    H213597   6.626   1.606   2.343  0.2696  0.9983 -0.7735
 4545TIP3   OH213598   1.228   3.255   1.923  0.1693 -0.3498  0.5474
 4545TIP3    H113599   1.290   3.308   1.873 -1.4446  0.4581 -0.7081
 4545TIP3    H213600   1.215   3.303   2.005  0.1416  0.2057  0.2166
 4546TIP3   OH213601   1.611   1.821   0.171  0.0684  0.5598  0.6753
 4546TIP3    H113602   1.582   1.730   0.165 -0.6846  0.8207  0.2116
 4546TIP3    H213603   1.569   1.855   0.250  0.3186  0.5188  0.8271
 4547TIP3   OH213604   2.097   1.341   3.255 -0.0836 -0.3732 -0.0032
 4547TIP3    H113605   2.056   1.391   3.326  0.4273 -1.1981  0.8967
 4547TIP3    H213606   2.056   1.375   3.176 -1.3421 -0.0528  0.7479
 4548TIP3   OH213607   6.480   6.080   4.571 -0.1266 -0.3978  0.3815
 4548TIP3    H113608   6.415   6.150   4.574 -0.5509 -0.7735  0.0960
 4548TIP3    H213609   6.558   6.122   4.535 -0.2595  0.0174  0.5702
 4549TIP3   OH213610   2.384   1.989   2.179 -0.0533 -0.2479  0.6078
 4549TIP3    H113611   2.467   2.025   2.148 -1.5975  3.0114 -0.1413
 4549TIP3    H213612   2.364   2.041   2.257 -2.1373  0.1904 -0.1722
 4550TIP3   OH213613   4.172   5.044   0.535  0.2773  0.3957  0.4559
 4550TIP3    H113614   4.141   4.963   0.576  0.3102  0.8818  1.4677
 4550TIP3    H213615   4.242   5.075   0.592 -0.7784  1.9596  0.9691
 4551TIP3   OH213616   2.609   4.129   0.943 -0.0910  0.1909 -0.0563
 4551TIP3    H113617   2.668   4.133   1.018  0.2585 -1.5410 -0.2044
 4551TIP3    H213618   2.522   4.113   0.981 -0.2127  1.0236  0.0513
 4552TIP3   OH213619   2.233   4.540   1.139 -0.3171 -0.4810 -0.1937
 4552TIP3    H113620   2.196   4.550   1.227 -1.2520  0.7295 -0.6897
 4552TIP3    H213621   2.325   4.565   1.149 -1.0348  2.4821 -0.0342
 4553TIP3   OH213622   2.768   3.292   0.589 -0.0135  0.4014 -0.0747
 4553TIP3    H113623   2.863   3.279   0.593 -0.1533 -1.0358 -0.8089
 4553TIP3    H213624   2.747   3.339   0.670  0.7884 -2.9035  2.2349
 4554TIP3   OH213625   4.758   6.245   1.010  0.3662  0.2691  0.0518
 4554TIP3    H113626   4.781   6.335   0.989  0.0283  0.2815 -0.2766
 4554TIP3    H213627   4.701   6.218   0.938  2.3807 -1.0014 -1.1839
 4555TIP3   OH213628   3.472   6.260   1.457 -0.0440 -0.8614  0.3040
 4555TIP3    H113629   3.407   6.307   1.404 -1.1002  0.8284  2.9146
 4555TIP3    H213630   3.552   6.263   1.404 -1.4545 -0.8344 -1.9307
 4556TIP3   OH213631   2.550   2.668   0.182  0.3681  0.4943 -0.3978
 4556TIP3    H113632   2.489   2.628   0.243 -0.0454 -0.2276 -1.2685
 4556TIP3    H213633   2.606   2.723   0.237 -0.7717  0.8275  0.4699
 4557TIP3   OH213634   3.344   4.971   3.392  0.2928  0.1222 -0.5497
 4557TIP3    H113635   3.383   4.974   3.480  0.8032  3.3166 -0.7843
 4557TIP3    H213636   3.251   4.989   3.407 -0.0183 -1.3534 -0.5427
 4558TIP3   OH213637   0.450   6.634   1.222  0.2459  0.5908 -0.3837
 4558TIP3    H113638   0.397   6.658   1.298  0.2811 -1.8981  0.5224
 4558TIP3    H213639   0.386   6.607   1.156  0.1424 -3.1683  0.9711
 4559TIP3   OH213640   5.974   3.168   0.068 -0.4299 -0.0118 -0.3411
 4559TIP3    H113641   5.898   3.198   0.117  0.0732  1.0222 -0.1666
 4559TIP3    H213642   5.938   3.115  -0.003 -1.2447 -0.4053  0.3558
 4560TIP3   OH213643   3.657   3.976   3.016  0.4575 -0.0848 -0.6516
 4560TIP3    H113644   3.708   3.919   3.073 -0.7379 -1.0652 -0.5041
 4560TIP3    H213645   3.579   3.998   3.067  0.2255  0.5042 -1.2437
 4561TIP3   OH213646   1.336   3.286   0.454  0.1656 -0.5865 -0.1250
 4561TIP3    H113647   1.289   3.349   0.509 -1.6359  1.1532 -3.3480
 4561TIP3    H213648   1.379   3.340   0.387  0.0628 -2.6560 -1.9700
 4562TIP3   OH213649   6.815   0.054   2.418  0.1870  0.3502  0.1906
 4562TIP3    H113650   6.908   0.038   2.400  0.5396  0.2986  1.8673
 4562TIP3    H213651   6.793  -0.009   2.487 -1.2893 -0.0954 -0.6459
 4563TIP3   OH213652   3.210   4.350   4.419 -0.2315 -0.0409  0.0365
 4563TIP3    H113653   3.300   4.379   4.403 -0.7770  1.1360 -0.9980
 4563TIP3    H213654   3.175   4.413   4.481 -0.8024  0.3674 -0.6929
 4564TIP3   OH213655   1.632   0.735   0.332 -0.2217 -0.4421 -0.4618
 4564TIP3    H113656   1.691   0.669   0.297 -2.2704 -3.0117  0.5208
 4564TIP3    H213657   1.638   0.724   0.427 -1.0370  0.3812 -0.3006
 4565TIP3   OH213658   0.409   5.776   1.525  0.3174  0.2758 -0.1902
 4565TIP3    H113659   0.428   5.746   1.614 -0.4603  1.2690  0.3327
 4565TIP3    H213660   0.373   5.864   1.536  1.0533  0.7913 -1.5583
 4566TIP3   OH213661   6.427   0.084   0.491  0.1048 -0.2582  0.1669
 4566TIP3    H113662   6.338   0.068   0.521 -0.3702 -1.4664 -1.6992
 4566TIP3    H213663   6.418   0.098   0.396  1.6461  1.9909  0.2836
 4567TIP3   OH213664   0.732   4.181   5.771 -0.4949 -0.5906  0.5791
 4567TIP3    H113665   0.770   4.132   5.843 -1.8137 -0.5724  1.3144
 4567TIP3    H213666   0.751   4.128   5.693  3.4290  0.7394  0.4106
 4568TIP3   OH213667   6.275   1.370   2.382  0.1320 -0.9324  1.0275
 4568TIP3    H113668   6.335   1.298   2.404  0.7189 -0.7939 -0.0359
 4568TIP3    H213669   6.214   1.331   2.320  1.2157 -0.2436 -0.5470
 4569TIP3   OH213670   0.978   0.484   2.226 -0.3180  0.1042 -0.4660
 4569TIP3    H113671   0.898   0.479   2.173  0.1795  2.0677 -1.4997
 4569TIP3    H213672   0.989   0.578   2.243 -0.0290 -0.3773  2.5335
 4570TIP3   OH213673   4.972   5.645   5.717 -0.2680 -0.1451 -0.0857
 4570TIP3    H113674   5.067   5.653   5.708 -0.4040  0.5581 -1.0804
 4570TIP3    H213675   4.937   5.725   5.677 -1.3058 -0.8060 -0.5567
 4571TIP3   OH213676   2.582   4.262   3.923  0.9358 -0.2198 -0.7127
 4571TIP3    H113677   2.613   4.172   3.934 -1.0585 -0.8595  0.1167
 4571TIP3    H213678   2.605   4.284   3.833  3.3541 -0.7550 -0.2974
 4572TIP3   OH213679   3.975   6.201   0.772  0.2190  0.0749  0.1800
 4572TIP3    H113680   3.919   6.270   0.807  3.2424  2.0804  1.5599
 4572TIP3    H213681   4.012   6.158   0.849 -0.3689 -2.0945 -0.6771
 4573TIP3   OH213682   5.074   5.504   0.513  0.0104 -0.4944 -0.5671
 4573TIP3    H113683   4.992   5.524   0.559  0.4225 -0.7909  0.3150
 4573TIP3    H213684   5.142   5.513   0.580  0.4081 -3.1972 -0.5122
 4574TIP3   OH213685   3.489   2.933   4.658 -0.8314 -0.2037  0.0426
 4574TIP3    H113686   3.554   2.873   4.696  0.9542  1.2487 -0.5757
 4574TIP3    H213687   3.422   2.942   4.725  0.3112 -0.6568  1.2835
 4575TIP3   OH213688   5.800   1.059   3.056  0.0762 -0.0193 -0.5745
 4575TIP3    H113689   5.732   1.037   2.992  0.1853 -0.9686 -0.3694
 4575TIP3    H213690   5.793   1.154   3.066  0.0281  0.1443 -1.9670
 4576TIP3   OH213691   6.014   6.095   5.689  0.4579 -0.7862 -0.1355
 4576TIP3    H113692   5.955   6.111   5.616 -0.0890 -2.6657 -0.1440
 4576TIP3    H213693   6.101   6.096   5.650  0.4474  1.4343 -0.2161
 4577TIP3   OH213694   1.563   4.319   0.195 -0.1971  0.5199  0.5095
 4577TIP3    H113695   1.468   4.311   0.199 -0.3557  0.7171 -1.7797
 4577TIP3    H213696   1.594   4.256   0.260 -1.8628 -0.8061  0.1004
 4578TIP3   OH213697   5.683   1.052   0.447  0.6320  0.0839  0.2923
 4578TIP3    H113698   5.774   1.080   0.455 -0.0207  2.9729 -1.1263
 4578TIP3    H213699   5.640   1.089   0.524  0.0674  1.8026 -0.7887
 4579TIP3   OH213700   1.009   3.336   3.080  0.6963  1.1752 -0.0031
 4579TIP3    H113701   1.047   3.423   3.074  0.9327  1.2002  1.5519
 4579TIP3    H213702   1.041   3.291   3.002  0.8045  2.3720 -0.6782
 4580TIP3   OH213703   5.445   3.697   5.526 -0.0774  0.2684  0.0044
 4580TIP3    H113704   5.468   3.772   5.581  0.6806 -0.0044  0.0677
 4580TIP3    H213705   5.394   3.735   5.454  2.2797  1.2115 -1.2530
 4581TIP3   OH213706   5.275   1.583   0.957  0.0244 -0.4432 -0.3599
 4581TIP3    H113707   5.342   1.562   0.892 -1.1015 -0.0212 -1.7220
 4581TIP3    H213708   5.239   1.667   0.928  0.5853  0.5850  1.7611
 4582TIP3   OH213709   0.286   3.248   2.483  0.2185 -0.2648 -0.2737
 4582TIP3    H113710   0.377   3.219   2.486  0.4005 -0.2224 -2.8970
 4582TIP3    H213711   0.292   3.344   2.489  0.3121 -0.2848 -0.0359
 4583TIP3   OH213712   0.421   2.269   2.266 -0.0935 -0.1662 -0.1796
 4583TIP3    H113713   0.456   2.219   2.340  0.5221  0.5384  0.0176
 4583TIP3    H213714   0.358   2.210   2.225  2.8003 -2.3713 -1.8159
 4584TIP3   OH213715   4.442   4.901   0.092 -0.7861  0.1462  0.1153
 4584TIP3    H113716   4.536   4.920   0.086 -0.2898 -1.0378  2.6378
 4584TIP3    H213717   4.399   4.982   0.064  1.0160  1.1914  0.2204
 4585TIP3   OH213718   7.022   0.129   0.835 -0.1047 -0.2790  0.0667
 4585TIP3    H113719   6.977   0.047   0.814  1.6286 -1.0254 -1.0301
 4585TIP3    H213720   6.984   0.194   0.776  1.7062 -1.4113 -2.5617
 4586TIP3   OH213721   3.452   1.610   0.900 -0.3396 -0.1090  0.2620
 4586TIP3    H113722   3.483   1.678   0.841 -0.1842 -0.2600  0.1696
 4586TIP3    H213723   3.357   1.621   0.901 -0.1880  1.5037  1.9392
 4587TIP3   OH213724   2.506   1.503   0.665 -0.1650  0.3037  0.5110
 4587TIP3    H113725   2.574   1.497   0.733  2.0113  0.6644 -1.4902
 4587TIP3    H213726   2.515   1.591   0.630 -0.3067 -0.2848 -1.0929
 4588TIP3   OH213727   6.909   6.264   5.183  1.1287  0.2896  0.2239
 4588TIP3    H113728   6.836   6.323   5.199  0.3455 -0.3119 -0.9282
 4588TIP3    H213729   6.881   6.180   5.221  3.2190  1.1032  4.0381
 4589TIP3   OH213730   7.058   3.963   3.141  0.2150 -0.2299  0.6049
 4589TIP3    H113731   7.116   3.977   3.066  1.4917 -0.2152  1.5650
 4589TIP3    H213732   7.082   3.876   3.174 -0.7158 -0.4684  0.6806
 4590TIP3   OH213733   6.171   4.613   1.548  0.4753  0.0063  0.8653
 4590TIP3    H113734   6.222   4.574   1.477  2.0071  0.3974  1.7142
 4590TIP3    H213735   6.104   4.548   1.567 -0.0558 -0.0620 -1.0003
 4591TIP3   OH213736   4.566   6.441   2.741 -0.1373 -0.2605 -0.2432
 4591TIP3    H113737   4.624   6.381   2.694  0.0063 -0.0371 -0.3494
 4591TIP3    H213738   4.516   6.384   2.799 -0.0920 -0.5002 -0.4359
 4592TIP3   OH213739   5.744   0.202   2.845 -0.5280  0.5378 -0.1141
 4592TIP3    H113740   5.790   0.199   2.761  2.1745  2.3844  1.1395
 4592TIP3    H213741   5.723   0.295   2.858 -1.6509  0.1733  0.9106
 4593TIP3   OH213742   3.067   5.887   3.351 -0.4240 -0.3113 -0.2687
 4593TIP3    H113743   3.033   5.809   3.393 -2.0205  0.1789 -0.5987
 4593TIP3    H213744   3.089   5.946   3.424  2.0367 -1.4934  0.0461
 4594TIP3   OH213745   1.391   1.209   0.425  0.5280 -0.0815 -0.2185
 4594TIP3    H113746   1.304   1.179   0.397 -0.7412  2.8979  0.1013
 4594TIP3    H213747   1.449   1.181   0.354 -0.7054 -1.9495 -0.5644
 4595TIP3   OH213748   6.322   4.983   4.351 -0.3699  0.4734  0.1201
 4595TIP3    H113749   6.350   4.992   4.442  0.4233  1.2544 -0.1844
 4595TIP3    H213750   6.247   4.924   4.354 -1.9665  2.4534  1.5793
 4596TIP3   OH213751   4.247   6.231   4.747 -0.3750 -0.2481  0.7329
 4596TIP3    H113752   4.183   6.282   4.697 -0.7402  0.0567  1.4943
 4596TIP3    H213753   4.326   6.233   4.694 -0.4462  0.9499  0.6373
 4597TIP3   OH213754   3.530   3.118   1.315 -0.3057 -0.4571 -0.0638
 4597TIP3    H113755   3.517   3.024   1.325 -2.2977 -0.6333 -3.2329
 4597TIP3    H213756   3.624   3.128   1.299  0.5575 -1.4129  3.4697
 4598TIP3   OH213757   6.718   6.634   4.632  0.1317  0.7115 -0.4897
 4598TIP3    H113758   6.651   6.647   4.699 -0.6852 -0.1454 -1.1131
 4598TIP3    H213759   6.681   6.674   4.553  0.9983  1.5333 -0.4963
 4599TIP3   OH213760   2.267   0.332   3.318 -0.1468  0.1057  0.1205
 4599TIP3    H113761   2.201   0.281   3.271 -1.2168  0.0323  1.6172
 4599TIP3    H213762   2.343   0.274   3.323 -0.1559 -0.0434 -1.0944
 4600TIP3   OH213763   1.904   1.249   5.016  0.1566 -0.3533 -0.5785
 4600TIP3    H113764   1.848   1.212   5.084  0.1514 -0.2898 -0.5482
 4600TIP3    H213765   1.846   1.300   4.961  0.3127  0.4109 -0.0587
 4601TIP3   OH213766   3.194   4.602   2.023  0.3848  0.0282  0.0538
 4601TIP3    H113767   3.176   4.677   2.079  2.2713  1.4443 -1.1372
 4601TIP3    H213768   3.145   4.530   2.063 -1.1593  1.7673  1.4611
 4602TIP3   OH213769   4.594   5.141   4.910  0.1289 -0.1774 -0.0316
 4602TIP3    H113770   4.656   5.146   4.983 -0.7599  1.2786  0.6815
 4602TIP3    H213771   4.583   5.048   4.894  1.8471 -0.4771  0.3776
 4603TIP3   OH213772   5.074   5.589   4.238  0.1227  0.5002 -0.0927
 4603TIP3    H113773   5.137   5.648   4.199 -0.3335  1.0287 -0.0418
 4603TIP3    H213774   5.026   5.643   4.301 -0.8258  0.2741 -0.6075
 4604TIP3   OH213775   3.359   2.959   0.509  0.8139 -0.2200  0.4147
 4604TIP3    H113776   3.313   2.885   0.549  1.5692 -2.0149 -1.7994
 4604TIP3    H213777   3.309   2.977   0.429  2.0554 -0.0008 -0.3258
 4605TIP3   OH213778   0.035   3.539   3.586 -0.1557 -0.2273 -0.1640
 4605TIP3    H113779   0.030   3.526   3.680 -1.2406 -1.3851 -0.3640
 4605TIP3    H213780   0.125   3.515   3.563  0.5729  1.3973  0.7238
 4606TIP3   OH213781   6.151   2.282   0.056 -0.3391 -0.4953  0.3388
 4606TIP3    H113782   6.244   2.261   0.042 -0.1097  0.5850  0.1151
 4606TIP3    H213783   6.133   2.353  -0.005 -1.6222 -1.3970 -0.3830
 4607TIP3   OH213784   0.138   1.210   2.021 -0.0235 -0.2981  0.3166
 4607TIP3    H113785   0.153   1.118   2.042 -0.0845 -0.2388  0.6153
 4607TIP3    H213786   0.161   1.257   2.101  0.7936  0.0140 -0.0870
 4608TIP3   OH213787   5.133   5.336   5.477 -0.4757 -0.2246 -0.1230
 4608TIP3    H113788   5.087   5.315   5.558 -0.4312 -2.1916 -0.5786
 4608TIP3    H213789   5.080   5.405   5.437  0.0170  1.4973  1.9882
 4609TIP3   OH213790   1.122   2.980   5.457 -0.2020 -0.7458  0.4157
 4609TIP3    H113791   1.057   3.049   5.440  0.0248 -0.6398 -0.0587
 4609TIP3    H213792   1.205   3.021   5.434  0.1324 -0.6266  1.7398
 4610TIP3   OH213793   3.062   5.747   3.982 -0.5729 -0.4010  0.0921
 4610TIP3    H113794   3.020   5.722   4.063 -0.6994 -1.7019 -0.3557
 4610TIP3    H213795   3.073   5.842   3.989  2.6366 -0.7903  3.1788
 4611TIP3   OH213796   1.105   5.390   3.820  0.7449  0.6843 -0.4123
 4611TIP3    H113797   1.029   5.410   3.874  0.4941 -0.4238 -0.3218
 4611TIP3    H213798   1.090   5.438   3.738 -0.0974  0.4304 -0.4229
 4612TIP3   OH213799   5.687   2.259   5.039 -0.9568 -0.1023  0.0813
 4612TIP3    H113800   5.633   2.335   5.058  0.8574  1.6511 -1.4366
 4612TIP3    H213801   5.673   2.201   5.114 -0.9555  2.5420  2.2732
 4613TIP3   OH213802   0.858   5.229   3.183  0.3482  0.9146 -0.2577
 4613TIP3    H113803   0.780   5.250   3.234 -0.9171  0.9869 -2.1323
 4613TIP3    H213804   0.826   5.215   3.094  2.3064 -0.4086 -0.8253
 4614TIP3   OH213805   0.036   2.176   2.654  0.3873 -0.1028  0.6854
 4614TIP3    H113806  -0.026   2.201   2.722 -3.0417 -1.3806 -1.6858
 4614TIP3    H213807   0.041   2.080   2.659 -0.4685 -0.2946 -1.1648
 4615TIP3   OH213808   3.768   1.713   4.889  0.4007  0.3762  0.3682
 4615TIP3    H113809   3.804   1.765   4.817  0.1517  0.8160  0.5607
 4615TIP3    H213810   3.722   1.641   4.847 -0.3166  1.0060  0.0709
 4616TIP3   OH213811   5.960   3.700   0.495 -0.4156  0.0927 -0.2161
 4616TIP3    H113812   5.896   3.658   0.437 -0.3046 -0.7435  0.2483
 4616TIP3    H213813   5.993   3.629   0.549  0.0681  0.7248  0.3338
 4617TIP3   OH213814   5.337   4.555   1.802  0.0153 -0.1032 -0.1720
 4617TIP3    H113815   5.253   4.576   1.842 -0.0021  0.9626 -0.7146
 4617TIP3    H213816   5.318   4.545   1.709  0.6118  1.1513 -0.4628
 4618TIP3   OH213817   6.068   5.845   3.231  0.3134 -0.2608 -0.0615
 4618TIP3    H113818   6.061   5.754   3.202  4.1912 -0.4523 -0.9300
 4618TIP3    H213819   6.058   5.841   3.326  0.4538 -1.6014 -0.0870
 4619TIP3   OH213820   5.646   2.947   4.999 -0.2790 -0.2083 -0.3309
 4619TIP3    H113821   5.612   2.920   4.914 -0.2959  0.9314 -0.7054
 4619TIP3    H213822   5.569   2.947   5.057  0.0333 -2.6872  0.1618
 4620TIP3   OH213823   6.810   5.874   2.620 -0.5959 -0.0121  0.1864
 4620TIP3    H113824   6.841   5.860   2.530 -0.8981  0.1223  0.0565
 4620TIP3    H213825   6.715   5.861   2.614 -0.6813  0.5062  0.3798
 4621TIP3   OH213826   3.025   0.621   5.020  0.2939  0.4239  0.1341
 4621TIP3    H113827   3.095   0.656   5.077  0.3588  0.2032  0.1895
 4621TIP3    H213828   3.052   0.647   4.932 -0.3237  1.6595  0.2868
 4622TIP3   OH213829   5.647   1.647   0.442  0.2070 -0.0056  0.0221
 4622TIP3    H113830   5.728   1.692   0.466 -0.9092  1.6790  0.7681
 4622TIP3    H213831   5.614   1.695   0.366 -1.5356  1.2022  1.4643
 4623TIP3   OH213832   2.600   4.391   1.485  0.1892 -0.2163  0.4981
 4623TIP3    H113833   2.554   4.328   1.541 -2.5383  0.3338 -0.9865
 4623TIP3    H213834   2.584   4.476   1.526  0.1651 -0.0420  0.1294
 4624TIP3   OH213835   2.914   2.579   4.200 -0.5630  0.0589 -0.1448
 4624TIP3    H113836   2.876   2.501   4.240 -0.5077  1.0479  1.9751
 4624TIP3    H213837   2.860   2.651   4.233  1.3992  1.2266  0.6534
 4625TIP3   OH213838   5.897   1.021   4.668  0.1196  0.8774  0.0363
 4625TIP3    H113839   5.903   0.980   4.754  3.0517  1.2636  0.0994
 4625TIP3    H213840   5.873   1.112   4.686  1.4429  1.1437  0.5347
 4626TIP3   OH213841   4.535   2.289   2.305 -0.1507  0.2584  0.1375
 4626TIP3    H113842   4.468   2.224   2.324  0.9467 -1.1107 -0.4881
 4626TIP3    H213843   4.553   2.279   2.212 -1.4089  2.9301 -0.5050
 4627TIP3   OH213844   0.600   3.458   3.959 -0.4812 -0.5312  0.4652
 4627TIP3    H113845   0.610   3.531   3.898 -0.5392 -1.6927 -0.9756
 4627TIP3    H213846   0.509   3.429   3.948 -0.1991 -1.3993  0.3269
 4628TIP3   OH213847   2.073   1.588   0.575  0.0119  0.1016  0.2197
 4628TIP3    H113848   2.038   1.595   0.664  0.6496  1.1665  0.4145
 4628TIP3    H213849   2.007   1.631   0.520 -0.7192 -1.1834  0.0645
 4629TIP3   OH213850   1.128   1.144   4.149  0.1752 -0.0332  0.3651
 4629TIP3    H113851   1.121   1.055   4.183  1.4061  0.0003  0.7445
 4629TIP3    H213852   1.199   1.184   4.198  0.7845  0.6177 -0.9754
 4630TIP3   OH213853   5.973   4.797   1.034  0.5312  0.1997  0.1508
 4630TIP3    H113854   6.055   4.756   1.060 -0.6954 -1.6328  1.3794
 4630TIP3    H213855   5.979   4.804   0.939  1.6064 -1.1038  0.0848
 4631TIP3   OH213856   0.662   2.557   1.810 -0.2202  1.0351 -0.0286
 4631TIP3    H113857   0.661   2.544   1.904  1.2788  0.1242 -0.0960
 4631TIP3    H213858   0.734   2.620   1.795  2.1816 -1.6706 -0.7707
 4632TIP3   OH213859   3.763   5.089   5.374  0.3720 -0.6356 -0.2421
 4632TIP3    H113860   3.675   5.073   5.340  0.1271 -0.6089  0.3575
 4632TIP3    H213861   3.748   5.132   5.459  0.9559 -1.2509  0.1803
 4633TIP3   OH213862   5.043   0.240   1.174 -0.1746  0.6778 -0.1204
 4633TIP3    H113863   5.018   0.153   1.145 -1.7896  0.7129  0.9962
 4633TIP3    H213864   5.082   0.281   1.098  0.7052 -1.0410 -0.6428
 4634TIP3   OH213865   7.110   4.629   5.774  0.0334  0.1985 -0.2320
 4634TIP3    H113866   7.081   4.596   5.859 -0.9069  1.6993  0.0582
 4634TIP3    H213867   7.055   4.583   5.711 -0.6437  0.5339  0.1045
 4635TIP3   OH213868   4.675   3.416   0.438 -0.8214 -0.1755 -0.0698
 4635TIP3    H113869   4.607   3.383   0.497 -0.8752  0.1146  0.0326
 4635TIP3    H213870   4.736   3.343   0.428 -0.6525 -0.1306  0.5810
 4636TIP3   OH213871   4.581   4.659   5.469  0.2109 -0.0451  0.2306
 4636TIP3    H113872   4.534   4.710   5.535 -0.7001  1.5085 -1.5171
 4636TIP3    H213873   4.524   4.585   5.450  0.3401 -0.3347  0.9681
 4637TIP3   OH213874   3.626   4.354   5.767  0.0549 -0.2651 -0.4081
 4637TIP3    H113875   3.548   4.338   5.820  0.7857 -2.4602  0.1210
 4637TIP3    H213876   3.699   4.328   5.823  1.0493  0.0113 -1.5311
 4638TIP3   OH213877   3.154   3.499   2.462 -0.5619 -0.1330  0.3462
 4638TIP3    H113878   3.133   3.408   2.480 -0.0239  0.2150  3.0378
 4638TIP3    H213879   3.074   3.547   2.484 -0.2586  0.2240  0.6674
 4639TIP3   OH213880   2.297   2.976   4.299 -0.5804  0.9149 -0.1885
 4639TIP3    H113881   2.353   2.950   4.225  0.4735  0.6416  0.6897
 4639TIP3    H213882   2.354   2.972   4.375 -2.5231 -2.7469  1.3482
 4640TIP3   OH213883   4.358   1.484   1.505  0.0494 -0.7471 -0.0266
 4640TIP3    H113884   4.363   1.433   1.424 -0.2357  0.2108 -0.6606
 4640TIP3    H213885   4.363   1.575   1.477 -0.1466 -0.3961  1.0284
 4641TIP3   OH213886   2.803   2.388   4.558 -0.2381  0.0188  0.3070
 4641TIP3    H113887   2.884   2.344   4.584 -1.1230 -1.9392 -0.0333
 4641TIP3    H213888   2.807   2.474   4.600  1.6430 -0.3331  0.9242
 4642TIP3   OH213889   0.206   2.253   1.923 -0.1981 -0.2102 -0.7300
 4642TIP3    H113890   0.199   2.179   1.863  0.3181 -1.4236  0.6600
 4642TIP3    H213891   0.298   2.257   1.947 -0.4716 -0.0577  0.3530
 4643TIP3   OH213892   2.501   4.591   2.157 -0.2911  0.1230  0.1397
 4643TIP3    H113893   2.553   4.556   2.084 -1.4196  0.3382 -0.7921
 4643TIP3    H213894   2.566   4.628   2.216  0.6482  0.0693 -0.8205
 4644TIP3   OH213895   2.096   1.585   1.518  0.2326  0.6464 -0.6480
 4644TIP3    H113896   2.141   1.668   1.507 -0.7540  1.1082 -1.2829
 4644TIP3    H213897   2.157   1.520   1.483  0.4142  1.2566 -1.4811
 4645TIP3   OH213898   3.367   1.471   1.349  0.2962 -0.3958 -0.0833
 4645TIP3    H113899   3.451   1.514   1.333  0.7609 -0.7134  1.3747
 4645TIP3    H213900   3.367   1.396   1.289  1.6152 -1.0968  0.7601
 4646TIP3   OH213901   6.695   6.507   0.194 -0.2619 -0.0395 -0.3003
 4646TIP3    H113902   6.601   6.518   0.207 -0.4424 -1.3661 -0.3407
 4646TIP3    H213903   6.722   6.450   0.266 -0.1337 -2.4170 -2.1219
 4647TIP3   OH213904   1.121   5.990   0.661 -0.3840 -0.0451 -0.4149
 4647TIP3    H113905   1.069   5.910   0.661 -0.6573  0.1323 -0.2417
 4647TIP3    H213906   1.116   6.023   0.572 -1.5179  0.5889 -0.1244
 4648TIP3   OH213907   0.191   2.283   0.461  0.6258 -1.1055  0.3323
 4648TIP3    H113908   0.243   2.240   0.529  1.1915 -1.1795 -0.1396
 4648TIP3    H213909   0.232   2.369   0.450 -0.6517 -0.2947  1.4530
 4649TIP3   OH213910   3.200   1.104   3.899 -0.1685  0.0373 -0.4058
 4649TIP3    H113911   3.127   1.113   3.839  1.3134 -0.6055 -2.4168
 4649TIP3    H213912   3.275   1.140   3.852  1.2142 -1.1499  0.7536
 4650TIP3   OH213913   0.864   6.771   3.434 -0.0736 -0.4496  0.1398
 4650TIP3    H113914   0.817   6.837   3.485 -0.5492 -1.6435  1.3167
 4650TIP3    H213915   0.804   6.749   3.363  0.0851  0.3525 -0.2593
 4651TIP3   OH213916   1.619   0.671   4.570 -0.7339  0.1091  0.1977
 4651TIP3    H113917   1.694   0.731   4.567 -0.8848  0.3463  0.8411
 4651TIP3    H213918   1.639   0.605   4.504  0.0515  0.1600  0.3661
 4652TIP3   OH213919   6.502   4.532   2.520  0.3189 -0.0926  0.2981
 4652TIP3    H113920   6.528   4.624   2.527 -2.0126  0.5349  2.0325
 4652TIP3    H213921   6.565   4.485   2.575  2.0529  0.3038 -1.2923
 4653TIP3   OH213922   0.240   6.455   3.754  0.1798  0.0291  0.5566
 4653TIP3    H113923   0.164   6.460   3.696  0.4107  2.4104  0.3775
 4653TIP3    H213924   0.249   6.361   3.773 -0.5628 -0.7327 -2.3410
 4654TIP3   OH213925   4.653   5.271   2.736  0.0889  0.1788 -0.0649
 4654TIP3    H113926   4.660   5.205   2.666  1.5162 -1.7364  1.7383
 4654TIP3    H213927   4.734   5.322   2.729  0.0712  0.2121 -0.0234
 4655TIP3   OH213928   5.779   2.164   2.839  0.0557  0.4282 -0.1135
 4655TIP3    H113929   5.853   2.183   2.781 -0.6123  1.1698 -0.7485
 4655TIP3    H213930   5.713   2.125   2.782  0.0698 -0.5450  0.5158
 4656TIP3   OH213931   3.318   3.013   3.875 -0.1112 -0.3904 -0.0544
 4656TIP3    H113932   3.365   2.972   3.948  0.1211 -1.2882 -0.6900
 4656TIP3    H213933   3.243   3.056   3.916 -1.0224 -2.4294  0.5538
 4657TIP3   OH213934   1.736   6.031   2.838  0.3114 -0.3672 -0.0501
 4657TIP3    H113935   1.674   5.959   2.846 -0.3934  0.3056  0.7833
 4657TIP3    H213936   1.785   6.012   2.758  0.5605 -2.0772  0.4613
 4658TIP3   OH213937   1.011   1.998   4.731 -0.2961  0.0811  0.1076
 4658TIP3    H113938   0.948   2.007   4.659 -0.5439 -0.9252  0.1716
 4658TIP3    H213939   0.956   1.987   4.809 -0.0349  0.2918  0.3190
 4659TIP3   OH213940   2.311   1.408   2.836 -0.7104  0.3662  0.2875
 4659TIP3    H113941   2.248   1.383   2.904 -0.2740  1.0455  0.9751
 4659TIP3    H213942   2.318   1.503   2.845  0.1848  0.3352  0.0374
 4660TIP3   OH213943   6.769   6.468   4.369  0.4247 -0.3819  0.1606
 4660TIP3    H113944   6.770   6.537   4.304 -0.6964 -0.2192  0.2978
 4660TIP3    H213945   6.790   6.512   4.452  0.4341 -0.3339  0.1327
 4661TIP3   OH213946   0.816   2.691   5.750  0.6927 -0.0103  0.4735
 4661TIP3    H113947   0.910   2.692   5.732  0.6116  2.3185 -0.1950
 4661TIP3    H213948   0.775   2.708   5.666 -0.2000  0.9949  1.0777
 4662TIP3   OH213949   5.066   5.010   3.296 -0.4145 -0.0632  0.1537
 4662TIP3    H113950   5.139   5.023   3.356  0.3620  0.0271 -0.7687
 4662TIP3    H213951   5.104   4.960   3.224 -1.3545 -0.3084 -0.1835
 4663TIP3   OH213952   4.287   4.321   3.091  0.2611  0.0495  0.2050
 4663TIP3    H113953   4.373   4.364   3.083  1.1421 -1.4724  1.0773
 4663TIP3    H213954   4.226   4.383   3.050  1.9863  0.4128 -2.0434
 4664TIP3   OH213955   2.574   2.670   4.548  0.5351 -0.0856 -0.0652
 4664TIP3    H113956   2.505   2.604   4.537 -0.0169  0.3061  0.8956
 4664TIP3    H213957   2.624   2.640   4.624  0.3496  0.5279  0.3087
 4665TIP3   OH213958   2.333   4.699   2.498  0.3433  0.3639 -0.5971
 4665TIP3    H113959   2.258   4.741   2.539 -0.0857  0.7893 -1.7652
 4665TIP3    H213960   2.403   4.763   2.503  0.1064  0.6642 -1.0950
 4666TIP3   OH213961   0.674   4.242   4.013 -0.0547 -0.2224 -0.2357
 4666TIP3    H113962   0.618   4.319   4.022  2.1198  1.5235 -0.9397
 4666TIP3    H213963   0.763   4.274   4.025  0.9454 -2.6692 -0.3889
 4667TIP3   OH213964   6.232   5.554   1.144  0.5493 -0.9701  0.2654
 4667TIP3    H113965   6.226   5.485   1.210  1.2990 -2.8350 -1.5071
 4667TIP3    H213966   6.319   5.542   1.105  1.1885  1.7422  0.6344
 4668TIP3   OH213967   2.635   1.415   2.939  0.2784 -0.0197  0.4329
 4668TIP3    H113968   2.630   1.509   2.954  1.9877 -0.1422  2.2414
 4668TIP3    H213969   2.631   1.405   2.844 -1.1238  1.7446  0.2563
 4669TIP3   OH213970   3.795   2.583   0.170 -0.1187  0.4063  0.3268
 4669TIP3    H113971   3.799   2.678   0.164 -0.7051  0.4336  0.2720
 4669TIP3    H213972   3.846   2.561   0.248  0.7204  0.6941 -0.1355
 4670TIP3   OH213973   2.286   6.062   3.032  0.0334  0.7688  0.0124
 4670TIP3    H113974   2.325   6.144   3.001 -2.0339  1.9890  0.4041
 4670TIP3    H213975   2.226   6.089   3.101 -0.5812 -1.1214  0.2818
 4671TIP3   OH213976   5.567   3.051   2.564  0.4478 -0.3319  0.0395
 4671TIP3    H113977   5.661   3.063   2.578  0.3686  0.1584  0.1747
 4671TIP3    H213978   5.558   3.042   2.469  0.3387  2.5432 -0.3056
 4672TIP3   OH213979   4.956   2.607   2.653 -0.0484  0.2012 -0.7408
 4672TIP3    H113980   4.957   2.698   2.682 -0.5471 -0.3902  1.2996
 4672TIP3    H213981   5.043   2.573   2.674  0.0652  0.1431 -1.2907
 4673TIP3   OH213982   2.108   3.391   1.977  0.1107 -0.4314  0.0399
 4673TIP3    H113983   2.062   3.475   1.965  1.8562  0.5641  0.0108
 4673TIP3    H213984   2.134   3.365   1.888 -1.1055 -1.4461 -0.0482
 4674TIP3   OH213985   0.708   0.513   2.445 -0.0207  0.2463 -0.0798
 4674TIP3    H113986   0.620   0.545   2.467  0.1223  0.7121 -0.1927
 4674TIP3    H213987   0.760   0.592   2.433  0.3499 -0.0303 -0.2822
 4675TIP3   OH213988   6.602   2.572   4.520  0.2767 -0.1162 -0.1093
 4675TIP3    H113989   6.623   2.481   4.499 -4.0082 -1.1109 -1.2012
 4675TIP3    H213990   6.580   2.570   4.614  2.2505  0.3591  0.4027
 4676TIP3   OH213991   6.723   6.599   4.129  0.8164 -0.1570 -0.0380
 4676TIP3    H113992   6.793   6.587   4.064  0.4040 -0.1565 -0.4882
 4676TIP3    H213993   6.683   6.683   4.106  0.4816 -0.2942  0.0327
 4677TIP3   OH213994   4.199   2.871   4.231 -0.3308 -0.2707  0.3250
 4677TIP3    H113995   4.111   2.854   4.196 -0.3267  0.2578  0.0556
 4677TIP3    H213996   4.192   2.957   4.273  0.9994  1.7041 -3.0558
 4678TIP3   OH213997   6.344   2.302   3.124 -0.0505 -0.0522  0.1361
 4678TIP3    H113998   6.415   2.278   3.184 -1.2541 -1.9888  0.8743
 4678TIP3    H213999   6.299   2.374   3.169 -0.9481 -1.4850  1.6793
 4679TIP3   OH214000   2.334   0.510   5.808 -0.2049 -0.2240  0.1952
 4679TIP3    H114001   2.241   0.530   5.812 -0.4987 -0.8408 -2.0537
 4679TIP3    H214002   2.363   0.548   5.725  1.6496  0.2690  1.0171
 4680TIP3   OH214003   6.414   1.895   2.862  0.8478 -0.3968  0.3932
 4680TIP3    H114004   6.443   1.933   2.779  0.3155  1.2540  0.9228
 4680TIP3    H214005   6.381   1.808   2.839  2.8747 -0.9168 -0.7499
 4681TIP3   OH214006   3.733   6.795   5.487  0.9205  0.1391  0.8117
 4681TIP3    H114007   3.746   6.717   5.542  0.6368 -0.2647  0.3156
 4681TIP3    H214008   3.642   6.819   5.500  0.7409 -0.1973  0.2203
 4682TIP3   OH214009   0.585   6.200   3.585 -0.2495  0.8164 -0.3821
 4682TIP3    H114010   0.669   6.194   3.629 -1.3277 -1.3433  1.6004
 4682TIP3    H214011   0.587   6.130   3.520 -0.2436  1.2597 -0.8661
 4683TIP3   OH214012   5.110   5.423   3.909 -0.0326 -0.1385 -0.1799
 4683TIP3    H114013   5.035   5.426   3.968 -0.4563 -1.4899 -0.6237
 4683TIP3    H214014   5.092   5.350   3.850  0.6888  0.7567 -1.5698
 4684TIP3   OH214015   4.224   5.827   1.501  0.4606  0.0336  0.6601
 4684TIP3    H114016   4.237   5.807   1.593  1.3166 -1.1821  0.3030
 4684TIP3    H214017   4.294   5.889   1.479 -1.3544  2.5066  1.4290
 4685TIP3   OH214018   3.242   2.919   4.789  0.4305  0.5258  0.1857
 4685TIP3    H114019   3.269   2.833   4.820 -1.6784 -0.1897  0.1556
 4685TIP3    H214020   3.239   2.973   4.868  1.9097  0.6655  0.1831
 4686TIP3   OH214021   6.692   1.913   2.930 -0.0425 -0.2280  0.3416
 4686TIP3    H114022   6.735   1.830   2.947  0.9097  0.1774 -0.0008
 4686TIP3    H214023   6.610   1.890   2.886  1.2587 -0.9323 -1.9102
 4687TIP3   OH214024   2.951   2.826   5.400 -0.0712  0.0109  0.4722
 4687TIP3    H114025   2.877   2.843   5.459 -0.4688 -1.4069  0.4328
 4687TIP3    H214026   3.029   2.843   5.452 -0.4272  0.9578  0.7009
 4688TIP3   OH214027   6.316   1.226   3.876 -0.2302  0.0281  0.5604
 4688TIP3    H114028   6.370   1.189   3.945 -0.7599 -0.4247  0.7388
 4688TIP3    H214029   6.248   1.275   3.924  0.9989  2.0763  0.3426
 4689TIP3   OH214030   1.089   0.913   4.259 -0.2497  0.6042  0.0006
 4689TIP3    H114031   1.018   0.915   4.323 -1.5135  0.5530 -1.3316
 4689TIP3    H214032   1.069   0.838   4.204  1.6269 -0.2382  0.4057
 4690TIP3   OH214033   0.544   5.581   2.191 -0.1627  0.4178  0.0793
 4690TIP3    H114034   0.590   5.652   2.147  0.9538  0.2795  0.9960
 4690TIP3    H214035   0.517   5.522   2.120 -1.0629  1.6983 -0.6871
 4691TIP3   OH214036   3.298   3.244   1.396 -0.1344  0.4609 -0.4517
 4691TIP3    H114037   3.239   3.213   1.327 -1.5730 -3.6639  2.2616
 4691TIP3    H214038   3.383   3.205   1.373 -0.0042  1.0931 -1.0760
 4692TIP3   OH214039   3.758   0.313   2.380 -0.8460 -0.4440  0.4969
 4692TIP3    H114040   3.694   0.370   2.424 -0.7311 -0.3577  0.5540
 4692TIP3    H214041   3.714   0.287   2.299 -0.3567  0.8972 -0.2272
 4693TIP3   OH214042   0.561   5.342   3.106 -0.3356 -0.1969  0.2627
 4693TIP3    H114043   0.633   5.369   3.049 -1.0001  0.9770 -0.0658
 4693TIP3    H214044   0.566   5.403   3.179 -0.1892 -0.9717  0.9119
 4694TIP3   OH214045   5.169   5.475   3.370 -0.2413  0.1953 -0.3280
 4694TIP3    H114046   5.235   5.529   3.327  0.6363 -0.6819 -0.1189
 4694TIP3    H214047   5.147   5.523   3.450 -0.2188  0.7318 -0.6409
 4695TIP3   OH214048   5.438   5.861   5.325 -0.6118  0.0501 -0.5318
 4695TIP3    H114049   5.352   5.821   5.335 -0.2871 -0.2055  1.5699
 4695TIP3    H214050   5.471   5.871   5.414  1.3724  0.5148 -1.2637
 4696TIP3   OH214051   0.632   3.886   4.829 -0.5808 -0.5489 -0.2584
 4696TIP3    H114052   0.635   3.904   4.735  1.1147  0.2406 -0.0942
 4696TIP3    H214053   0.699   3.820   4.843  0.0592  0.2343  0.5456
 4697TIP3   OH214054   2.477   0.827   4.074  0.0789  0.3406 -0.1828
 4697TIP3    H114055   2.569   0.853   4.081 -0.2965  1.3397  1.9286
 4697TIP3    H214056   2.459   0.782   4.157 -1.2558 -0.0985 -0.6881
 4698TIP3   OH214057   5.412   0.011   1.584 -0.1195  0.0623 -0.0686
 4698TIP3    H114058   5.501  -0.010   1.614 -0.2732 -0.1998  0.2137
 4698TIP3    H214059   5.365   0.036   1.664  0.3910  2.7937 -0.5350
 4699TIP3   OH214060   7.195   6.569   0.926 -0.6901 -0.5278 -0.2679
 4699TIP3    H114061   7.117   6.623   0.914 -0.7918 -0.8939 -1.4219
 4699TIP3    H214062   7.162   6.480   0.934 -0.4617 -0.5401  0.6408
 4700TIP3   OH214063   5.629   4.447   0.759  0.0029 -0.2055 -0.2160
 4700TIP3    H114064   5.534   4.439   0.750  0.0621 -0.3312 -0.8230
 4700TIP3    H214065   5.645   4.449   0.853 -0.5706 -0.5530 -0.1098
 4701TIP3   OH214066   2.821   2.356   3.821  0.2725 -0.3010  0.1501
 4701TIP3    H114067   2.897   2.373   3.766  0.0039  0.4329 -0.0096
 4701TIP3    H214068   2.793   2.442   3.851 -0.5564 -0.5483  0.1214
 4702TIP3   OH214069   5.669   4.094   2.272 -0.2329 -1.2186  0.0553
 4702TIP3    H114070   5.717   4.168   2.234 -0.9179 -2.0245 -2.5891
 4702TIP3    H214071   5.704   4.086   2.361  0.2617  1.8868  0.2443
 4703TIP3   OH214072   4.764   4.234   2.903 -0.2154  0.2078 -0.4773
 4703TIP3    H114073   4.672   4.212   2.893 -0.0011 -0.4047 -1.2158
 4703TIP3    H214074   4.807   4.150   2.921  0.1836  0.5009 -0.0584
 4704TIP3   OH214075   5.645   6.039   2.241  0.3600  0.3291  0.2260
 4704TIP3    H114076   5.639   5.987   2.321  0.2448 -0.1622 -0.1034
 4704TIP3    H214077   5.565   6.020   2.193  0.2522  0.9152  0.1641
 4705TIP3   OH214078   6.542   5.081   3.761 -0.2549 -0.1215  0.1444
 4705TIP3    H114079   6.637   5.075   3.771 -0.1103  0.4066 -0.7682
 4705TIP3    H214080   6.525   5.175   3.754 -0.8464 -0.2143  0.2948
 4706TIP3   OH214081   2.638   0.788   5.154  0.0902  0.1405 -0.3468
 4706TIP3    H114082   2.636   0.716   5.091 -0.8514  0.3929 -0.6350
 4706TIP3    H214083   2.587   0.857   5.112 -4.1465 -1.0312  2.1921
 4707TIP3   OH214084   1.334   2.080   4.061  0.2653  0.4454  0.2627
 4707TIP3    H114085   1.274   2.037   4.122  0.9744 -0.6405  0.2245
 4707TIP3    H214086   1.278   2.108   3.989 -0.2823 -0.0156  0.4976
 4708TIP3   OH214087   6.353   2.317   1.459  0.2990  0.4620 -0.8998
 4708TIP3    H114088   6.396   2.255   1.400  2.3186 -1.9879  2.7197
 4708TIP3    H214089   6.277   2.270   1.492  1.6924 -0.1951  1.6710
 4709TIP3   OH214090   5.553   5.332   5.650  0.0589  0.5794 -0.0444
 4709TIP3    H114091   5.601   5.249   5.646  2.0250  1.6681 -0.5872
 4709TIP3    H214092   5.501   5.326   5.730  1.3812 -0.5571  0.7811
 4710TIP3   OH214093   3.582   6.525   4.842  0.7003 -0.1749 -1.0137
 4710TIP3    H114094   3.612   6.475   4.918  0.2657  1.9506  0.6562
 4710TIP3    H214095   3.488   6.508   4.838  0.3992  1.0691  0.0712
 4711TIP3   OH214096   0.205   1.454   0.497  0.0779 -0.4976 -0.3796
 4711TIP3    H114097   0.169   1.525   0.444  0.5504  0.5255  0.6130
 4711TIP3    H214098   0.286   1.429   0.452 -0.9893 -1.6760 -1.7158
 4712TIP3   OH214099   3.756   5.051   1.001 -0.5095  0.0486  0.0700
 4712TIP3    H114100   3.737   5.016   1.088  0.9844  0.9988  0.8148
 4712TIP3    H214101   3.702   4.998   0.942 -0.8204 -1.2634  1.4611
 4713TIP3   OH214102   4.766   4.638   4.463  0.2838  0.4735 -0.6225
 4713TIP3    H114103   4.854   4.639   4.426  0.1490  1.0558 -0.9433
 4713TIP3    H214104   4.778   4.603   4.551  0.9026  0.9226 -0.5168
 4714TIP3   OH214105   1.162   4.380   3.847 -0.1839  0.0436  0.3415
 4714TIP3    H114106   1.190   4.461   3.804 -1.1147  0.2952  0.1907
 4714TIP3    H214107   1.242   4.327   3.854  0.2745  0.6438 -0.2808
 4715TIP3   OH214108   4.529   0.384   5.415 -0.3777 -0.2899  0.3676
 4715TIP3    H114109   4.472   0.318   5.377  0.7506 -1.1992  0.1961
 4715TIP3    H214110   4.615   0.343   5.419  0.3310  1.1170  0.4178
 4716TIP3   OH214111   2.637   4.007   3.974  0.0294 -0.3509  0.7038
 4716TIP3    H114112   2.723   3.979   4.003  1.0536  2.4368  0.6815
 4716TIP3    H214113   2.581   3.998   4.052  0.8488 -0.3243  1.3027
 4717TIP3   OH214114   0.689   1.540   2.383 -0.4696  0.1644 -0.1752
 4717TIP3    H114115   0.756   1.542   2.452 -0.4615 -0.5151 -0.1507
 4717TIP3    H214116   0.737   1.525   2.302 -0.6324 -0.9521 -0.0789
 4718TIP3   OH214117   2.943   5.108   1.968 -0.2012 -0.0155  0.0717
 4718TIP3    H114118   2.935   5.016   1.941 -0.0260 -0.1853  0.5933
 4718TIP3    H214119   3.032   5.115   2.003  0.1047  0.5753 -0.7957
 4719TIP3   OH214120   5.212   5.225   2.011  0.0484 -0.1139  0.9220
 4719TIP3    H114121   5.153   5.196   2.080  0.5024  0.4618  1.5748
 4719TIP3    H214122   5.299   5.194   2.038  0.0826 -0.8323  0.0476
 4720TIP3   OH214123   2.191   5.739   3.201  0.4409 -0.1370 -0.0941
 4720TIP3    H114124   2.222   5.707   3.116  0.1260 -0.7580  0.0173
 4720TIP3    H214125   2.096   5.723   3.200  0.3984  0.0720  0.2822
 4721TIP3   OH214126   4.517   0.125   1.136  0.3363  0.1496 -0.0435
 4721TIP3    H114127   4.584   0.094   1.198 -1.3186  0.8490  2.2484
 4721TIP3    H214128   4.439   0.075   1.160 -0.5202  0.9083 -1.1875
 4722TIP3   OH214129   5.060   5.449   2.973  0.3385 -0.5254 -0.1662
 4722TIP3    H114130   4.987   5.504   2.997  0.0263 -0.6457 -0.8156
 4722TIP3    H214131   5.055   5.374   3.033 -2.3837 -2.4881 -2.5450
 4723TIP3   OH214132   0.651   5.606   1.187  0.4955 -0.2961 -0.1135
 4723TIP3    H114133   0.721   5.652   1.234 -0.8778  0.5115  1.2274
 4723TIP3    H214134   0.571   5.631   1.233 -0.5636 -2.1231 -0.8623
 4724TIP3   OH214135   1.576   4.426   4.914  0.1459 -0.0122  0.2681
 4724TIP3    H114136   1.588   4.425   5.009 -1.2923 -0.6113  0.4624
 4724TIP3    H214137   1.569   4.334   4.890 -2.7898  0.1806  0.0723
 4725TIP3   OH214138   5.115   1.587   3.643 -0.0803 -0.1446  0.0149
 4725TIP3    H114139   5.086   1.568   3.733 -0.5653  0.9837  0.1072
 4725TIP3    H214140   5.037   1.570   3.589  0.5426 -2.0059 -0.3723
 4726TIP3   OH214141   2.475   4.060   2.270 -0.1892  0.7507 -0.0799
 4726TIP3    H114142   2.485   4.107   2.187 -1.0810 -2.4370 -2.1867
 4726TIP3    H214143   2.416   4.115   2.322  1.3530  3.4413 -0.9808
 4727TIP3   OH214144   0.892   1.897   0.602 -0.0347  0.4629 -0.2735
 4727TIP3    H114145   0.799   1.902   0.623 -0.3792 -0.5668 -1.4835
 4727TIP3    H214146   0.936   1.894   0.687 -1.2225 -1.0272  0.3229
 4728TIP3   OH214147   3.274   0.898   1.242 -0.0921 -0.0107 -0.2074
 4728TIP3    H114148   3.197   0.853   1.279 -1.2249  1.3669 -0.8056
 4728TIP3    H214149   3.329   0.827   1.208 -1.9477 -0.9680 -1.3781
 4729TIP3   OH214150   4.005   0.364   5.120 -0.0557 -0.0237  0.0107
 4729TIP3    H114151   3.930   0.414   5.089  1.1825  1.2706 -1.1055
 4729TIP3    H214152   4.017   0.391   5.211 -0.4827  0.3483 -0.0428
 4730TIP3   OH214153   4.017   2.150   1.436  0.2879 -0.4006  0.3171
 4730TIP3    H114154   4.015   2.232   1.387 -2.6040 -0.2867  0.4099
 4730TIP3    H214155   3.955   2.093   1.391  1.7002 -2.3312  0.6688
 4731TIP3   OH214156   3.403   3.008   1.023  0.6837 -0.7388 -0.5168
 4731TIP3    H114157   3.312   2.994   0.996 -0.1282 -0.6900  1.9021
 4731TIP3    H214158   3.414   3.103   1.020 -0.3292 -0.4638  1.7339
 4732TIP3   OH214159   0.572   1.114   1.175 -0.3500 -0.4770  0.0704
 4732TIP3    H114160   0.662   1.135   1.152 -0.2387 -1.2325 -0.1910
 4732TIP3    H214161   0.527   1.103   1.091 -0.8395  0.4987  0.1862
 4733TIP3   OH214162   5.911   3.676   1.265  0.0449  0.4643 -0.2287
 4733TIP3    H114163   5.920   3.676   1.361  2.1193 -1.6784 -0.3495
 4733TIP3    H214164   6.000   3.688   1.232 -0.3050 -0.9930 -1.8573
 4734TIP3   OH214165   0.343   4.124   1.692 -0.3455 -0.0626  0.0980
 4734TIP3    H114166   0.383   4.038   1.694 -0.8752 -0.3482 -0.7891
 4734TIP3    H214167   0.395   4.174   1.629  1.2328  0.9606  2.0939
 4735TIP3   OH214168   6.097   1.815   0.332 -0.1005  0.1626  0.4851
 4735TIP3    H114169   6.061   1.901   0.310  0.8921  0.0778 -1.8408
 4735TIP3    H214170   6.087   1.764   0.251 -0.1140 -1.7353  1.6191
 4736TIP3   OH214171   3.455   0.402   0.568 -0.2407  0.1585 -0.0940
 4736TIP3    H114172   3.384   0.402   0.504  0.6129 -2.4014 -1.1820
 4736TIP3    H214173   3.468   0.310   0.590  2.5724  0.5396  0.2475
 4737TIP3   OH214174   2.901   5.627   2.716 -0.2689 -0.3936  0.1959
 4737TIP3    H114175   2.959   5.692   2.756  1.1749 -1.6810  0.2731
 4737TIP3    H214176   2.877   5.569   2.788  0.2248 -1.2079 -0.2890
 4738TIP3   OH214177   6.077   5.727   3.932  0.1120 -0.0268 -0.1790
 4738TIP3    H114178   6.154   5.730   3.989  0.3008  0.1305 -0.4383
 4738TIP3    H214179   6.048   5.818   3.927  0.0795 -0.0437 -0.3072
 4739TIP3   OH214180   4.881   4.639   0.447 -0.1805  0.0776  0.1867
 4739TIP3    H114181   4.791   4.634   0.480  0.0706  0.6304  0.9795
 4739TIP3    H214182   4.888   4.566   0.386 -1.5797  0.7949 -0.8871
 4740TIP3   OH214183   5.636   2.665   1.592 -0.7315  0.2791  0.0992
 4740TIP3    H114184   5.579   2.588   1.587 -0.8668  0.3454  0.5418
 4740TIP3    H214185   5.724   2.629   1.603 -0.2583  0.0837 -3.2584
 4741TIP3   OH214186   2.338   5.834   4.850 -0.1160  0.4629 -0.2209
 4741TIP3    H114187   2.392   5.764   4.815 -0.1409 -0.0695  0.7593
 4741TIP3    H214188   2.359   5.835   4.944  0.4589  2.2696 -0.3249
 4742TIP3   OH214189   7.123   3.699   3.183 -0.3909  0.2307  0.3525
 4742TIP3    H114190   7.036   3.660   3.192  0.1315 -0.5521  2.9841
 4742TIP3    H214191   7.182   3.624   3.189  0.5229  0.9624  0.6202
 4743TIP3   OH214192   3.044   3.674   5.294  0.4524 -0.0526  0.2446
 4743TIP3    H114193   3.122   3.730   5.296  1.0367 -0.5282 -3.1915
 4743TIP3    H214194   3.078   3.586   5.306  0.2437 -0.1414  0.1866
 4744TIP3   OH214195   3.814   0.877   0.902  0.3021  0.0722 -0.5428
 4744TIP3    H114196   3.794   0.970   0.913  1.9457  0.4274 -0.3695
 4744TIP3    H214197   3.740   0.832   0.944  1.6379  1.3259  3.6729
 4745TIP3   OH214198   2.106   2.415   5.368  0.1170 -0.4419  0.0305
 4745TIP3    H114199   2.086   2.486   5.307  0.0320 -0.4756  0.0183
 4745TIP3    H214200   2.199   2.400   5.357  0.3838  0.4596  0.8771
 4746TIP3   OH214201   4.933   2.824   5.830 -0.6920  0.6123 -0.2569
 4746TIP3    H114202   4.936   2.818   5.734 -0.6608  1.4782 -0.3265
 4746TIP3    H214203   4.870   2.894   5.847 -0.6796  0.4744  0.3534
 4747TIP3   OH214204   2.898   4.049   1.753  0.3589 -0.1653  0.1204
 4747TIP3    H114205   2.946   4.132   1.762 -0.0951  0.0714  0.3852
 4747TIP3    H214206   2.811   4.075   1.724  0.2922 -0.5719 -0.0452
 4748TIP3   OH214207   5.993   4.965   4.537 -0.4269  0.0858  0.0114
 4748TIP3    H114208   6.069   4.907   4.532 -1.1753 -0.9762  0.5615
 4748TIP3    H214209   5.961   4.970   4.447 -0.1909 -0.1305 -0.0857
 4749TIP3   OH214210   6.196   0.893   1.878 -0.3630 -0.4108  0.1567
 4749TIP3    H114211   6.189   0.953   1.804  0.8194 -0.5517 -0.0867
 4749TIP3    H214212   6.217   0.808   1.838  2.0521 -0.1373  0.7207
 4750TIP3   OH214213   5.074   0.439   5.862 -0.5393  0.3420  0.1120
 4750TIP3    H114214   5.028   0.454   5.944  0.9623  3.8497  0.4698
 4750TIP3    H214215   5.004   0.428   5.797 -1.7554 -0.8912  1.5666
 4751TIP3   OH214216   1.179   4.596   2.955 -0.0284 -0.3235 -0.2411
 4751TIP3    H114217   1.262   4.638   2.981  0.4809 -1.2651 -0.3267
 4751TIP3    H214218   1.201   4.544   2.878 -0.9545  0.2977 -0.9400
 4752TIP3   OH214219   5.780   2.813   1.967  0.2786  0.1879  0.2132
 4752TIP3    H114220   5.800   2.802   2.060 -2.5696 -0.2691  0.8914
 4752TIP3    H214221   5.685   2.804   1.963  0.3896 -0.5205 -2.8686
 4753TIP3   OH214222   0.317   3.005   1.635 -0.0678 -0.5810  0.5462
 4753TIP3    H114223   0.345   2.920   1.600  0.8897  0.6173 -1.8349
 4753TIP3    H214224   0.222   3.006   1.620 -0.1072 -1.2655  0.6998
 4754TIP3   OH214225   6.781   5.228   5.315 -0.5773  0.0950 -1.2648
 4754TIP3    H114226   6.724   5.302   5.298 -1.5444 -0.5375 -0.8394
 4754TIP3    H214227   6.870   5.263   5.304 -0.9672  1.5954  0.0678
 4755TIP3   OH214228   0.266   0.837   4.936 -0.1688  0.6479  0.0096
 4755TIP3    H114229   0.237   0.760   4.985 -0.9280  0.5080 -0.6421
 4755TIP3    H214230   0.224   0.911   4.981 -1.8714  0.4219 -1.1249
 4756TIP3   OH214231   5.264   2.302   1.166 -0.3670 -0.2181  0.2219
 4756TIP3    H114232   5.295   2.337   1.082 -1.2527 -0.4260 -0.2046
 4756TIP3    H214233   5.294   2.211   1.166 -0.0378 -0.1125  0.3077
 4757TIP3   OH214234   1.246   5.212   3.604  0.3877  0.5791 -0.1692
 4757TIP3    H114235   1.196   5.287   3.570 -0.4984  0.3304  0.5215
 4757TIP3    H214236   1.336   5.230   3.578 -0.1020  0.8434 -1.8179
 4758TIP3   OH214237   2.146   0.964   5.837 -0.0653  0.1822 -0.0072
 4758TIP3    H114238   2.116   1.052   5.859 -0.0144  0.3685 -0.6433
 4758TIP3    H214239   2.135   0.959   5.742 -0.3460 -0.6048  0.0662
 4759TIP3   OH214240   5.884   4.180   0.905 -0.4725  0.1982  0.0475
 4759TIP3    H114241   5.956   4.224   0.861 -0.6727  2.3474  1.6820
 4759TIP3    H214242   5.915   4.169   0.995 -0.4785 -3.0597 -0.2232
 4760TIP3   OH214243   0.299   0.408   0.189  0.1292  0.3252 -0.2412
 4760TIP3    H114244   0.389   0.438   0.177  0.1634  0.0874 -0.6150
 4760TIP3    H214245   0.270   0.450   0.269  1.0724 -0.7912  0.7235
 4761TIP3   OH214246   3.928   5.950   5.580  0.4324 -0.6269  0.2392
 4761TIP3    H114247   3.839   5.983   5.568 -0.6013 -3.4545 -0.7451
 4761TIP3    H214248   3.951   5.973   5.669 -0.4231  1.9958 -0.1464
 4762TIP3   OH214249   5.992   5.327   3.508  0.1076 -0.2199 -0.0776
 4762TIP3    H114250   5.982   5.421   3.517  3.1612  0.1404  0.9594
 4762TIP3    H214251   5.984   5.293   3.597  1.3679 -0.5939 -0.0874
 4763TIP3   OH214252   4.495   5.165   4.644  0.3915 -0.2454 -0.2586
 4763TIP3    H114253   4.545   5.183   4.723  0.5804  1.9082 -0.8002
 4763TIP3    H214254   4.414   5.216   4.655 -0.5597 -1.6491 -0.5134
 4764TIP3   OH214255   5.346   4.506   1.202  0.5636  0.2527 -0.4288
 4764TIP3    H114256   5.334   4.439   1.135  0.1550  1.2742 -1.3853
 4764TIP3    H214257   5.349   4.456   1.284  0.9857 -1.0040 -1.1696
 4765TIP3   OH214258   6.557   6.637   4.849 -0.7000  0.3427  0.5506
 4765TIP3    H114259   6.529   6.721   4.886 -0.2696  0.1471  1.3474
 4765TIP3    H214260   6.511   6.571   4.901 -1.6497  0.0722 -0.5749
 4766TIP3   OH214261   3.246   6.610   1.202  0.4430 -0.0757  0.2959
 4766TIP3    H114262   3.287   6.686   1.159  1.4674 -1.5526 -1.4691
 4766TIP3    H214263   3.167   6.594   1.152  0.8482 -0.8765 -0.1039
 4767TIP3   OH214264   0.950   2.073   5.015  0.2972  0.3122 -0.0729
 4767TIP3    H114265   0.955   2.057   5.109  1.9061 -1.9511 -0.4470
 4767TIP3    H214266   0.972   2.165   5.005  0.6219  0.4731  1.7245
 4768TIP3   OH214267   1.214   3.428   3.663  0.2526  0.6394  0.2640
 4768TIP3    H114268   1.176   3.483   3.732  0.7015  2.3976 -0.8298
 4768TIP3    H214269   1.290   3.387   3.704  0.3704  1.4564  0.8960
 4769TIP3   OH214270   0.892   4.623   0.441  0.5218 -0.3330 -0.1796
 4769TIP3    H114271   0.933   4.542   0.412 -1.9252 -2.9167  2.8605
 4769TIP3    H214272   0.798   4.607   0.436 -0.0797  1.1092  3.1573
 4770TIP3   OH214273   6.464   0.934   2.630 -0.4537 -0.1423  0.1567
 4770TIP3    H114274   6.374   0.960   2.612 -0.0204 -0.2018 -2.5609
 4770TIP3    H214275   6.468   0.842   2.604  0.0084 -0.6322  1.8710
 4771TIP3   OH214276   4.313   5.956   5.559 -0.1612 -0.6195 -0.0755
 4771TIP3    H114277   4.322   5.999   5.644 -4.2145 -0.0887  0.2714
 4771TIP3    H214278   4.330   6.026   5.495 -0.4070 -0.1421  0.3698
 4772TIP3   OH214279   5.247   4.912   5.614 -0.1443  0.3908 -0.3491
 4772TIP3    H114280   5.253   4.912   5.710 -1.4870  0.2788 -0.2358
 4772TIP3    H214281   5.170   4.967   5.596 -0.8302 -0.8194 -1.2784
 4773TIP3   OH214282   4.681   3.054   1.475  0.4837 -0.2415  0.6302
 4773TIP3    H114283   4.674   3.068   1.570  1.2927  0.0637  0.6594
 4773TIP3    H214284   4.685   3.142   1.438 -1.0832 -0.3404  0.1864
 4774TIP3   OH214285   1.223   5.333   5.573  0.4764  0.4408 -0.3951
 4774TIP3    H114286   1.179   5.302   5.494  0.3197 -0.3466 -0.0117
 4774TIP3    H214287   1.208   5.427   5.573  0.9570  0.5358 -1.5959
 4775TIP3   OH214288   4.439   2.742   2.807  0.1155  0.3711  0.4238
 4775TIP3    H114289   4.353   2.773   2.834 -1.1095 -1.5343 -1.0026
 4775TIP3    H214290   4.483   2.819   2.771 -0.7677  1.4853  1.6531
 4776TIP3   OH214291   6.894   3.036   0.098 -0.8423 -0.0405  0.6268
 4776TIP3    H114292   6.830   3.091   0.143  1.7933  4.6996 -0.6692
 4776TIP3    H214293   6.848   3.001   0.023 -2.7253  0.3374  1.5486
 4777TIP3   OH214294   2.845   1.478   3.629 -0.3959  0.5814  0.0790
 4777TIP3    H114295   2.766   1.467   3.682 -0.8343 -0.4796 -0.7786
 4777TIP3    H214296   2.893   1.549   3.673 -0.4681 -0.5981  2.2203
 4778TIP3   OH214297   5.950   1.098   3.979 -0.1472 -0.9489  0.0681
 4778TIP3    H114298   5.895   1.177   3.969  1.1367 -0.0590 -0.2610
 4778TIP3    H214299   5.944   1.055   3.894  0.2517 -0.4550 -0.2137
 4779TIP3   OH214300   6.643   2.259   1.063  0.3464  0.0440  0.2398
 4779TIP3    H114301   6.570   2.310   1.098 -0.2071  0.9650 -2.0472
 4779TIP3    H214302   6.652   2.185   1.123 -1.2424  0.8905  1.6099
 4780TIP3   OH214303   6.186   4.775   2.419 -0.7081  0.1354  0.0788
 4780TIP3    H114304   6.212   4.774   2.511 -0.4741  1.0795  0.0383
 4780TIP3    H214305   6.200   4.685   2.389 -0.4868 -0.1060  0.8814
 4781TIP3   OH214306   0.665   0.488   0.832 -0.4318 -0.0793  0.1124
 4781TIP3    H114307   0.674   0.437   0.752  0.2427  0.5744 -0.2435
 4781TIP3    H214308   0.745   0.469   0.882 -0.0936  0.7373 -0.0989
 4782TIP3   OH214309   4.671   1.270   1.023 -0.6555 -0.1959  0.2129
 4782TIP3    H114310   4.618   1.349   1.033  0.2242  0.4366  0.0987
 4782TIP3    H214311   4.612   1.198   1.040 -0.7964  0.5636  3.4933
 4783TIP3   OH214312   4.095   2.661   4.477 -0.2770 -0.1889  0.5892
 4783TIP3    H114313   4.092   2.690   4.569  2.4494  0.8130  0.4646
 4783TIP3    H214314   4.137   2.575   4.481 -0.3052 -0.2158  0.3007
 4784TIP3   OH214315   3.936   1.197   1.330 -0.2559  0.2501  0.2247
 4784TIP3    H114316   3.877   1.134   1.289 -0.3226  0.5861 -0.2006
 4784TIP3    H214317   4.007   1.144   1.366 -0.4805 -0.0937  0.1606
 4785TIP3   OH214318   1.563   5.944   1.148 -0.5775 -0.2163 -0.0675
 4785TIP3    H114319   1.606   5.982   1.225 -0.4082  1.6235 -1.0127
 4785TIP3    H214320   1.632   5.895   1.103  0.4786  2.1347 -1.1936
 4786TIP3   OH214321   1.417   4.934   1.891 -0.0761 -0.6851 -0.0338
 4786TIP3    H114322   1.462   4.992   1.830 -1.4838  0.1346 -0.3418
 4786TIP3    H214323   1.432   4.975   1.977 -0.4292 -0.2886 -0.1602
 4787TIP3   OH214324   5.542   3.860   5.713  0.1040  0.3263  0.0148
 4787TIP3    H114325   5.502   3.818   5.789 -0.4876 -0.4159 -0.6867
 4787TIP3    H214326   5.632   3.827   5.710  0.1614  0.4462  0.4491
 4788TIP3   OH214327   4.079   0.702   5.251 -0.2396  0.4698  0.5528
 4788TIP3    H114328   4.030   0.712   5.332 -2.2478  0.5347 -0.5943
 4788TIP3    H214329   4.139   0.629   5.267 -1.8637 -0.6964  1.5259
 4789TIP3   OH214330   1.211   4.934   5.585  0.3828 -0.1296  0.5392
 4789TIP3    H114331   1.145   4.929   5.516  1.9994  0.1565 -1.1117
 4789TIP3    H214332   1.224   4.843   5.611  1.1732 -0.5081 -1.0192
 4790TIP3   OH214333   1.830   4.437   2.836  0.2952 -0.0550  0.6058
 4790TIP3    H114334   1.875   4.361   2.873  0.0213 -0.9649 -0.8597
 4790TIP3    H214335   1.881   4.460   2.758  1.0268  1.9992  1.6150
 4791TIP3   OH214336   3.396   0.998   1.011 -0.3653  0.2587  0.3574
 4791TIP3    H114337   3.388   0.922   0.953 -0.2442  0.4616  0.0735
 4791TIP3    H214338   3.326   0.987   1.075 -0.4050 -0.0465  0.2631
 4792TIP3   OH214339   1.094   0.979   5.586 -0.3772 -0.1380 -1.2520
 4792TIP3    H114340   1.163   0.913   5.585  0.3847  0.6319 -1.0791
 4792TIP3    H214341   1.026   0.941   5.641  0.8239 -0.0406  0.3822
 4793TIP3   OH214342   2.485   5.027   1.549  0.6903 -0.0010  0.7086
 4793TIP3    H114343   2.529   5.098   1.595  0.1697  0.6611  0.2087
 4793TIP3    H214344   2.554   4.985   1.498  0.6569  1.5296 -0.6942
 4794TIP3   OH214345   2.542   6.338   0.571 -0.0417  0.2434 -0.4571
 4794TIP3    H114346   2.625   6.340   0.524 -0.2933  0.8698 -0.8910
 4794TIP3    H214347   2.488   6.403   0.526 -0.8799 -0.4036 -0.3973
 4795TIP3   OH214348   6.982   1.568   3.001 -0.0040 -0.2582  0.3658
 4795TIP3    H114349   6.891   1.585   2.976 -0.3206 -0.9044  1.0457
 4795TIP3    H214350   7.021   1.528   2.923 -0.0826  0.7304 -0.1955
 4796TIP3   OH214351   5.021   1.130   2.791 -0.2361  0.0918 -0.2825
 4796TIP3    H114352   5.082   1.142   2.864 -1.7826 -1.3934  1.3558
 4796TIP3    H214353   4.962   1.061   2.821 -2.0003  0.6468 -2.2730
 4797TIP3   OH214354   3.891   1.517   5.678  0.2192  0.2492 -0.2998
 4797TIP3    H114355   3.950   1.586   5.649  0.1647  0.7863  0.8125
 4797TIP3    H214356   3.811   1.530   5.627  0.1517  1.1164  0.0118
 4798TIP3   OH214357   5.257   0.127   0.905 -0.5123 -0.2825 -0.4240
 4798TIP3    H114358   5.200   0.202   0.923 -1.0857 -0.7537 -0.2465
 4798TIP3    H214359   5.257   0.120   0.810 -0.9178 -0.4064 -0.4166
 4799TIP3   OH214360   2.687   2.349   1.741  0.0726  0.5259  0.4419
 4799TIP3    H114361   2.622   2.369   1.808 -1.8687  0.1486 -1.2322
 4799TIP3    H214362   2.690   2.428   1.687  1.7751  0.9076  1.0278
 4800TIP3   OH214363   5.327   6.589   0.659  0.3575 -0.0277 -0.1856
 4800TIP3    H114364   5.351   6.677   0.686  2.7359 -0.0769 -1.8018
 4800TIP3    H214365   5.389   6.532   0.704 -0.1501 -0.7280 -0.3473
 4801TIP3   OH214366   4.442   2.403   4.363  0.3330  0.4784 -0.6779
 4801TIP3    H114367   4.382   2.432   4.295 -1.0339 -0.0969  0.2326
 4801TIP3    H214368   4.488   2.328   4.324 -0.4646  0.1237 -0.9654
 4802TIP3   OH214369   1.970   3.562   3.915 -0.7489  0.3899  0.0281
 4802TIP3    H114370   1.966   3.571   4.011  2.1243  0.8785  0.1866
 4802TIP3    H214371   1.962   3.468   3.900 -1.6470  0.3423  0.7029
 4803TIP3   OH214372   0.208   4.496   1.053  0.2513  0.0224 -0.4607
 4803TIP3    H114373   0.226   4.503   1.146 -0.0196 -0.1714 -0.3919
 4803TIP3    H214374   0.293   4.506   1.011  0.2416  1.2356 -0.2548
 4804TIP3   OH214375   1.459   4.125   5.791  0.5035  0.2012 -0.7252
 4804TIP3    H114376   1.550   4.146   5.772  1.1413 -1.2355  0.5555
 4804TIP3    H214377   1.416   4.210   5.799  2.1022  0.9612  0.3419
 4805TIP3   OH214378   0.663   5.000   0.580  0.7027 -0.3162  0.0122
 4805TIP3    H114379   0.594   4.987   0.515  0.2150  2.9017 -0.2496
 4805TIP3    H214380   0.744   5.001   0.529  0.3645  1.7078 -0.5869
 4806TIP3   OH214381   2.660   6.674   1.436 -0.4033  0.2120  0.3381
 4806TIP3    H114382   2.655   6.631   1.351  0.4579 -0.4160  0.5897
 4806TIP3    H214383   2.575   6.715   1.448 -1.8343 -2.6177  0.7207
 4807TIP3   OH214384   4.570   2.269   2.042 -0.5118 -0.4249 -0.1089
 4807TIP3    H114385   4.491   2.256   1.989  0.3250 -0.3208 -1.4547
 4807TIP3    H214386   4.640   2.276   1.977  0.7907 -1.7833  1.0938
 4808TIP3   OH214387   0.725   2.458   3.700  0.7185 -0.1782  0.2952
 4808TIP3    H114388   0.753   2.466   3.609  1.3616  0.7399  0.5684
 4808TIP3    H214389   0.646   2.403   3.696  1.0037 -0.5281 -0.7561
 4809TIP3   OH214390   6.989   3.250   5.812  0.0731  0.1720 -0.0967
 4809TIP3    H114391   7.066   3.285   5.768 -0.2690  2.3364  0.8579
 4809TIP3    H214392   6.931   3.222   5.741  1.4624 -0.9463 -0.8299
 4810TIP3   OH214393   6.293   1.085   5.781 -0.3149 -0.3033 -0.1375
 4810TIP3    H114394   6.378   1.057   5.815  0.0220 -1.9494 -2.1739
 4810TIP3    H214395   6.229   1.035   5.831 -0.2232  1.4473  1.8958
 4811TIP3   OH214396   3.250   5.072   4.595  0.0124  0.0342  0.5254
 4811TIP3    H114397   3.239   4.997   4.652  0.6531 -0.8267 -0.4483
 4811TIP3    H214398   3.331   5.055   4.548 -0.1734  1.0168 -0.1884
 4812TIP3   OH214399   4.638   3.938   5.275  0.0746 -0.0810 -0.0478
 4812TIP3    H114400   4.732   3.954   5.265 -0.0407  0.7755  0.1521
 4812TIP3    H214401   4.631   3.887   5.356  0.3045  0.6358  0.4352
 4813TIP3   OH214402   2.902   0.543   1.339  0.1924  0.3647 -0.1604
 4813TIP3    H114403   2.825   0.573   1.389  0.0551 -1.0400  0.5106
 4813TIP3    H214404   2.901   0.448   1.348  2.1284  0.3238  0.0130
 4814TIP3   OH214405   3.100   0.788   5.302  0.0974 -0.2495  0.3295
 4814TIP3    H114406   3.112   0.736   5.382 -0.4859  1.4389  1.5610
 4814TIP3    H214407   3.189   0.810   5.274  0.2938  1.4453  2.1123
 4815TIP3   OH214408   6.916   1.661   4.772  0.1999 -0.3459  0.0881
 4815TIP3    H114409   6.928   1.678   4.679 -1.9647  2.1065  0.1810
 4815TIP3    H214410   6.939   1.743   4.815  0.4522 -1.2136  1.7042
 4816TIP3   OH214411   4.175   2.815   4.963  0.6679 -0.4888  0.5858
 4816TIP3    H114412   4.156   2.814   5.056  0.2743  0.0837  0.5209
 4816TIP3    H214413   4.251   2.757   4.953  2.0297  1.0245  1.5631
 4817TIP3   OH214414   6.006   0.926   3.497  0.0363 -0.0571  0.2132
 4817TIP3    H114415   5.922   0.938   3.452  0.1467 -0.5434 -0.1192
 4817TIP3    H214416   6.053   1.008   3.482  0.3888 -0.5057 -1.2326
 4818TIP3   OH214417   2.638   6.643   2.091  0.2662 -0.0685  0.1343
 4818TIP3    H114418   2.670   6.711   2.032  0.8831 -1.0427 -0.6833
 4818TIP3    H214419   2.561   6.682   2.132  1.6652  1.8096  1.1223
 4819TIP3   OH214420   5.832   3.089   2.576 -0.0422 -0.1589  0.2281
 4819TIP3    H114421   5.841   3.004   2.620 -0.2480 -0.3121 -0.0186
 4819TIP3    H214422   5.913   3.099   2.526 -0.7804 -1.1012 -1.2527
 4820TIP3   OH214423   5.583   6.538   1.524  0.1878 -0.2635  0.1012
 4820TIP3    H114424   5.546   6.512   1.439  1.3404  1.5826 -1.0360
 4820TIP3    H214425   5.516   6.594   1.563  0.3736  0.3291 -0.4182
 4821TIP3   OH214426   6.328   5.997   4.313 -0.3984 -0.2153 -0.4228
 4821TIP3    H114427   6.390   5.990   4.386 -0.1906  3.0376 -0.1426
 4821TIP3    H214428   6.243   6.010   4.355 -0.4007  0.8594 -0.7490
 4822TIP3   OH214429   4.900   1.859   5.423 -0.3698  0.1157 -0.5941
 4822TIP3    H114430   4.904   1.913   5.502  0.6243 -1.4496  0.4632
 4822TIP3    H214431   4.917   1.921   5.351 -0.9070  1.4917  0.4213
 4823TIP3   OH214432   1.729   1.490   3.303  0.1155 -0.6262 -0.5837
 4823TIP3    H114433   1.641   1.528   3.299  1.0698  2.1138  1.1683
 4823TIP3    H214434   1.722   1.420   3.369 -1.0691 -1.6372 -1.7361
 4824TIP3   OH214435   4.650   1.336   0.579 -0.4407  0.9612  0.4091
 4824TIP3    H114436   4.561   1.301   0.577  0.0343 -0.3171  0.8025
 4824TIP3    H214437   4.651   1.401   0.508 -0.5092 -1.9381 -2.5018
 4825TIP3   OH214438   1.858   0.614   1.080 -0.7307  0.1952  0.1626
 4825TIP3    H114439   1.813   0.690   1.116 -1.9724 -0.3667 -0.1512
 4825TIP3    H214440   1.890   0.566   1.156 -1.4697  0.1244  0.4293
 4826TIP3   OH214441   1.996   6.030   4.418 -0.3149  0.1619  0.6752
 4826TIP3    H114442   2.061   6.090   4.454  2.6770 -1.4805 -1.5144
 4826TIP3    H214443   1.947   6.082   4.355  1.8295  0.5753 -0.7534
 4827TIP3   OH214444   1.962   2.942   5.697  0.2029 -0.1187  0.0272
 4827TIP3    H114445   1.981   3.032   5.670  2.1381  0.0193  1.6206
 4827TIP3    H214446   2.040   2.915   5.746 -1.6903 -1.4761  2.5192
 4828TIP3   OH214447   2.889   5.832   3.606  0.1066 -0.2163  0.1836
 4828TIP3    H114448   2.906   5.918   3.645  0.3427 -0.9647  1.8072
 4828TIP3    H214449   2.796   5.834   3.584  0.2475  0.6762 -0.4293
 4829TIP3   OH214450   1.629   1.705   2.004  0.2007  0.1423 -0.0877
 4829TIP3    H114451   1.565   1.709   1.933  0.1053  0.9721  0.0347
 4829TIP3    H214452   1.590   1.755   2.075 -0.0305 -1.2883  0.8479
 4830TIP3   OH214453   5.378   0.935   0.325  0.8170 -0.5464 -0.1456
 4830TIP3    H114454   5.340   0.862   0.276  1.4887 -0.1191 -1.3740
 4830TIP3    H214455   5.436   0.894   0.389  0.9619 -1.1091 -0.6235
 4831TIP3   OH214456   3.081   3.649   1.567  0.2589 -0.5085  0.5480
 4831TIP3    H114457   3.102   3.742   1.566  1.0581 -0.6475 -1.2490
 4831TIP3    H214458   2.990   3.644   1.594  0.5753  0.6696  1.9508
 4832TIP3   OH214459   4.343   3.635   4.027 -0.1185  0.3188 -0.8129
 4832TIP3    H114460   4.389   3.666   4.106 -0.9856  2.1902 -0.9870
 4832TIP3    H214461   4.291   3.710   3.999  0.1395 -0.3022 -3.1747
 4833TIP3   OH214462   6.881   2.291   3.547 -0.3805  0.0550  0.9612
 4833TIP3    H114463   6.819   2.237   3.595  0.8874 -2.5659 -0.1554
 4833TIP3    H214464   6.954   2.232   3.527  1.1529  2.2240 -0.2873
 4834TIP3   OH214465   5.390   1.663   1.201  0.0054  0.2424 -0.1123
 4834TIP3    H114466   5.331   1.642   1.128 -0.5356  1.3379 -0.0219
 4834TIP3    H214467   5.475   1.630   1.173 -0.4610 -0.5729 -0.6426
 4835TIP3   OH214468   4.173   0.319   3.651 -0.3216 -0.9939  0.2617
 4835TIP3    H114469   4.084   0.328   3.685 -0.5204 -0.3741 -0.3890
 4835TIP3    H214470   4.163   0.331   3.557  0.4998 -0.5437  0.2279
 4836TIP3   OH214471   2.402   0.685   2.540  0.2781  0.3198  0.1742
 4836TIP3    H114472   2.483   0.732   2.559  0.4042  0.4464 -0.6290
 4836TIP3    H214473   2.371   0.723   2.458 -0.7328  0.4433  0.6007
 4837TIP3   OH214474   2.417   4.861   1.177  0.2302  0.3477 -0.4311
 4837TIP3    H114475   2.460   4.918   1.241 -0.0053  0.3933 -0.3136
 4837TIP3    H214476   2.454   4.775   1.194 -0.3550  0.2214  0.2447
 4838TIP3   OH214477   3.635   3.967   0.132 -0.0757 -0.1131 -0.1728
 4838TIP3    H114478   3.671   3.879   0.125  2.1591  0.7664 -0.6273
 4838TIP3    H214479   3.583   3.978   0.052  0.3912 -0.6841 -0.5616
 4839TIP3   OH214480   5.506   3.955   0.618 -0.0313 -0.1063 -0.3790
 4839TIP3    H114481   5.553   4.038   0.627 -0.3339  0.0225  0.0229
 4839TIP3    H214482   5.561   3.891   0.663  0.3267 -0.1796 -0.9027
 4840TIP3   OH214483   1.305   6.121   2.785 -0.6401 -0.4639  0.4562
 4840TIP3    H114484   1.273   6.178   2.855  0.3624  0.9932 -0.2215
 4840TIP3    H214485   1.401   6.125   2.793 -0.5400 -1.7222  0.1106
 4841TIP3   OH214486   5.769   1.429   5.009  0.0732  0.3580 -0.0732
 4841TIP3    H114487   5.710   1.488   5.056  0.3096  1.4142 -1.0763
 4841TIP3    H214488   5.848   1.426   5.063  1.2135  3.3165 -1.3962
 4842TIP3   OH214489   1.974   3.422   2.272  0.3200 -0.1250  0.3207
 4842TIP3    H114490   1.906   3.362   2.240 -0.2203  0.0865  1.0345
 4842TIP3    H214491   1.928   3.478   2.334  0.9223  0.7447 -0.0101
 4843TIP3   OH214492   0.025   6.493   3.942  0.0350  0.2294  0.1779
 4843TIP3    H114493  -0.002   6.552   3.871  1.3678  0.6834  0.0250
 4843TIP3    H214494   0.120   6.492   3.937  0.1406  0.0357  1.7811
 4844TIP3   OH214495   1.802   3.910   3.842  0.3280  0.7746  0.4436
 4844TIP3    H114496   1.769   3.926   3.931 -1.4039  1.7855 -0.3288
 4844TIP3    H214497   1.888   3.951   3.840  0.7584 -0.0003  1.8937
 4845TIP3   OH214498   2.156   0.418   2.369  0.4296 -0.0463  0.1312
 4845TIP3    H114499   2.111   0.498   2.342  0.0466 -0.1474  0.4620
 4845TIP3    H214500   2.174   0.372   2.288 -0.0678 -0.0049 -0.0048
 4846TIP3   OH214501   1.917   4.928   1.338 -0.0568  0.1708  0.1532
 4846TIP3    H114502   1.883   4.969   1.259  0.1142 -0.2033 -0.1225
 4846TIP3    H214503   1.978   4.992   1.374 -0.3060  0.4369  0.1086
 4847TIP3   OH214504   6.742   4.521   5.514  0.1283  0.1101  0.2762
 4847TIP3    H114505   6.737   4.555   5.424  0.6007 -0.2131  0.1222
 4847TIP3    H214506   6.834   4.498   5.525  0.0890  0.2384  0.8812
 4848TIP3   OH214507   4.598   6.410   1.221  0.0907  0.2266 -0.0555
 4848TIP3    H114508   4.686   6.371   1.225  0.2175  0.6294  1.4859
 4848TIP3    H214509   4.548   6.350   1.166  0.3257 -2.0983  2.0878
 4849TIP3   OH214510   1.241   1.993   0.794 -0.1078 -0.5658  0.0517
 4849TIP3    H114511   1.307   1.926   0.809 -0.6372 -1.1629 -0.2469
 4849TIP3    H214512   1.175   1.978   0.862  1.2882  1.6940  2.0895
 4850TIP3   OH214513   5.625   0.888   4.639  0.3987 -0.0686 -0.2529
 4850TIP3    H114514   5.628   0.889   4.543  0.8637 -2.2279 -0.2956
 4850TIP3    H214515   5.717   0.892   4.666  0.3357 -0.7574  0.0707
 4851TIP3   OH214516   4.780   0.595   1.990 -0.2152 -0.3714 -0.0025
 4851TIP3    H114517   4.805   0.532   1.923 -0.4541 -0.1338 -0.3177
 4851TIP3    H214518   4.773   0.543   2.070  2.9551 -0.1655  0.5050
 4852TIP3   OH214519   2.683   0.928   1.265 -0.0454 -0.4589  0.0516
 4852TIP3    H114520   2.743   0.870   1.220  1.3809  0.5144  0.6061
 4852TIP3    H214521   2.648   0.875   1.337  0.0260 -1.0840 -0.3671
 4853TIP3   OH214522   6.077   4.595   5.289 -0.7271 -0.2144 -0.1899
 4853TIP3    H114523   6.031   4.622   5.209 -0.2888  0.7535 -0.1281
 4853TIP3    H214524   6.007   4.580   5.353 -1.1039 -1.3313 -0.8426
 4854TIP3   OH214525   4.411   6.589   3.503  0.0217 -0.6446 -0.2263
 4854TIP3    H114526   4.477   6.637   3.552  0.6127  0.0289 -1.6230
 4854TIP3    H214527   4.454   6.507   3.479 -0.1126 -0.7846  0.0154
 4855TIP3   OH214528   2.137   0.823   0.470 -0.4824  0.3247  0.5184
 4855TIP3    H114529   2.188   0.749   0.503  0.6550  0.1837 -1.4033
 4855TIP3    H214530   2.047   0.791   0.466 -0.4873  0.0099  2.3399
 4856TIP3   OH214531   3.582   2.551   2.798 -0.0126  0.5549  0.2841
 4856TIP3    H114532   3.533   2.549   2.716  1.4378  1.9933 -0.6756
 4856TIP3    H214533   3.673   2.537   2.772  0.3645  0.0029  1.7833
 4857TIP3   OH214534   0.240   2.293   5.103  0.0167 -0.1936 -0.2211
 4857TIP3    H114535   0.226   2.355   5.175 -0.8275 -0.0720 -0.4708
 4857TIP3    H214536   0.333   2.299   5.084 -0.0418  1.0149 -0.2434
 4858TIP3   OH214537   6.645   1.001   3.967  0.1563 -0.0914  0.1024
 4858TIP3    H114538   6.676   1.009   3.877 -0.8125  0.5408 -0.1919
 4858TIP3    H214539   6.626   0.908   3.977  1.0528 -0.3020 -0.0673
 4859TIP3   OH214540   4.990   1.467   1.869  0.3235  0.5939  0.2967
 4859TIP3    H114541   4.898   1.462   1.843  0.2434  0.9155  0.5161
 4859TIP3    H214542   5.029   1.528   1.806  0.5403 -0.0713 -0.2237
 4860TIP3   OH214543   0.651   6.025   3.372  0.6970 -0.2921  0.3238
 4860TIP3    H114544   0.719   6.092   3.364  2.7788 -2.3915 -0.9241
 4860TIP3    H214545   0.635   5.997   3.281 -1.0977 -0.5792  0.6976
 4861TIP3   OH214546   1.478   1.095   4.957  0.4301 -0.0258  0.4263
 4861TIP3    H114547   1.382   1.093   4.963  0.2772  1.8060 -0.5957
 4861TIP3    H214548   1.507   1.121   5.045 -0.0546 -0.0515  0.5948
 4862TIP3   OH214549   5.476   6.615   2.580 -0.1552  0.3956 -0.6801
 4862TIP3    H114550   5.481   6.707   2.552  0.2370  0.3843 -0.6537
 4862TIP3    H214551   5.423   6.617   2.660  0.4094  0.6926 -0.3021
 4863TIP3   OH214552   7.187   3.469   5.430  0.6933 -0.2725 -0.3049
 4863TIP3    H114553   7.159   3.519   5.353  0.5079  0.6041  0.3091
 4863TIP3    H214554   7.192   3.379   5.400 -0.9082 -0.1829 -0.9664
 4864TIP3   OH214555   2.843   4.884   3.780  0.2806 -0.1156  0.4995
 4864TIP3    H114556   2.894   4.868   3.859  1.5611  2.4233  0.2731
 4864TIP3    H214557   2.884   4.828   3.714 -0.1271 -1.4461  1.3228
 4865TIP3   OH214558   0.120   1.224   0.272 -0.9922 -0.6156 -0.6624
 4865TIP3    H114559   0.112   1.277   0.192 -1.4898 -1.9238 -1.5240
 4865TIP3    H214560   0.107   1.285   0.343  1.7181  1.0762 -1.4572
 4866TIP3   OH214561   1.235   1.820   4.563 -0.8225 -0.0178 -0.4604
 4866TIP3    H114562   1.191   1.812   4.478 -0.9670  1.8074 -0.5892
 4866TIP3    H214563   1.183   1.885   4.611  1.3279  1.7375 -0.3737
 4867TIP3   OH214564   6.864   0.287   3.310  0.2835  0.6655 -0.3828
 4867TIP3    H114565   6.901   0.210   3.354  0.1469  0.4541 -0.6408
 4867TIP3    H214566   6.908   0.362   3.353  1.2139  0.4112 -0.8661
 4868TIP3   OH214567   5.534   5.528   1.376  0.3003  0.5494  0.2774
 4868TIP3    H114568   5.499   5.439   1.377  0.7372  0.3741  2.0664
 4868TIP3    H214569   5.584   5.536   1.457 -1.1655  2.9905  1.0527
 4869TIP3   OH214570   3.191   2.972   5.625  0.1012 -0.2939 -0.1575
 4869TIP3    H114571   3.187   3.022   5.707 -2.7444 -0.2432 -0.2416
 4869TIP3    H214572   3.194   3.039   5.557 -0.0363 -0.2870 -0.1576
 4870TIP3   OH214573   4.855   2.096   2.153 -0.0813  0.4540 -0.5161
 4870TIP3    H114574   4.913   2.147   2.097  0.8337  0.8973  0.7912
 4870TIP3    H214575   4.806   2.041   2.092  3.7476 -2.1351 -1.6167
 4871TIP3   OH214576   5.052   2.450   2.262 -0.0805 -0.0048  0.0657
 4871TIP3    H114577   5.006   2.406   2.191  1.1201  0.3406 -0.9723
 4871TIP3    H214578   5.143   2.421   2.252  1.0808  3.6060 -1.5074
 4872TIP3   OH214579   5.287   4.372   3.373  0.6628 -0.4872 -0.0294
 4872TIP3    H114580   5.378   4.358   3.348  0.5206  0.8432 -1.4198
 4872TIP3    H214581   5.240   4.377   3.290 -0.3801  0.6908  0.6125
 4873TIP3   OH214582   0.224   2.047   0.060 -0.1148 -0.3054  0.6182
 4873TIP3    H114583   0.135   2.030   0.028  0.0434  0.9958 -0.6349
 4873TIP3    H214584   0.212   2.106   0.134 -0.2955 -0.1303  0.4504
 4874TIP3   OH214585   0.950   6.638   2.839  0.3448  0.0421 -0.0038
 4874TIP3    H114586   0.914   6.636   2.927  0.0236 -0.3980 -0.1368
 4874TIP3    H214587   0.894   6.700   2.792 -1.1822 -1.6578 -0.5776
 4875TIP3   OH214588   6.241   0.981   3.768  0.3016 -0.2925  0.1767
 4875TIP3    H114589   6.249   1.060   3.821  2.8179  0.0211 -0.5460
 4875TIP3    H214590   6.225   0.911   3.832 -3.1504  0.8354  0.7403
 4876TIP3   OH214591   0.186   2.312   1.009  0.0888  0.0591  0.0264
 4876TIP3    H114592   0.233   2.239   1.049 -0.1554 -1.9981 -3.1578
 4876TIP3    H214593   0.252   2.380   0.998  0.7234 -0.2891  1.4811
 4877TIP3   OH214594   2.052   2.322   1.300  0.5439  0.0325 -0.2820
 4877TIP3    H114595   2.027   2.284   1.384  0.5557 -1.3116 -0.8553
 4877TIP3    H214596   2.114   2.259   1.263 -0.0014  0.2320 -1.5982
 4878TIP3   OH214597   1.669   6.136   4.995 -0.0838  0.1449 -0.0034
 4878TIP3    H114598   1.600   6.201   5.004 -1.3911 -1.2253  0.2543
 4878TIP3    H214599   1.750   6.187   4.992 -1.1439  1.8504 -1.1609
 4879TIP3   OH214600   5.277   1.335   4.413 -0.1490 -0.3207 -0.1724
 4879TIP3    H114601   5.335   1.345   4.489 -1.0536  1.4546  0.3378
 4879TIP3    H214602   5.314   1.393   4.347  0.1980 -1.2822 -0.8408
 4880TIP3   OH214603   5.468   6.094   0.961 -0.2603  0.5146 -0.1177
 4880TIP3    H114604   5.437   6.183   0.975  0.2552  0.3877  2.1374
 4880TIP3    H214605   5.400   6.038   0.998 -0.0396  0.0111 -0.4556
 4881TIP3   OH214606   5.091   2.779   3.468  0.0325  0.3802  0.1231
 4881TIP3    H114607   5.039   2.741   3.538 -0.6625  0.6053 -0.2634
 4881TIP3    H214608   5.166   2.721   3.459 -1.1287 -1.0491 -0.6277
 4882TIP3   OH214609   3.340   5.003   1.119  0.4851  0.0921  0.5400
 4882TIP3    H114610   3.303   5.040   1.199 -3.3269 -0.6498 -0.6691
 4882TIP3    H214611   3.366   5.079   1.067 -1.4063  0.8449  0.6198
 4883TIP3   OH214612   0.221   0.455   2.270  0.1097  0.2543  0.3391
 4883TIP3    H114613   0.231   0.368   2.231  2.9803  0.2184  0.9509
 4883TIP3    H214614   0.219   0.514   2.194  1.0534 -0.1405 -0.0046
 4884TIP3   OH214615   4.042   3.956   0.320  0.5923  0.5338  0.7652
 4884TIP3    H114616   3.977   3.888   0.300  0.5483  0.9721 -0.7205
 4884TIP3    H214617   3.995   4.017   0.376 -0.0041  0.3764  0.4524
 4885TIP3   OH214618   3.052   4.601   3.718 -0.1868  0.3434 -0.3074
 4885TIP3    H114619   3.140   4.617   3.683  0.6391 -3.1758 -0.2651
 4885TIP3    H214620   2.995   4.658   3.667  2.0262  2.3943 -0.6764
 4886TIP3   OH214621   1.607   3.883   5.401  0.2354  0.1513  0.0712
 4886TIP3    H114622   1.537   3.861   5.463 -0.6255  0.4316 -0.7715
 4886TIP3    H214623   1.567   3.870   5.315  0.7532  1.7418 -0.4319
 4887TIP3   OH214624   5.573   1.635   2.546  0.2705  0.0421 -0.2825
 4887TIP3    H114625   5.610   1.639   2.458 -0.7448 -0.6126 -0.7591
 4887TIP3    H214626   5.595   1.547   2.577 -0.0967 -0.0235 -0.2070
 4888TIP3   OH214627   3.597   1.472   3.622  0.0373  0.3131 -0.0041
 4888TIP3    H114628   3.519   1.525   3.604 -1.0380 -1.4836 -0.8728
 4888TIP3    H214629   3.631   1.449   3.535  0.9141  0.1622  0.3600
 4889TIP3   OH214630   2.764   0.826   0.335  0.0489 -0.5489 -0.1569
 4889TIP3    H114631   2.772   0.739   0.296  0.3915 -0.1591 -0.9672
 4889TIP3    H214632   2.838   0.875   0.300 -1.1033  0.5825 -1.0700
 4890TIP3   OH214633   6.206   1.617   3.130 -0.4499  0.1935  0.2746
 4890TIP3    H114634   6.263   1.690   3.155  0.0823  1.1276 -3.1791
 4890TIP3    H214635   6.263   1.541   3.129 -0.2980  0.2886  0.9033
 4891TIP3   OH214636   1.523   3.665   5.595  1.0913 -0.3809 -0.2878
 4891TIP3    H114637   1.488   3.731   5.655  1.8470 -0.1822 -0.0622
 4891TIP3    H214638   1.483   3.583   5.623 -3.8043  0.4634 -3.4610
 4892TIP3   OH214639   6.535   6.667   5.690  0.0823 -0.0736 -0.1145
 4892TIP3    H114640   6.598   6.738   5.707  0.2117  0.2123 -1.6517
 4892TIP3    H214641   6.499   6.646   5.776  2.0356 -0.0165  0.7678
 4893TIP3   OH214642   1.184   1.513   5.279 -0.4008  0.1244 -0.5301
 4893TIP3    H114643   1.256   1.515   5.342 -0.4405 -0.3590 -0.4699
 4893TIP3    H214644   1.227   1.516   5.193 -0.3130 -0.0179 -0.4923
 4894TIP3   OH214645   0.212   1.890   0.576  0.3723  0.0936 -0.0634
 4894TIP3    H114646   0.202   1.885   0.671 -0.9151 -1.6776 -0.2280
 4894TIP3    H214647   0.122   1.891   0.542  0.7968 -0.3616 -1.2840
 4895TIP3   OH214648   4.033   4.077   3.986  1.1552  0.2747  0.3098
 4895TIP3    H114649   4.017   4.169   4.007 -0.3236  0.4005 -1.1633
 4895TIP3    H214650   3.950   4.033   4.003  2.0198 -0.9514  1.6066
 4896TIP3   OH214651   6.032   3.457   1.868  0.1870  0.0057  0.1345
 4896TIP3    H114652   5.940   3.437   1.847 -0.3796  2.3516  0.1894
 4896TIP3    H214653   6.069   3.490   1.787  0.0988  1.9563  0.8533
 4897TIP3   OH214654   0.057   6.150   1.734  0.3217  0.0895 -0.6106
 4897TIP3    H114655   0.109   6.145   1.814  0.1828  2.1009 -0.3367
 4897TIP3    H214656  -0.006   6.221   1.751 -2.0502 -1.7293 -1.2099
 4898TIP3   OH214657   4.769   2.851   4.338  0.2552 -0.2861  0.3185
 4898TIP3    H114658   4.861   2.851   4.364  0.0239  0.0465  1.1563
 4898TIP3    H214659   4.721   2.830   4.418 -0.3180 -2.1919 -0.4695
 4899TIP3   OH214660   5.687   4.818   4.956 -0.0773  0.1536 -0.2571
 4899TIP3    H114661   5.679   4.890   4.892 -3.4379 -1.6914 -2.2024
 4899TIP3    H214662   5.626   4.842   5.026 -3.4115 -1.8214 -2.2384
 4900TIP3   OH214663   5.193   2.708   4.404  0.2379  0.9527  0.0358
 4900TIP3    H114664   5.131   2.636   4.408 -1.1122  2.1069  0.6659
 4900TIP3    H214665   5.278   2.667   4.417 -0.5353 -0.4572  0.8870
 4901TIP3   OH214666   4.768   6.321   2.609 -0.1708 -0.2788  0.4814
 4901TIP3    H114667   4.706   6.314   2.537  2.2123 -1.5973 -1.6190
 4901TIP3    H214668   4.853   6.333   2.567  1.1094  1.1900  3.1870
 4902TIP3   OH214669   4.559   0.828   2.431 -0.6531  0.1258  0.2408
 4902TIP3    H114670   4.587   0.800   2.344 -0.7173  1.9625 -0.4041
 4902TIP3    H214671   4.637   0.816   2.486 -1.1575 -2.9308  0.4698
 4903TIP3   OH214672   6.273  -0.026   4.461 -0.0769  0.4826 -0.1766
 4903TIP3    H114673   6.344   0.037   4.453  0.4735 -0.0647  0.3668
 4903TIP3    H214674   6.213   0.013   4.524  0.6581  0.1093  0.7736
 4904TIP3   OH214675   0.665   0.624   1.450  0.4956 -0.0040  0.0270
 4904TIP3    H114676   0.720   0.695   1.416  1.2435 -0.5831  0.0151
 4904TIP3    H214677   0.725   0.550   1.460  0.1354 -0.1104  1.7841
 4905TIP3   OH214678   3.663   0.057   1.662  0.1790 -0.1953 -0.3583
 4905TIP3    H114679   3.757   0.068   1.646  0.4634 -0.3024  1.1178
 4905TIP3    H214680   3.646  -0.034   1.641  0.3147 -0.0780 -1.0077
 4906TIP3   OH214681   3.637   3.975   1.959 -0.6142 -0.3100  0.5940
 4906TIP3    H114682   3.544   3.953   1.957 -0.8864  0.8293 -0.6426
 4906TIP3    H214683   3.661   3.989   1.867  0.4337  0.7864  1.0051
 4907TIP3   OH214684   0.326   0.195   4.384  0.0613  0.5639  0.5351
 4907TIP3    H114685   0.267   0.223   4.314 -0.0294  1.0126  0.7813
 4907TIP3    H214686   0.365   0.114   4.352  0.2821  0.9434 -0.1772
 4908TIP3   OH214687   5.500   6.543   3.715  0.1324 -0.1949 -0.6233
 4908TIP3    H114688   5.415   6.555   3.672 -0.5533  1.1716  1.0169
 4908TIP3    H214689   5.479   6.510   3.802  1.2394  0.6175 -0.0165
 4909TIP3   OH214690   4.228   5.532   4.813  0.2535 -0.6277 -0.2317
 4909TIP3    H114691   4.246   5.626   4.810 -2.0514 -0.1311 -0.6431
 4909TIP3    H214692   4.161   5.523   4.881  0.5125 -2.0099 -0.1282
 4910TIP3   OH214693   1.833   3.536   1.370 -0.1740  0.0832 -0.3906
 4910TIP3    H114694   1.803   3.595   1.301 -0.7722 -1.5260 -1.5777
 4910TIP3    H214695   1.863   3.458   1.323  3.7519  0.6152  0.8732
 4911TIP3   OH214696   3.806   4.181   0.119  0.3831 -0.3057  0.4081
 4911TIP3    H114697   3.756   4.199   0.039 -0.3881  1.6497  1.2724
 4911TIP3    H214698   3.747   4.128   0.173  1.2355 -2.4092 -0.6025
 4912TIP3   OH214699   1.279   0.078   0.310  0.1502 -0.5068  0.3039
 4912TIP3    H114700   1.357   0.114   0.267  0.3187 -0.7879  0.3732
 4912TIP3    H214701   1.293  -0.017   0.310  1.2356 -0.4376  2.9970
 4913TIP3   OH214702   4.355   2.825   3.160  0.2316  0.1924  0.2927
 4913TIP3    H114703   4.449   2.845   3.157  0.2298  0.2764  0.7976
 4913TIP3    H214704   4.317   2.882   3.093  0.5917 -0.1431 -0.2055
 4914TIP3   OH214705   1.257   1.831   0.167  0.0957 -0.5606  0.1177
 4914TIP3    H114706   1.290   1.918   0.146 -1.1944  0.1998  1.0857
 4914TIP3    H214707   1.262   1.825   0.263  0.0462 -1.5074  0.0786
 4915TIP3   OH214708   4.970   6.193   3.575 -0.0266 -0.5377  0.0856
 4915TIP3    H114709   4.975   6.109   3.620 -1.9910 -1.1736 -0.7710
 4915TIP3    H214710   4.890   6.234   3.608 -0.1366  0.1076 -0.9283
 4916TIP3   OH214711   3.456   5.991   2.738  0.5281  1.0206 -0.2012
 4916TIP3    H114712   3.368   6.025   2.751 -0.7038 -1.4763 -1.4887
 4916TIP3    H214713   3.495   5.993   2.826 -2.0916 -1.1139  1.1508
 4917TIP3   OH214714   2.321   0.561   4.016  0.0069  0.2058 -0.0629
 4917TIP3    H114715   2.349   0.485   3.964 -1.7790 -0.3198 -0.2949
 4917TIP3    H214716   2.232   0.580   3.986 -0.7823  0.3985  2.2501
 4918TIP3   OH214717   1.961   2.848   3.752  0.5679 -0.0125 -0.8989
 4918TIP3    H114718   1.927   2.876   3.667 -0.3589 -1.1103 -0.9080
 4918TIP3    H214719   1.969   2.753   3.745 -0.9027 -0.3081  0.7097
 4919TIP3   OH214720  -0.016   5.108   3.013 -0.3071 -0.1464 -1.0182
 4919TIP3    H114721   0.037   5.095   2.935  0.8163  0.8345 -0.4509
 4919TIP3    H214722   0.048   5.114   3.084 -1.3324 -3.6554  0.4461
 4920TIP3   OH214723   1.533   6.216   1.169 -0.0806 -0.4671 -0.3948
 4920TIP3    H114724   1.504   6.125   1.159  0.7475 -0.6604 -1.1580
 4920TIP3    H214725   1.627   6.209   1.189 -0.2383  0.1871  0.6927
 4921TIP3   OH214726   2.515   1.701   3.775  0.0272  0.2468  0.1803
 4921TIP3    H114727   2.552   1.731   3.692 -0.3416  1.7957  0.5342
 4921TIP3    H214728   2.526   1.606   3.773  2.9579  0.4894 -0.2202
 4922TIP3   OH214729   4.432   5.429   2.997  0.2109  0.1838 -0.2483
 4922TIP3    H114730   4.393   5.443   2.910  1.2533  1.4096 -0.5616
 4922TIP3    H214731   4.442   5.518   3.032  3.9848  0.1112 -0.8011
 4923TIP3   OH214732   3.126   2.375   3.007  0.1256  0.0340 -0.2905
 4923TIP3    H114733   3.213   2.338   2.996 -1.1347 -3.0708 -1.1488
 4923TIP3    H214734   3.102   2.354   3.097  0.5166  1.6237  0.2142
 4924TIP3   OH214735   6.746   5.795   1.331  0.1191 -0.8476  0.2236
 4924TIP3    H114736   6.838   5.771   1.338  0.0885 -1.5339 -1.3841
 4924TIP3    H214737   6.744   5.862   1.262 -0.4503  0.0384  1.0754
 4925TIP3   OH214738   4.780   1.941   3.946 -1.1344  0.3580  0.6145
 4925TIP3    H114739   4.689   1.953   3.976 -0.9887  0.4078  1.0469
 4925TIP3    H214740   4.816   2.030   3.946 -1.9603  0.8062 -2.4927
 4926TIP3   OH214741   2.512   4.480   5.835 -0.4588 -0.1734 -0.3936
 4926TIP3    H114742   2.592   4.513   5.793 -1.1223 -0.0993 -1.6698
 4926TIP3    H214743   2.543   4.425   5.907  0.7501 -0.6369 -1.2338
 4927TIP3   OH214744   7.158   1.322   5.805 -0.5636 -0.4716  0.1837
 4927TIP3    H114745   7.077   1.309   5.854 -0.6943 -0.5928 -0.0649
 4927TIP3    H214746   7.160   1.251   5.741 -0.5661 -0.1157 -0.2187
 4928TIP3   OH214747   3.456   6.510   3.631 -0.3453 -0.4847  0.1139
 4928TIP3    H114748   3.407   6.495   3.713 -0.1752  2.0813  0.7826
 4928TIP3    H214749   3.543   6.538   3.660 -0.3164  0.5754 -0.9149
 4929TIP3   OH214750   0.048   4.264   4.489 -0.0093  0.2059 -0.3833
 4929TIP3    H114751   0.117   4.198   4.484 -1.0176 -1.1787  2.3934
 4929TIP3    H214752  -0.012   4.241   4.418  1.0547 -0.0985 -1.2225
 4930TIP3   OH214753   1.263   1.268   2.333 -0.2205  0.3064 -0.0400
 4930TIP3    H114754   1.270   1.352   2.288 -0.7366 -0.8383 -2.4234
 4930TIP3    H214755   1.169   1.257   2.348 -0.0330  0.8283  1.7371
 4931TIP3   OH214756   7.022   5.701   1.515  0.1224  0.3534 -0.3106
 4931TIP3    H114757   7.060   5.783   1.546  0.6877  0.2090 -0.6097
 4931TIP3    H214758   6.956   5.679   1.580  1.1889  0.1175  0.7158
 4932TIP3   OH214759   5.394   1.534   1.684 -0.7388 -0.3624  0.0414
 4932TIP3    H114760   5.451   1.479   1.736 -1.2707  0.0015  1.0307
 4932TIP3    H214761   5.437   1.540   1.599  0.3795 -0.5785  0.5836
 4933TIP3   OH214762   6.836   1.623   5.126 -0.2967 -0.5368  0.0729
 4933TIP3    H114763   6.855   1.559   5.194  1.9182  1.7511  1.7795
 4933TIP3    H214764   6.906   1.612   5.061  1.5340  1.5105  1.5367
 4934TIP3   OH214765   5.796   4.805   3.520  0.4311 -0.2348 -0.1305
 4934TIP3    H114766   5.832   4.762   3.598 -1.8476  0.1911  1.2671
 4934TIP3    H214767   5.779   4.895   3.548 -0.6194 -0.1229 -1.0433
 4935TIP3   OH214768   4.767   2.467   3.588  0.4993 -0.0318  0.8743
 4935TIP3    H114769   4.758   2.411   3.511 -2.6121  1.9429 -0.4026
 4935TIP3    H214770   4.727   2.417   3.660 -0.5140 -0.2615  0.1785
 4936TIP3   OH214771   1.173   6.210   1.205 -0.4668 -0.2788 -0.1721
 4936TIP3    H114772   1.141   6.181   1.119 -0.6481 -1.7148  0.3530
 4936TIP3    H214773   1.105   6.183   1.266  1.1568 -2.3276  0.8290
 4937TIP3   OH214774   0.265   0.609   0.675 -0.0360 -0.3185  0.4042
 4937TIP3    H114775   0.177   0.575   0.694 -0.0405 -1.5651 -1.5669
 4937TIP3    H214776   0.259   0.703   0.695 -1.5199 -0.5417  1.2036
 4938TIP3   OH214777   6.413   4.565   4.483  0.2314  0.1183  0.3130
 4938TIP3    H114778   6.398   4.608   4.399  2.2505  1.9047  0.7712
 4938TIP3    H214779   6.507   4.545   4.484 -0.0918 -1.5877  1.4043
 4939TIP3   OH214780   6.848   3.960   3.770  0.1823 -0.4853 -0.2450
 4939TIP3    H114781   6.862   4.026   3.703  1.6642 -1.2422 -0.7285
 4939TIP3    H214782   6.847   3.877   3.723  1.7955 -1.0779  0.6654
 4940TIP3   OH214783   2.264   4.744   2.853  0.4014  0.3252  0.2891
 4940TIP3    H114784   2.267   4.731   2.948  2.5124  1.1944  0.3940
 4940TIP3    H214785   2.172   4.762   2.834  0.0224  0.6770  2.2533
 4941TIP3   OH214786   4.354   4.273   3.889 -0.1030 -0.3309  0.1350
 4941TIP3    H114787   4.344   4.183   3.921  2.0077  0.1149  2.3798
 4941TIP3    H214788   4.395   4.263   3.803  0.6361 -1.5349  0.5991
 4942TIP3   OH214789   3.161   3.003   2.979  0.2181 -0.5422 -0.5517
 4942TIP3    H114790   3.072   2.967   2.968 -0.3206  0.5747 -0.0176
 4942TIP3    H214791   3.202   2.944   3.043  0.0606 -1.3881 -1.2112
 4943TIP3   OH214792   4.840   3.123   3.630 -0.4914 -0.4372 -0.2630
 4943TIP3    H114793   4.819   3.142   3.539  0.1355 -2.1486 -0.8022
 4943TIP3    H214794   4.759   3.090   3.668 -0.8502  0.6210 -0.0724
 4944TIP3   OH214795   3.455   2.546   2.571  0.3877 -0.0320  0.1984
 4944TIP3    H114796   3.476   2.620   2.514  0.1267  1.7302  2.2347
 4944TIP3    H214797   3.482   2.469   2.522 -2.2217  1.0725 -3.3846
 4945TIP3   OH214798   1.508   6.229   3.750  0.1655 -0.4002  0.0754
 4945TIP3    H114799   1.554   6.149   3.775  1.4077 -0.3721 -1.9008
 4945TIP3    H214800   1.574   6.298   3.756  0.1225 -0.1555 -1.6515
 4946TIP3   OH214801   5.355   0.018   3.914 -0.4610 -0.5793 -0.2293
 4946TIP3    H114802   5.446   0.010   3.887 -0.4349 -0.8613 -0.0637
 4946TIP3    H214803   5.318   0.085   3.856 -0.0641 -0.2221 -0.0716
 4947TIP3   OH214804   5.178   0.970   0.516 -0.1091 -0.0198  0.1427
 4947TIP3    H114805   5.230   0.890   0.530  0.2896  0.3251  0.6573
 4947TIP3    H214806   5.210   1.004   0.432 -0.4518 -0.5259 -0.2024
 4948TIP3   OH214807   2.589   1.430   3.822 -0.2881  0.0430  0.4935
 4948TIP3    H114808   2.518   1.397   3.767 -0.2944 -1.3070  1.2754
 4948TIP3    H214809   2.558   1.415   3.912 -0.2269  2.0670  0.9083
 4949TIP3   OH214810   2.535   6.718   5.279  0.3188 -0.0159  0.4722
 4949TIP3    H114811   2.579   6.672   5.208 -0.9042 -0.1265 -0.2393
 4949TIP3    H214812   2.546   6.811   5.258 -1.1130 -0.0662 -0.5489
 4950TIP3   OH214813   4.583   0.159   0.347  0.4900 -0.2727  0.3957
 4950TIP3    H114814   4.507   0.209   0.315  0.6132  0.1958  0.8160
 4950TIP3    H214815   4.561   0.068   0.330  0.3377 -0.0644 -0.5670
 4951TIP3   OH214816   6.477   0.963   5.570 -0.3941  0.2600  0.0997
 4951TIP3    H114817   6.543   1.012   5.520  0.9051 -1.5916 -0.1077
 4951TIP3    H214818   6.485   0.997   5.660  2.2194 -1.1700  0.4958
 4952TIP3   OH214819   2.925   3.641   3.350  0.0669 -0.2413  0.0750
 4952TIP3    H114820   2.936   3.594   3.433 -0.1886  1.1867  0.9600
 4952TIP3    H214821   3.009   3.683   3.335 -0.5282  1.3245  0.8285
 4953TIP3   OH214822   1.449   4.992   1.382  0.4100  0.4062  0.2860
 4953TIP3    H114823   1.410   5.001   1.295  0.7354  0.5176  0.1489
 4953TIP3    H214824   1.543   4.990   1.365  0.4602  0.0599  0.6035
 4954TIP3   OH214825   0.614   2.358   3.236 -0.0057  0.6195  0.6002
 4954TIP3    H114826   0.570   2.274   3.225 -4.3389  2.8818 -1.9431
 4954TIP3    H214827   0.662   2.371   3.155  2.4893 -0.1634  1.8534
 4955TIP3   OH214828   4.752   5.850   4.581 -0.6138  0.4083 -0.2698
 4955TIP3    H114829   4.765   5.884   4.669 -0.9524  0.0780 -0.0902
 4955TIP3    H214830   4.685   5.907   4.543 -2.7633 -1.2873  0.7648
 4956TIP3   OH214831   4.155   5.579   1.345 -0.4014  0.1691  0.3691
 4956TIP3    H114832   4.145   5.656   1.401 -1.1674 -0.8323  1.6514
 4956TIP3    H214833   4.118   5.606   1.261 -1.5654  0.8947  1.0924
 4957TIP3   OH214834   3.460   2.240   4.997  0.1226  0.1651  0.0523
 4957TIP3    H114835   3.446   2.211   4.907  0.1881  0.5639 -0.0872
 4957TIP3    H214836   3.548   2.210   5.019  0.9934  1.9611 -0.7743
 4958TIP3   OH214837   4.214   2.495   2.541  0.6031  0.1680 -0.9999
 4958TIP3    H114838   4.200   2.482   2.635 -1.8105  2.4918 -0.9198
 4958TIP3    H214839   4.306   2.520   2.534  0.5035  1.3650  0.9924
 4959TIP3   OH214840   3.864   5.917   2.595 -0.3327  0.0915 -0.2931
 4959TIP3    H114841   3.846   5.897   2.503  0.2623  2.0958 -0.8919
 4959TIP3    H214842   3.934   5.856   2.620 -0.7972 -0.7599 -1.0209
 4960TIP3   OH214843   2.220   3.200   2.535  0.5737 -0.1191  0.1193
 4960TIP3    H114844   2.315   3.191   2.525  0.6510  0.3484  0.3562
 4960TIP3    H214845   2.187   3.210   2.446  0.7508 -0.2777  0.0355
 4961TIP3   OH214846   6.709   3.671   4.546  0.2194  0.5564 -0.1798
 4961TIP3    H114847   6.654   3.665   4.467  0.2885 -1.9019 -0.1200
 4961TIP3    H214848   6.797   3.685   4.512  0.2019 -0.1725 -0.5452
 4962TIP3   OH214849   6.518   2.617   2.620  0.4943 -0.0782 -0.7237
 4962TIP3    H114850   6.451   2.569   2.670  0.4410  1.0298  0.2992
 4962TIP3    H214851   6.600   2.598   2.666  0.2470  2.1977  0.8499
 4963TIP3   OH214852   3.661   6.358   3.962  0.0027  0.2210  0.1081
 4963TIP3    H114853   3.606   6.364   4.039 -0.4191  0.4546 -0.2099
 4963TIP3    H214854   3.643   6.271   3.926 -0.1749  0.3029 -0.0041
 4964TIP3   OH214855   0.692   5.948   3.994  0.0172  0.5481  0.2177
 4964TIP3    H114856   0.715   5.932   3.903 -0.3647 -1.0619  0.3802
 4964TIP3    H214857   0.747   6.022   4.020  0.6261  0.5815 -1.1074
 4965TIP3   OH214858   6.800   0.154   1.121  0.7716  0.5832  0.2721
 4965TIP3    H114859   6.822   0.072   1.077  0.6936 -0.4593  2.0605
 4965TIP3    H214860   6.846   0.150   1.205 -2.2729  0.4987  2.1085
 4966TIP3   OH214861   6.142   5.488   3.778  0.4671 -0.0799  0.0047
 4966TIP3    H114862   6.196   5.445   3.844  1.4683 -1.0268 -1.3659
 4966TIP3    H214863   6.112   5.569   3.819  1.6094 -0.3235  1.3625
 4967TIP3   OH214864   6.957   4.989   3.105  0.5123  0.4910 -0.1966
 4967TIP3    H114865   6.919   5.069   3.141  3.3701  1.4383  1.0034
 4967TIP3    H214866   7.037   5.018   3.062  0.0426 -1.3909 -2.5443
 4968TIP3   OH214867   1.894   0.966   3.918  0.3400 -0.0480  0.3435
 4968TIP3    H114868   1.884   1.042   3.860  2.1474  0.4024  0.5450
 4968TIP3    H214869   1.984   0.974   3.951  0.0668 -1.4930  1.5062
 4969TIP3   OH214870   3.208   2.823   2.474 -0.0371  0.1548 -0.4258
 4969TIP3    H114871   3.227   2.893   2.537  0.4906  1.1395 -1.6413
 4969TIP3    H214872   3.112   2.818   2.473 -0.0561  0.2570  0.3094
 4970TIP3   OH214873   5.921   4.742   3.765  0.5064  0.1354 -0.2608
 4970TIP3    H114874   5.874   4.745   3.848  0.2960 -0.7189 -0.3427
 4970TIP3    H214875   5.959   4.654   3.761  0.9410  0.3426 -0.8317
 4971TIP3   OH214876   4.051   6.404   4.600  0.2095 -0.2178 -0.5759
 4971TIP3    H114877   3.979   6.467   4.605  0.0145 -0.4991  0.5572
 4971TIP3    H214878   4.130   6.457   4.599  0.0137  0.0731 -0.6996
 4972TIP3   OH214879   2.709   2.045   0.066  0.4390 -0.2700 -0.0082
 4972TIP3    H114880   2.698   2.086   0.152  0.9269  0.7429 -0.4123
 4972TIP3    H214881   2.684   2.113   0.004  0.4299 -0.8803 -0.6882
 4973TIP3   OH214882   7.043   4.689   2.046  0.0504  0.2294  0.2163
 4973TIP3    H114883   7.019   4.760   1.986 -2.6818 -0.5476  0.2193
 4973TIP3    H214884   7.029   4.610   1.995  0.6729 -0.3584  0.9507
 4974TIP3   OH214885   7.025   6.070   4.264 -0.2878 -0.1244  0.2989
 4974TIP3    H114886   7.068   6.013   4.328  0.2374  1.1217  1.0976
 4974TIP3    H214887   7.075   6.151   4.266 -0.2521 -0.0423 -1.7287
 4975TIP3   OH214888   2.077   0.852   4.200  0.2635 -0.2748 -0.4018
 4975TIP3    H114889   2.067   0.865   4.294 -3.6212  0.3101 -0.7498
 4975TIP3    H214890   2.114   0.935   4.168 -2.7099  1.3901  0.1716
 4976TIP3   OH214891   5.957   4.380   1.163  0.3632  0.7123  0.5606
 4976TIP3    H114892   5.998   4.433   1.094 -1.5484 -0.2697 -1.4598
 4976TIP3    H214893   6.025   4.318   1.189  0.8612  0.4830 -1.1694
 4977TIP3   OH214894   3.512   2.755   1.019 -0.0379  0.2389 -0.0059
 4977TIP3    H114895   3.578   2.784   0.955  0.0041  1.0168  0.3778
 4977TIP3    H214896   3.472   2.836   1.050  1.2313  0.0330  2.3249
 4978TIP3   OH214897   1.737   1.975   4.876  0.6208  0.8436  0.1412
 4978TIP3    H114898   1.769   2.051   4.827  0.7949 -0.3345 -1.6443
 4978TIP3    H214899   1.643   1.972   4.857  0.3479  1.3706  1.3116
 4979TIP3   OH214900   5.706   5.257   4.711  0.0650 -0.0632  0.2104
 4979TIP3    H114901   5.624   5.214   4.736 -0.7434 -0.1685 -2.3488
 4979TIP3    H214902   5.695   5.348   4.740 -0.5585 -0.2926  0.7153
 4980TIP3   OH214903   3.935   0.126   2.875  0.1036  0.0887  0.1570
 4980TIP3    H114904   3.991   0.053   2.902  0.9544  0.6045 -0.1676
 4980TIP3    H214905   3.922   0.114   2.781  1.6451  1.2314 -0.2569
 4981TIP3   OH214906   5.130   5.432   5.106 -0.1127 -0.3970 -0.0387
 4981TIP3    H114907   5.048   5.480   5.103 -0.7059 -1.4166 -2.2588
 4981TIP3    H214908   5.197   5.496   5.081 -0.4810  0.0103  0.0183
 4982TIP3   OH214909   5.444   3.344   4.186  0.2148 -0.1199 -0.2017
 4982TIP3    H114910   5.519   3.309   4.234  0.4477  2.3533  1.4322
 4982TIP3    H214911   5.374   3.346   4.251 -1.1884 -1.8407 -1.5457
 4983TIP3   OH214912   3.732   4.487   3.044  0.2302 -0.2907  0.2642
 4983TIP3    H114913   3.692   4.416   2.995  0.4933 -0.1297 -0.1884
 4983TIP3    H214914   3.739   4.453   3.133 -1.2209 -0.1916  0.4432
 4984TIP3   OH214915   1.067   1.511   2.929 -0.1156 -0.2702 -0.0757
 4984TIP3    H114916   1.012   1.439   2.896  0.2657 -0.4906 -0.2342
 4984TIP3    H214917   1.156   1.486   2.904 -0.0727  0.7018 -0.9436
 4985TIP3   OH214918   0.708   5.714   2.797 -0.2022 -0.1678  1.1357
 4985TIP3    H114919   0.794   5.677   2.814 -0.1018 -0.4923 -0.0488
 4985TIP3    H214920   0.710   5.800   2.840  2.3697  1.8620 -2.5704
 4986TIP3   OH214921   1.832   2.553   1.620 -0.1510  0.1502 -0.3977
 4986TIP3    H114922   1.837   2.471   1.668 -0.6997 -0.5016 -1.4214
 4986TIP3    H214923   1.763   2.539   1.555  0.3695  1.1112 -1.1850
 4987TIP3   OH214924   6.458   5.156   0.618 -0.0032  0.1026  0.2703
 4987TIP3    H114925   6.508   5.236   0.627  1.4178 -0.4561 -1.8964
 4987TIP3    H214926   6.515   5.096   0.569 -1.9288 -1.3505 -0.3686
 4988TIP3   OH214927   5.074   4.945   1.293 -0.0710  0.1648  0.3298
 4988TIP3    H114928   5.015   4.926   1.220 -1.3305  0.9354  1.1125
 4988TIP3    H214929   5.052   5.034   1.320  1.5505  0.5296  0.5946
 4989TIP3   OH214930   1.366   6.654   5.246 -0.1466 -0.4677  0.2037
 4989TIP3    H114931   1.433   6.595   5.278  0.9930  1.4376  1.5534
 4989TIP3    H214932   1.357   6.633   5.153  2.0845 -1.0221  0.0687
 4990TIP3   OH214933   0.630   1.755   2.641 -0.5068  0.3193  0.8779
 4990TIP3    H114934   0.536   1.744   2.630 -0.6565 -1.8513  3.3989
 4990TIP3    H214935   0.669   1.685   2.588 -0.4291 -0.0819  1.4601
 4991TIP3   OH214936   1.862   0.235   0.835  0.4989 -0.0516 -0.1734
 4991TIP3    H114937   1.802   0.293   0.787  0.8338  2.3438  2.0826
 4991TIP3    H214938   1.838   0.247   0.927  0.6247 -3.6010  0.4499
 4992TIP3   OH214939   1.410   6.580   5.747 -0.2253  0.6786 -0.0734
 4992TIP3    H114940   1.371   6.503   5.788  0.3354 -0.7996 -2.1637
 4992TIP3    H214941   1.504   6.569   5.760 -0.0139  0.0508 -1.8362
 4993TIP3   OH214942   3.668   1.515   5.233 -0.4695 -0.7579  0.0650
 4993TIP3    H114943   3.685   1.518   5.327 -0.3886 -0.2233  0.0377
 4993TIP3    H214944   3.574   1.498   5.226 -0.5216 -0.5404  0.2414
 4994TIP3   OH214945   6.958   1.299   2.290 -0.4645 -0.4180 -0.4261
 4994TIP3    H114946   6.963   1.385   2.332 -0.7815 -0.5201 -0.1697
 4994TIP3    H214947   6.864   1.285   2.278 -0.3520 -0.0677 -1.8432
 4995TIP3   OH214948   3.459   4.527   1.518 -0.0039  0.1556  0.3196
 4995TIP3    H114949   3.531   4.566   1.568 -1.0557  1.6943  0.7326
 4995TIP3    H214950   3.409   4.478   1.583  0.3403 -0.4162  0.1534
 4996TIP3   OH214951   5.553   6.027   2.898 -0.1587 -0.4504  0.4259
 4996TIP3    H114952   5.515   6.017   2.986 -0.9707  0.8295  0.2418
 4996TIP3    H214953   5.533   5.945   2.854  1.1103 -1.5213  1.7219
 4997TIP3   OH214954   4.698   4.563   5.714 -0.4019 -0.1265 -0.0967
 4997TIP3    H114955   4.634   4.621   5.756  0.6483 -0.2069  1.7167
 4997TIP3    H214956   4.688   4.580   5.620 -2.9192  0.0144  0.1278
 4998TIP3   OH214957   4.007   3.234   0.651 -0.0850  0.3664  0.1353
 4998TIP3    H114958   3.913   3.223   0.663  0.1859 -0.8868  1.5599
 4998TIP3    H214959   4.017   3.316   0.603 -1.9345  0.0124 -0.9401
 4999TIP3   OH214960   3.426   2.568   3.229 -0.1606  0.4825 -0.5057
 4999TIP3    H114961   3.431   2.473   3.245 -0.2866  0.3975 -0.9357
 4999TIP3    H214962   3.345   2.595   3.271  0.3773  0.5879  0.4883
 5000TIP3   OH214963   0.424   6.466   5.073 -0.2940 -0.0933  0.0379
 5000TIP3    H114964   0.395   6.400   5.136 -1.6744  0.3701 -0.0780
 5000TIP3    H214965   0.488   6.421   5.019 -1.4713 -1.4777 -0.2773
 5001TIP3   OH214966   1.558   0.747   5.405 -0.1730  0.0485 -0.2052
 5001TIP3    H114967   1.646   0.714   5.384  1.4093  0.6922  4.2207
 5001TIP3    H214968   1.564   0.842   5.392 -0.2883  0.0650 -0.1398
 5002TIP3   OH214969   0.019   0.349   4.710 -0.0822 -0.5708  0.4865
 5002TIP3    H114970   0.069   0.404   4.650 -0.3183 -0.4498  0.3958
 5002TIP3    H214971   0.075   0.338   4.786 -0.3250  0.4304  0.8264
 5003TIP3   OH214972   6.610   2.245   4.166  0.0498  0.1600 -0.1186
 5003TIP3    H114973   6.648   2.199   4.241  0.1577  0.2585 -0.1138
 5003TIP3    H214974   6.675   2.237   4.097  0.3986  0.9556  0.1108
 5004TIP3   OH214975   7.142   1.004   2.754  0.9224  0.9612  0.4694
 5004TIP3    H114976   7.056   1.015   2.795  0.1224 -0.2893 -0.7920
 5004TIP3    H214977   7.189   1.085   2.774 -0.8025  1.9623  0.6053
 5005TIP3   OH214978   4.660   0.781   1.508  0.0603  0.1031  0.1274
 5005TIP3    H114979   4.697   0.816   1.428  0.8545 -0.1397  0.3841
 5005TIP3    H214980   4.687   0.689   1.510 -2.3486 -0.7043 -0.7535
 5006TIP3   OH214981   5.427   6.182   3.547 -0.4240 -0.1615  0.3129
 5006TIP3    H114982   5.518   6.200   3.570 -0.1348  0.1917 -0.9990
 5006TIP3    H214983   5.401   6.258   3.495 -1.7440  0.1392  1.3804
 5007TIP3   OH214984   4.617   4.490   3.303  0.0391 -0.5778 -0.1987
 5007TIP3    H114985   4.673   4.512   3.377 -0.5307 -0.5426  0.2216
 5007TIP3    H214986   4.587   4.575   3.270  0.0041 -0.6106 -0.2509
 5008TIP3   OH214987   1.036   2.218   0.771 -0.6628  0.5588  0.1394
 5008TIP3    H114988   0.963   2.156   0.776 -0.5305  0.4056  0.1577
 5008TIP3    H214989   1.114   2.163   0.769 -0.6121  0.6398 -1.7646
 5009TIP3   OH214990   4.183   6.276   3.045 -0.1992 -0.4289  0.4326
 5009TIP3    H114991   4.203   6.279   3.138 -3.2421  2.2130  1.1986
 5009TIP3    H214992   4.117   6.207   3.037 -0.8603  0.1841  0.5017
 5010TIP3   OH214993   0.434   0.434   4.543 -0.2961  0.0846 -0.2865
 5010TIP3    H114994   0.344   0.464   4.557  0.0605  0.9682  0.1604
 5010TIP3    H214995   0.426   0.368   4.474 -1.4199 -0.6056  0.4613
 5011TIP3   OH214996   2.745   0.621   4.980 -0.2175  0.6978 -0.4575
 5011TIP3    H114997   2.715   0.546   5.032  0.4570 -0.2040 -1.3101
 5011TIP3    H214998   2.840   0.620   4.990 -0.2902  2.5391  0.9224
 5012TIP3   OH214999   3.748   6.344   1.787 -0.2701 -0.0302  0.4993
 5012TIP3    H115000   3.791   6.386   1.712 -0.9360  0.4609  0.3856
 5012TIP3    H215001   3.713   6.416   1.838  0.0154 -0.3744  1.1924
 5013TIP3   OH215002   5.536   5.059   5.616 -0.2496  0.7743 -0.5217
 5013TIP3    H115003   5.610   5.011   5.654  0.3106  0.8182 -1.5429
 5013TIP3    H215004   5.468   4.993   5.605 -0.2222  0.6484  0.0321
 5014TIP3   OH215005   2.648   4.993   2.800  0.0096  0.3137 -0.0669
 5014TIP3    H115006   2.621   4.903   2.818  0.0560  0.4875  0.9341
 5014TIP3    H215007   2.743   4.989   2.796 -0.0327  0.0568 -1.6068
 5015TIP3   OH215008   5.707   1.285   1.563 -0.6559 -0.3791 -0.3181
 5015TIP3    H115009   5.743   1.360   1.517 -1.2632 -0.0816 -0.3205
 5015TIP3    H215010   5.716   1.212   1.501 -0.2923 -0.2554 -0.4102
 5016TIP3   OH215011   0.334   6.047   4.583 -0.6453 -0.3723  0.7286
 5016TIP3    H115012   0.273   6.114   4.616 -0.2430  0.2924  0.1533
 5016TIP3    H215013   0.409   6.097   4.550 -0.8153 -1.0163 -0.7422
 5017TIP3   OH215014   1.078   4.193   1.601 -0.3096  0.2671  0.2620
 5017TIP3    H115015   1.154   4.192   1.659 -1.9253 -3.4635  2.7103
 5017TIP3    H215016   1.010   4.238   1.650 -1.0652 -0.9539  0.3855
 5018TIP3   OH215017   1.208   6.652   2.205 -0.2317  0.0060  0.1788
 5018TIP3    H115018   1.176   6.715   2.270  2.1733  1.9285 -0.3368
 5018TIP3    H215019   1.130   6.624   2.158 -1.5726  1.4975  1.3999
 5019TIP3   OH215020   2.741   1.645   1.767  0.7519 -0.5169 -0.1342
 5019TIP3    H115021   2.652   1.678   1.780  1.4488  0.7305  2.0282
 5019TIP3    H215022   2.796   1.723   1.771  1.9121 -1.1309 -2.5280
 5020TIP3   OH215023   6.468   2.773   0.115 -0.0719 -0.9098  0.4213
 5020TIP3    H115024   6.472   2.862   0.152  0.9339 -0.9273  0.3732
 5020TIP3    H215025   6.501   2.717   0.185  0.1803 -1.1423  0.1152
 5021TIP3   OH215026   2.395   0.332   3.628  0.5258  0.4901  0.4219
 5021TIP3    H115027   2.323   0.381   3.589 -0.3374 -1.4147 -0.4989
 5021TIP3    H215028   2.439   0.290   3.554 -0.5108 -2.3814  1.3066
 5022TIP3   OH215029   5.813   0.070   4.432  0.2870 -0.4567  0.3217
 5022TIP3    H115030   5.824  -0.023   4.451  0.6340  0.0346  2.9469
 5022TIP3    H215031   5.890   0.093   4.380  1.5320 -1.1748  1.7607
 5023TIP3   OH215032   6.628   6.178   2.577  0.0024 -0.0127 -0.4672
 5023TIP3    H115033   6.635   6.223   2.493 -1.3140  0.2459 -0.4555
 5023TIP3    H215034   6.561   6.111   2.564 -1.4458  1.1120  0.8011
 5024TIP3   OH215035   5.314   4.773   1.309 -0.1344 -0.1967 -0.5543
 5024TIP3    H115036   5.228   4.815   1.311 -0.6750 -1.2348  1.7918
 5024TIP3    H215037   5.296   4.684   1.278  0.1402 -0.3108 -0.3933
 5025TIP3   OH215038   6.916   3.838   2.377  0.0842  0.0776 -0.1786
 5025TIP3    H115039   6.874   3.866   2.295 -0.3879  0.4401  0.1784
 5025TIP3    H215040   6.962   3.757   2.354  0.6379  0.6122 -0.9937
 5026TIP3   OH215041   7.067   2.409   2.935  0.0625  0.0322 -0.2601
 5026TIP3    H115042   7.114   2.431   2.854 -0.8088  0.6602 -0.6141
 5026TIP3    H215043   7.110   2.462   3.002 -1.3698  2.2021 -0.9285
 5027TIP3   OH215044   6.350   4.421   0.407 -0.1005  0.1649  0.3376
 5027TIP3    H115045   6.348   4.451   0.317 -0.0055 -0.7219  0.0293
 5027TIP3    H215046   6.267   4.452   0.445 -1.1248 -1.2328 -0.6557
 5028TIP3   OH215047   3.367   0.843   5.301 -0.4866 -0.5815 -0.4131
 5028TIP3    H115048   3.430   0.793   5.352  0.4326 -1.0779 -1.9703
 5028TIP3    H215049   3.347   0.919   5.356  0.6823 -0.9313  0.5430
 5029TIP3   OH215050   0.362   4.612   2.686 -0.6969 -0.3033 -0.0168
 5029TIP3    H115051   0.446   4.584   2.725 -1.5056 -0.9201  1.3575
 5029TIP3    H215052   0.336   4.688   2.738  0.4201  1.8010 -2.3524
 5030TIP3   OH215053   2.740   4.485   3.028 -0.7351  0.3857  0.2096
 5030TIP3    H115054   2.725   4.391   3.017  0.1169 -0.0287  2.1564
 5030TIP3    H215055   2.721   4.523   2.942  1.3023 -1.8677 -1.3337
 5031TIP3   OH215056   4.552   1.552   0.760  0.3891  0.0937  0.3876
 5031TIP3    H115057   4.612   1.594   0.821  0.4120  0.1202  0.3468
 5031TIP3    H215058   4.608   1.504   0.700  0.4580  1.1985 -0.4760
 5032TIP3   OH215059   6.008   4.019   3.466  0.3895  0.2917 -0.3077
 5032TIP3    H115060   6.044   4.079   3.401 -1.8990 -1.1356 -3.0533
 5032TIP3    H215061   6.066   3.943   3.463 -0.9387 -0.7063 -2.4347
 5033TIP3   OH215062   4.931   4.141   5.263 -0.5365 -0.3733 -0.1691
 5033TIP3    H115063   4.963   4.098   5.184  1.2930 -1.3790  1.0446
 5033TIP3    H215064   4.912   4.231   5.237  3.2058  0.2887 -1.0901
 5034TIP3   OH215065   1.542   1.148   0.912  0.0775  0.2172  0.1714
 5034TIP3    H115066   1.534   1.094   0.991 -2.0649  1.7755  1.1365
 5034TIP3    H215067   1.470   1.120   0.856  1.6993 -1.0118 -1.4214
 5035TIP3   OH215068   4.419   3.063   4.175 -0.2966 -0.1526 -0.3432
 5035TIP3    H115069   4.350   2.997   4.187 -0.5363  0.3193  1.1282
 5035TIP3    H215070   4.371   3.146   4.170  0.0803  0.0365 -0.7721
 5036TIP3   OH215071   1.222   2.537   3.427  0.7637 -0.0092 -0.2794
 5036TIP3    H115072   1.301   2.498   3.390  2.5891  2.6779  0.5009
 5036TIP3    H215073   1.187   2.592   3.356  0.9323  0.5723  0.0747
 5037TIP3   OH215074   3.994   0.114   4.063  0.0556 -0.2843  0.0935
 5037TIP3    H115075   4.036   0.088   3.981 -0.2118 -0.2266 -0.0637
 5037TIP3    H215076   3.932   0.043   4.081 -0.8745  0.3588 -0.4762
 5038TIP3   OH215077   5.043   3.363   3.020 -0.5184 -0.3075 -0.0348
 5038TIP3    H115078   5.022   3.276   3.056 -0.2779 -0.8549 -1.1756
 5038TIP3    H215079   5.137   3.361   3.007 -0.2421  0.7561  1.4780
 5039TIP3   OH215080   6.243   2.616   1.711  0.1837  0.6919 -0.1853
 5039TIP3    H115081   6.270   2.685   1.772 -1.0961  1.6287 -0.6340
 5039TIP3    H215082   6.181   2.563   1.761 -0.1779  0.9259 -0.3801
 5040TIP3   OH215083   3.096   4.712   5.369 -0.4752 -0.3750  0.6042
 5040TIP3    H115084   3.006   4.715   5.337 -0.5763  0.0329  0.9208
 5040TIP3    H215085   3.139   4.647   5.313 -0.9457 -0.5198  0.4051
 5041TIP3   OH215086   5.939   1.467   0.268 -0.1097  0.3720 -0.1477
 5041TIP3    H115087   5.911   1.540   0.214  0.5673  1.6059  1.0980
 5041TIP3    H215088   5.858   1.428   0.300 -0.4765  1.0659 -0.2190
 5042TIP3   OH215089   3.168   3.196   2.308  0.0753 -0.2438  0.6441
 5042TIP3    H115090   3.097   3.185   2.371  0.2621 -2.6297  0.5160
 5042TIP3    H215091   3.233   3.130   2.333  1.4098  0.6249 -0.3916
 5043TIP3   OH215092   6.253   0.685   5.487 -0.3657 -0.2133 -0.4390
 5043TIP3    H115093   6.299   0.722   5.412  0.2481 -0.6603 -0.2853
 5043TIP3    H215094   6.309   0.614   5.518 -1.1034 -0.7072 -0.1895
 5044TIP3   OH215095   1.035   1.165   2.724  0.2178 -0.0913  0.0462
 5044TIP3    H115096   1.039   1.107   2.648 -0.7722  1.0743 -0.9243
 5044TIP3    H215097   1.127   1.184   2.744  0.4995  1.6962 -2.5454
 5045TIP3   OH215098   5.448   3.364   5.315  0.0333  0.3429  0.2948
 5045TIP3    H115099   5.488   3.354   5.401  0.7690 -4.1404 -0.3226
 5045TIP3    H215100   5.517   3.401   5.260 -0.0230  1.9654  1.2431
 5046TIP3   OH215101   4.672   4.533   0.592  0.7069  0.6545  0.8492
 5046TIP3    H115102   4.589   4.573   0.618 -0.4701 -0.6212 -0.7553
 5046TIP3    H215103   4.675   4.450   0.639  0.6428  0.3134  0.2677
 5047TIP3   OH215104   7.105   1.023   1.684  1.0820 -0.2728 -0.2824
 5047TIP3    H115105   7.093   0.942   1.635 -1.1986 -0.1913  0.0726
 5047TIP3    H215106   7.051   1.087   1.639  0.3926  0.2620  1.2479
 5048TIP3   OH215107   3.022   2.237   1.629 -0.2114  0.1120  0.6167
 5048TIP3    H115108   2.954   2.261   1.565 -0.2901  0.1279  0.7057
 5048TIP3    H215109   3.102   2.230   1.577 -0.4222 -0.6468  0.3785
 5049TIP3   OH215110   3.010   5.629   3.724 -0.0120  0.4856 -0.3986
 5049TIP3    H115111   2.960   5.702   3.688  2.3661  1.6197 -1.6301
 5049TIP3    H215112   3.023   5.650   3.816  1.5728  2.2560 -0.9704
 5050TIP3   OH215113   0.783   5.998   1.793 -0.5570 -0.0935  0.5078
 5050TIP3    H115114   0.810   5.925   1.849 -2.6244 -0.7922  0.7091
 5050TIP3    H215115   0.802   6.077   1.843 -1.3618 -0.6633  1.7573
 5051TIP3   OH215116   1.688   5.427   1.923 -0.4888 -0.1298  0.0330
 5051TIP3    H115117   1.775   5.447   1.959 -0.1896 -1.1929 -0.0766
 5051TIP3    H215118   1.686   5.471   1.839  1.2512 -2.7248 -1.5141
 5052TIP3   OH215119   7.097   5.249   4.489  0.6273 -0.5709 -0.3924
 5052TIP3    H115120   7.163   5.314   4.511  0.4122 -0.3743 -0.3191
 5052TIP3    H215121   7.018   5.278   4.535  0.2775 -0.3734 -1.1053
 5053TIP3   OH215122   5.778   1.685   5.335  0.2227  0.6573  0.3209
 5053TIP3    H115123   5.714   1.623   5.301  0.8492  0.4029 -0.4156
 5053TIP3    H215124   5.739   1.718   5.416 -0.3909 -0.2309  0.3960
 5054TIP3   OH215125   0.012   1.072   0.475  0.1334 -0.1358 -0.1776
 5054TIP3    H115126   0.060   1.059   0.393  0.9829  1.4855  0.0098
 5054TIP3    H215127   0.028   0.992   0.525  1.1993 -0.3631 -0.8392
 5055TIP3   OH215128   3.925   2.061   4.436 -0.4208  0.1179  0.5335
 5055TIP3    H115129   3.923   2.156   4.425 -1.3815  0.1040  0.5177
 5055TIP3    H215130   3.941   2.027   4.348  1.2244  0.2912  0.7417
 5056TIP3   OH215131   3.029   4.395   1.064 -0.4208 -0.1593 -0.0418
 5056TIP3    H115132   3.119   4.428   1.064  0.0067 -1.2585  1.2176
 5056TIP3    H215133   2.990   4.433   0.985 -0.4465  4.4767  1.8767
 5057TIP3   OH215134   3.736   0.096   0.980  0.3556  0.2289  0.0619
 5057TIP3    H115135   3.649   0.126   1.006  0.3148 -0.5781  0.8973
 5057TIP3    H215136   3.731   0.088   0.884 -0.2896  0.7676  0.0405
 5058TIP3   OH215137   6.170   5.808   0.084  0.1899 -0.4049 -0.0985
 5058TIP3    H115138   6.076   5.817   0.067  0.2071  0.0504  0.0232
 5058TIP3    H215139   6.212   5.827   0.000  0.1877 -0.2121 -0.0571
 5059TIP3   OH215140   3.527   3.024   2.702  0.0668 -0.0230  0.0074
 5059TIP3    H115141   3.534   2.948   2.759  1.2947  0.0927  0.0429
 5059TIP3    H215142   3.563   3.096   2.754  0.0060  0.3430 -0.4488
 5060TIP3   OH215143   1.220   6.624   5.526 -0.3075  0.3929  0.1516
 5060TIP3    H115144   1.245   6.594   5.613 -0.6369  0.3078  0.2173
 5060TIP3    H215145   1.290   6.684   5.500  1.0748 -1.4531 -0.5499
 5061TIP3   OH215146   1.770   3.688   5.330 -0.1348 -0.6605  0.2444
 5061TIP3    H115147   1.708   3.748   5.372  1.7308  0.1101  2.0695
 5061TIP3    H215148   1.778   3.615   5.392  1.0600 -0.5344  0.2723
 5062TIP3   OH215149   3.954   1.463   4.259 -0.8940  0.1271  0.6973
 5062TIP3    H115150   3.895   1.501   4.324 -0.0430  0.3930  1.3285
 5062TIP3    H215151   4.020   1.418   4.311 -1.3249 -1.3973 -0.0242
 5063TIP3   OH215152   3.210   5.558   2.266  0.0811 -0.3068 -0.7717
 5063TIP3    H115153   3.197   5.543   2.172 -3.2306  1.0192 -0.6519
 5063TIP3    H215154   3.204   5.653   2.276  0.5857 -0.4221  0.8025
 5064TIP3   OH215155   0.094   1.640   1.341  0.2073 -0.2902  0.0999
 5064TIP3    H115156   0.103   1.727   1.379  0.2205 -0.4165  0.3890
 5064TIP3    H215157   0.055   1.587   1.410 -1.5851 -0.0704 -0.7020
 5065TIP3   OH215158   0.435   6.481   2.370  0.4615  0.3372 -0.4292
 5065TIP3    H115159   0.464   6.465   2.460 -0.2343 -4.1714 -0.7777
 5065TIP3    H215160   0.509   6.452   2.316  0.5615  2.2401 -1.3832
 5066TIP3   OH215161   5.415   0.174   1.840 -0.2590 -0.0451 -0.0191
 5066TIP3    H115162   5.372   0.257   1.819 -2.0993 -0.8603  0.3434
 5066TIP3    H215163   5.427   0.176   1.935 -1.4947 -0.7052  0.1687
 5067TIP3   OH215164   3.462   4.086   5.809  0.0116  0.5510 -0.3601
 5067TIP3    H115165   3.467   4.028   5.885 -1.5331 -0.3663 -0.9057
 5067TIP3    H215166   3.408   4.160   5.839 -1.8243 -0.4957 -0.9057
 5068TIP3   OH215167   2.813   3.606   0.600 -0.8489 -0.0977 -0.1539
 5068TIP3    H115168   2.905   3.626   0.616 -1.2070  0.9970  0.6821
 5068TIP3    H215169   2.775   3.600   0.687 -1.6851  0.0196 -0.5057
 5069TIP3   OH215170   0.375   6.323   2.903  0.3115 -0.2784  0.4198
 5069TIP3    H115171   0.307   6.377   2.941 -0.8863 -1.7032  0.3973
 5069TIP3    H215172   0.376   6.244   2.957  3.4518  0.5116  1.7611
 5070TIP3   OH215173   5.856   5.549   2.422 -0.1980  0.3670 -0.1077
 5070TIP3    H115174   5.781   5.563   2.364  0.7884 -0.2202 -1.5838
 5070TIP3    H215175   5.860   5.454   2.433  0.6270  0.3542 -0.4702
 5071TIP3   OH215176   2.405   0.950   1.876  0.3758  0.0392 -0.7063
 5071TIP3    H115177   2.323   0.936   1.924  1.3821  0.3223  1.1662
 5071TIP3    H215178   2.450   0.866   1.880  1.7360  0.8053  1.4111
 5072TIP3   OH215179   2.313   3.794   3.271 -0.2224 -0.3181 -0.1537
 5072TIP3    H115180   2.356   3.729   3.327  1.9857  0.6953 -0.5764
 5072TIP3    H215181   2.351   3.878   3.297  0.1782  0.3072 -2.5004
 5073TIP3   OH215182   6.013   4.824   4.094  0.2046 -0.1177 -1.1137
 5073TIP3    H115183   5.974   4.737   4.095 -0.6488  0.2422 -1.3203
 5073TIP3    H215184   5.953   4.877   4.148  1.9679 -0.1518  1.0093
 5074TIP3   OH215185   6.923   5.519   5.623 -0.8646  0.3844 -0.1152
 5074TIP3    H115186   6.966   5.444   5.665 -0.9379  0.3019 -0.1873
 5074TIP3    H215187   6.855   5.545   5.685 -1.3479 -0.0951 -0.4328
 5075TIP3   OH215188   0.077   4.772   3.090 -0.2173 -0.3536 -0.3168
 5075TIP3    H115189   0.037   4.690   3.119  0.4940 -0.5729  0.0964
 5075TIP3    H215190   0.024   4.840   3.131 -0.8794 -0.5974 -0.7482
 5076TIP3   OH215191   3.899   3.562   4.369  0.0863  0.0010  0.0241
 5076TIP3    H115192   3.843   3.578   4.292  2.2366  0.2148 -1.5756
 5076TIP3    H215193   3.870   3.476   4.401  0.0337 -0.7437 -1.8751
 5077TIP3   OH215194   2.542   1.756   0.547  0.6398  0.1804 -0.3758
 5077TIP3    H115195   2.584   1.757   0.461 -0.1452 -2.3719 -0.8947
 5077TIP3    H215196   2.449   1.747   0.529  0.4268 -0.0398  0.7331
 5078TIP3   OH215197   6.132   5.499   4.225  0.0365 -0.1389  0.0950
 5078TIP3    H115198   6.207   5.557   4.226 -0.9542  1.1724  0.9864
 5078TIP3    H215199   6.094   5.507   4.312 -0.7894 -1.2454 -0.1394
 5079TIP3   OH215200   5.160   1.274   3.008  0.2475  0.1407  0.7959
 5079TIP3    H115201   5.090   1.326   2.968  0.6682  1.9949  2.3197
 5079TIP3    H215202   5.213   1.338   3.056  2.7177 -1.2621  0.1201
 5080TIP3   OH215203   6.404   4.128   5.395 -0.4914  0.1948  0.3031
 5080TIP3    H115204   6.438   4.091   5.476 -0.9163 -0.2053  0.3052
 5080TIP3    H215205   6.409   4.057   5.332  2.3355  1.2120 -0.7992
 5081TIP3   OH215206   2.479   1.492   4.901 -0.2793 -0.0335 -0.3531
 5081TIP3    H115207   2.510   1.424   4.960 -1.4871 -1.6523 -1.4894
 5081TIP3    H215208   2.556   1.545   4.881  0.5848 -0.7669  0.9538
 5082TIP3   OH215209   0.809   4.754   4.925 -0.0368 -0.4495 -0.5223
 5082TIP3    H115210   0.809   4.659   4.912 -1.9390 -0.4713 -0.6696
 5082TIP3    H215211   0.860   4.767   5.005 -0.3755 -1.6781 -0.0776
 5083TIP3   OH215212   5.171   1.797   2.746  0.2929  0.0477  0.4912
 5083TIP3    H115213   5.116   1.843   2.684 -1.7331 -2.1705  0.5089
 5083TIP3    H215214   5.210   1.725   2.695 -0.2070 -0.8975  1.4019
 5084TIP3   OH215215   0.218   0.878   2.483  0.2603  0.2219 -0.6457
 5084TIP3    H115216   0.186   0.818   2.551  0.2430  0.0627 -0.7927
 5084TIP3    H215217   0.179   0.962   2.504 -0.0134  0.0967 -0.6500
 5085TIP3   OH215218   4.495   0.042   4.106 -0.0073  0.2722 -0.2191
 5085TIP3    H115219   4.561   0.092   4.058 -0.0202 -0.9384 -1.5494
 5085TIP3    H215220   4.538  -0.041   4.126 -0.8164 -0.1725 -0.2766
 5086TIP3   OH215221   5.438   6.150   3.211 -0.1314 -0.4995 -0.4151
 5086TIP3    H115222   5.382   6.121   3.138  0.7203 -1.4302 -0.7086
 5086TIP3    H215223   5.447   6.073   3.267 -1.4218  0.4109  1.1450
 5087TIP3   OH215224   2.782   3.519   2.065  0.0635  0.0954 -0.6361
 5087TIP3    H115225   2.817   3.602   2.095 -0.1140 -0.2819  0.6938
 5087TIP3    H215226   2.858   3.460   2.061  0.0523  0.0861 -0.7239
 5088TIP3   OH215227   4.464   3.585   3.785 -0.8193  0.0453 -0.8023
 5088TIP3    H115228   4.412   3.607   3.862 -0.5805  0.6659 -0.8064
 5088TIP3    H215229   4.548   3.555   3.821 -0.4258  1.0691 -0.8101
 5089TIP3   OH215230   6.333   2.622   2.383 -0.1118  0.4040 -0.3386
 5089TIP3    H115231   6.263   2.590   2.439  0.2916  1.1683  0.6338
 5089TIP3    H215232   6.403   2.647   2.444 -0.0396  2.1975 -1.1106
 5090TIP3   OH215233   6.592   2.297   3.234 -0.3685  0.0644 -0.7014
 5090TIP3    H115234   6.555   2.261   3.315 -0.9164  2.0767 -0.0040
 5090TIP3    H215235   6.622   2.220   3.185  0.3928 -1.2031  1.5975
 5091TIP3   OH215236   5.647   0.115   0.535 -0.1356  0.3714  0.5388
 5091TIP3    H115237   5.589   0.042   0.513  1.6256 -0.1661 -3.1965
 5091TIP3    H215238   5.598   0.193   0.510 -0.7355  0.2136  1.2221
 5092TIP3   OH215239   0.536   0.982   3.433 -0.3064  0.4178 -0.2692
 5092TIP3    H115240   0.537   0.899   3.480 -0.0371  0.9083  0.6070
 5092TIP3    H215241   0.591   0.968   3.356  1.1568  0.2927  0.7670
 5093TIP3   OH215242   2.789   1.100   5.208 -0.3687 -0.3313 -0.3545
 5093TIP3    H115243   2.753   1.146   5.283  2.0951 -1.3268  1.5807
 5093TIP3    H215244   2.749   1.013   5.211 -0.7410 -0.1680 -0.5777
 5094TIP3   OH215245   6.434   6.388   1.784 -0.8489 -0.8399 -0.0459
 5094TIP3    H115246   6.512   6.408   1.732 -0.1967 -0.2341  1.1369
 5094TIP3    H215247   6.376   6.462   1.769  0.1452  0.3390  1.5860
 5095TIP3   OH215248   3.877   0.046   3.129 -0.2602  0.2835 -0.2164
 5095TIP3    H115249   3.814   0.110   3.161  0.1470 -0.1022  1.4943
 5095TIP3    H215250   3.896   0.073   3.040 -1.3600  1.5488 -0.1031
 5096TIP3   OH215251   1.687   1.059   0.182 -0.4746  0.0106  0.6123
 5096TIP3    H115252   1.624   1.130   0.192  3.4253  3.7745  1.4891
 5096TIP3    H215253   1.742   1.064   0.260  0.9127 -3.0715 -0.0150
 5097TIP3   OH215254   1.385   2.971   1.198 -0.1132 -0.1268  0.1511
 5097TIP3    H115255   1.327   3.010   1.264  0.3798 -0.9043  1.0701
 5097TIP3    H215256   1.459   2.937   1.248  0.7082  0.0493 -0.9108
 5098TIP3   OH215257   7.098   6.689   4.960  0.1562 -0.7347  0.3251
 5098TIP3    H115258   7.086   6.631   5.035  0.9368 -1.8903 -0.3975
 5098TIP3    H215259   7.057   6.642   4.887  0.0030  0.0465 -0.1018
 5099TIP3   OH215260   2.991   4.028   2.518  0.6798  0.2401 -0.3263
 5099TIP3    H115261   3.020   3.938   2.506 -0.0777  0.0884 -1.1443
 5099TIP3    H215262   2.900   4.028   2.488  0.7585  1.3401 -0.6237
 5100TIP3   OH215263   3.038   5.001   3.389  0.1310  0.6061  0.2534
 5100TIP3    H115264   3.022   5.087   3.429  0.4337  0.5241  0.5557
 5100TIP3    H215265   3.006   5.010   3.299  0.6828  1.2139  0.1054
 5101TIP3   OH215266   5.551   1.723   5.503 -0.4682  0.1488  0.2163
 5101TIP3    H115267   5.530   1.812   5.473 -0.7840 -0.1967 -0.6098
 5101TIP3    H215268   5.476   1.670   5.477 -1.0031 -0.1045  2.0796
 5102TIP3   OH215269   5.809   2.112   3.734 -0.5060  0.6129  0.2402
 5102TIP3    H115270   5.773   2.192   3.697 -0.6198  0.5207  0.1512
 5102TIP3    H215271   5.744   2.045   3.715 -0.6860  0.6129  0.8286
 5103TIP3   OH215272   4.550   6.707   3.692  0.4686 -0.6876 -0.0265
 5103TIP3    H115273   4.464   6.730   3.728  1.0129  1.9457 -0.2100
 5103TIP3    H215274   4.612   6.740   3.757  1.4622 -4.3981  1.1689
 5104TIP3   OH215275   6.974   6.556   4.011  0.2795 -0.0760 -0.5234
 5104TIP3    H115276   7.054   6.511   4.040  1.1543  1.6237 -0.2109
 5104TIP3    H215277   6.933   6.494   3.950 -0.3225 -2.7248  2.3101
 5105TIP3   OH215278   2.884   3.494   3.575 -0.5233  0.1497 -0.1500
 5105TIP3    H115279   2.883   3.401   3.552 -0.5084  0.3796 -1.1166
 5105TIP3    H215280   2.920   3.497   3.663 -0.2079 -0.7339 -0.2441
 5106TIP3   OH215281   5.262   5.841   2.663  0.0012  0.1977 -0.1079
 5106TIP3    H115282   5.313   5.787   2.603  0.9769  0.8388  0.1320
 5106TIP3    H215283   5.296   5.820   2.750  0.3065  1.0900 -0.0017
 5107TIP3   OH215284   6.856   5.714   5.203  0.2452 -0.4835 -0.4727
 5107TIP3    H115285   6.869   5.647   5.270  0.1278  0.9038  1.0023
 5107TIP3    H215286   6.775   5.689   5.159  0.0917 -1.1834  0.1937
 5108TIP3   OH215287   2.180   5.631   4.162  0.2146  0.8475  0.5592
 5108TIP3    H115288   2.232   5.675   4.095 -0.8489  0.9392 -0.2291
 5108TIP3    H215289   2.106   5.594   4.115  0.2177 -0.3920  1.4676
 5109TIP3   OH215290   6.477   2.937   3.238 -0.2027 -0.5300  0.4597
 5109TIP3    H115291   6.419   2.957   3.165 -1.1901  0.2212  1.4250
 5109TIP3    H215292   6.563   2.922   3.197 -0.3934  1.3179 -0.7299
 5110TIP3   OH215293   2.613   2.745   3.900  0.0695  0.2826  0.1316
 5110TIP3    H115294   2.664   2.666   3.884 -0.1358  0.0083  0.7818
 5110TIP3    H215295   2.527   2.726   3.862  0.2301  0.4641 -0.3246
 5111TIP3   OH215296   3.921   2.782   4.309 -0.0001 -0.2805  0.6625
 5111TIP3    H115297   3.887   2.845   4.372 -0.3400 -0.8428  1.0534
 5111TIP3    H215298   3.989   2.734   4.356 -0.4144 -0.8581  0.6899
 5112TIP3   OH215299   6.257   4.058   0.899 -0.4136  0.2500 -0.4553
 5112TIP3    H115300   6.281   4.049   0.992 -0.3070 -1.7435 -0.6428
 5112TIP3    H215301   6.341   4.050   0.853 -0.5686  0.4367 -0.7685
 5113TIP3   OH215302   3.546   3.928   0.528 -0.7772 -0.0095 -0.2720
 5113TIP3    H115303   3.497   3.894   0.453  1.6378 -2.4124 -0.9031
 5113TIP3    H215304   3.558   3.853   0.585  1.7999  0.5105  0.0030
 5114TIP3   OH215305   2.731   5.026   3.493 -0.2975  0.2599  0.2965
 5114TIP3    H115306   2.802   5.003   3.552 -0.6230  2.6084  1.7256
 5114TIP3    H215307   2.773   5.039   3.408  0.4717 -1.2645  0.4103
 5115TIP3   OH215308   2.767   2.527   0.613 -0.5321 -0.3835 -0.3094
 5115TIP3    H115309   2.695   2.585   0.589 -0.7463 -0.6923 -0.4133
 5115TIP3    H215310   2.799   2.562   0.696 -2.8683 -2.0958  1.4432
 5116TIP3   OH215311   6.570   0.813   1.026  0.7080  0.2510 -0.2350
 5116TIP3    H115312   6.602   0.887   0.975  0.5774  0.7417  0.3776
 5116TIP3    H215313   6.475   0.814   1.011  0.5664  0.8898  0.6378
 5117TIP3   OH215314   1.920   5.896   0.264  0.3355 -0.3479 -0.4932
 5117TIP3    H115315   1.984   5.922   0.331  1.6782 -1.4175 -1.3242
 5117TIP3    H215316   1.837   5.935   0.294  0.7711 -1.2239  2.0559
 5118TIP3   OH215317   0.572   5.492   3.496 -0.8235 -0.1828 -0.4829
 5118TIP3    H115318   0.583   5.517   3.588 -1.6006  0.7856 -0.6269
 5118TIP3    H215319   0.478   5.475   3.487 -0.5333 -1.7078 -0.7672
 5119TIP3   OH215320   2.905   4.265   3.499  0.4586 -0.5267 -0.2773
 5119TIP3    H115321   2.864   4.347   3.471 -1.3922 -1.6122 -0.9522
 5119TIP3    H215322   2.925   4.278   3.591  0.0260  0.6163 -0.3285
 5120TIP3   OH215323   2.305   3.361   5.790  0.0263 -0.3428 -0.4405
 5120TIP3    H115324   2.346   3.296   5.733 -1.0566 -1.8940  0.4506
 5120TIP3    H215325   2.223   3.383   5.745 -0.0390 -0.2817 -0.2908
 5121TIP3   OH215326   4.949   3.319   5.490  0.0864 -0.1277 -0.0582
 5121TIP3    H115327   4.875   3.354   5.442 -0.4694  0.5098  1.2187
 5121TIP3    H215328   5.022   3.379   5.471 -0.3305  0.5651  0.5084
 5122TIP3   OH215329   1.760   1.551   4.259  0.0762  0.0366  0.7397
 5122TIP3    H115330   1.836   1.497   4.279 -0.0087 -0.5777 -0.4839
 5122TIP3    H215331   1.725   1.514   4.178 -0.6911  1.1969  0.5137
 5123TIP3   OH215332   2.661   4.715   0.277  0.2778 -0.1172  0.1413
 5123TIP3    H115333   2.568   4.716   0.252  0.4741 -0.1671 -0.6049
 5123TIP3    H215334   2.677   4.624   0.304  0.4360 -0.4492 -1.0186
 5124TIP3   OH215335   0.382   4.192   4.150  0.1773 -0.4034  0.0962
 5124TIP3    H115336   0.387   4.283   4.120  0.7038  0.1737  1.7983
 5124TIP3    H215337   0.329   4.196   4.230  0.2005 -1.5968  0.1914
 5125TIP3   OH215338   5.131   2.593   0.827  0.2743 -0.4240 -0.3548
 5125TIP3    H115339   5.185   2.669   0.810 -0.7722  0.1597 -1.2442
 5125TIP3    H215340   5.110   2.559   0.740 -2.7297  0.8029 -0.2377
 5126TIP3   OH215341   6.295   0.802   0.944  0.3039 -0.0675  0.2362
 5126TIP3    H115342   6.215   0.778   0.898  0.2339 -1.5665  1.0618
 5126TIP3    H215343   6.277   0.888   0.981 -1.4349 -0.8820  1.4288
 5127TIP3   OH215344   3.797   2.293   2.597  0.1922  0.3330 -0.0883
 5127TIP3    H115345   3.802   2.383   2.630 -0.3083  0.3900 -0.1627
 5127TIP3    H215346   3.887   2.271   2.573  0.3509  0.7385  0.1285
 5128TIP3   OH215347   4.122   1.049   5.858 -0.7189 -0.9139 -0.2222
 5128TIP3    H115348   4.097   0.963   5.827  0.8957 -1.3846 -0.3364
 5128TIP3    H215349   4.058   1.071   5.925 -2.3977 -1.2574 -1.6429
 5129TIP3   OH215350   3.929   1.140   2.277 -0.4555  0.1320 -0.1985
 5129TIP3    H115351   3.949   1.230   2.254 -1.4773  0.5812  0.6233
 5129TIP3    H215352   3.991   1.119   2.348  0.7739 -0.3270 -1.3555
 5130TIP3   OH215353   2.173   2.210   4.389 -0.3769  0.2450  0.1531
 5130TIP3    H115354   2.121   2.131   4.403  1.3839 -1.0267 -0.2268
 5130TIP3    H215355   2.119   2.263   4.330  0.0261 -2.4909 -2.9765
 5131TIP3   OH215356   1.439   1.405   0.893 -0.5143 -0.1185  0.5538
 5131TIP3    H115357   1.402   1.375   0.810  1.4759  0.9864 -0.8433
 5131TIP3    H215358   1.483   1.329   0.930 -0.4753 -0.3540  0.0225
 5132TIP3   OH215359   3.533   1.852   3.114  0.0875 -0.4304 -0.4951
 5132TIP3    H115360   3.518   1.938   3.153  0.6936 -0.2254 -0.6962
 5132TIP3    H215361   3.508   1.863   3.022  1.2417 -0.1385 -0.7876
 5133TIP3   OH215362   0.823   2.187   2.408 -0.2256  0.1819 -0.2640
 5133TIP3    H115363   0.735   2.163   2.437 -0.0320 -0.3289 -0.0809
 5133TIP3    H215364   0.815   2.205   2.315 -0.5632  0.3521 -0.2034
 5134TIP3   OH215365   0.334   0.313   0.770  0.1228  0.3431  0.1176
 5134TIP3    H115366   0.346   0.292   0.862 -0.7064  0.3493  0.2345
 5134TIP3    H215367   0.311   0.406   0.769  1.3764  0.6646 -0.2028
 5135TIP3   OH215368   0.979   3.236   5.227 -0.2420 -0.2159 -0.2905
 5135TIP3    H115369   0.914   3.208   5.291 -1.4817  0.8243 -1.0274
 5135TIP3    H215370   0.995   3.328   5.248  0.3979 -0.2478 -0.6104
 5136TIP3   OH215371   6.673   4.970   0.109  0.5945 -0.1764  0.5011
 5136TIP3    H115372   6.623   5.047   0.082  0.5188 -0.2588  0.4084
 5136TIP3    H215373   6.751   4.972   0.055 -0.3386 -1.2943 -0.9698
 5137TIP3   OH215374   0.484   2.637   1.200 -0.2321  0.2287  0.0733
 5137TIP3    H115375   0.575   2.662   1.182  0.2227 -0.8892  0.7169
 5137TIP3    H215376   0.454   2.599   1.117  0.4315 -0.8855  0.3201
 5138TIP3   OH215377   0.983   5.475   3.580 -0.0533 -0.5481  0.0304
 5138TIP3    H115378   1.023   5.497   3.496 -1.3794 -0.3017 -0.5665
 5138TIP3    H215379   0.937   5.555   3.606  0.6501 -0.5108  1.1793
 5139TIP3   OH215380   4.962   4.080   1.594  0.3183 -0.0881  0.2588
 5139TIP3    H115381   5.009   4.163   1.589 -0.0451  0.0732 -0.7974
 5139TIP3    H215382   5.020   4.022   1.644  0.6484  0.7417  0.8653
 5140TIP3   OH215383   4.819   4.618   0.908  0.3924  0.6582 -0.1209
 5140TIP3    H115384   4.906   4.656   0.897  0.2720  1.5767  1.6360
 5140TIP3    H215385   4.805   4.566   0.829  1.9013  1.7033 -1.1390
 5141TIP3   OH215386   7.073   4.320   0.055  0.0717  0.2747  0.7250
 5141TIP3    H115387   7.031   4.289   0.136 -1.4018 -0.1858 -0.1773
 5141TIP3    H215388   7.098   4.239   0.009 -1.2549  0.4511 -0.3548
 5142TIP3   OH215389   3.359   5.245   2.577 -0.2221 -0.1196  0.6090
 5142TIP3    H115390   3.272   5.244   2.617  0.5215 -1.2068  2.3114
 5142TIP3    H215391   3.394   5.157   2.594  0.4820 -0.3702 -1.7535
 5143TIP3   OH215392   0.609   5.705   4.788 -0.5611  0.0537  0.7341
 5143TIP3    H115393   0.669   5.742   4.854  0.4653  0.7053 -0.5294
 5143TIP3    H215394   0.603   5.612   4.810  0.4784  0.0905  1.2043
 5144TIP3   OH215395   1.623   5.796   0.540  0.5318  0.3014  0.4231
 5144TIP3    H115396   1.568   5.764   0.612 -1.3416  0.6512 -0.7823
 5144TIP3    H215397   1.711   5.799   0.576 -0.1155 -0.9901  2.2287
 5145TIP3   OH215398   3.532   6.649   0.497  0.1818 -0.0274 -0.0700
 5145TIP3    H115399   3.539   6.739   0.465 -2.5362  0.5103  0.6216
 5145TIP3    H215400   3.485   6.602   0.428  0.3265 -0.5607  0.1904
 5146TIP3   OH215401   5.941   2.448   3.640  0.1511  0.3952 -0.3069
 5146TIP3    H115402   5.879   2.382   3.608  0.1442  0.3275 -0.1531
 5146TIP3    H215403   5.911   2.469   3.728 -1.0885  2.1276 -1.0856
 5147TIP3   OH215404   1.694   2.861   5.749 -0.4086  0.2600 -0.1192
 5147TIP3    H115405   1.648   2.923   5.805 -0.6850  1.3871 -1.5157
 5147TIP3    H215406   1.786   2.872   5.772 -0.3386  2.0000 -1.0205
 5148TIP3   OH215407   2.736   4.350   1.845  0.3551 -0.0625  0.3367
 5148TIP3    H115408   2.650   4.334   1.807  0.4668 -0.4632  0.2496
 5148TIP3    H215409   2.782   4.402   1.779 -0.7634  2.6403  1.5309
 5149TIP3   OH215410   5.038  -0.004   0.592  0.3591  0.3962 -0.3680
 5149TIP3    H115411   5.126   0.029   0.574 -0.5733  2.0654 -2.2997
 5149TIP3    H215412   5.000   0.062   0.650  0.2556 -0.1523  0.1986
 5150TIP3   OH215413   5.080   6.711   2.004  0.0491  0.2183 -0.1422
 5150TIP3    H115414   5.045   6.758   1.928  1.6153 -0.8714 -1.6253
 5150TIP3    H215415   5.174   6.728   2.001  0.1580  0.0762  1.5393
 5151TIP3   OH215416   6.219   0.088   1.797  0.1746  0.7986 -0.7189
 5151TIP3    H115417   6.274   0.010   1.805 -1.0715 -0.0684 -0.2043
 5151TIP3    H215418   6.187   0.085   1.707  0.5177  0.9949 -0.8489
 5152TIP3   OH215419   1.279   3.962   5.515  0.0686  0.3348  0.2225
 5152TIP3    H115420   1.341   4.021   5.473  2.5417 -2.1767  0.0510
 5152TIP3    H215421   1.310   3.954   5.605 -0.8620  0.0920  0.5393
 5153TIP3   OH215422   4.998   0.874   4.518 -0.2154 -0.6250  0.0098
 5153TIP3    H115423   4.948   0.929   4.580  1.1545 -0.1442  0.7238
 5153TIP3    H215424   5.046   0.937   4.465  0.0555 -1.1044 -0.3103
 5154TIP3   OH215425   0.042   1.863   4.534 -0.1730 -0.0679  0.3860
 5154TIP3    H115426   0.081   1.809   4.602 -1.8370 -0.6771  0.8854
 5154TIP3    H215427  -0.008   1.929   4.581 -0.7888 -0.0755 -0.2392
 5155TIP3   OH215428   6.787   4.143   5.721  0.1774 -0.1997  0.5582
 5155TIP3    H115429   6.755   4.179   5.803  0.2493 -1.4833  1.1631
 5155TIP3    H215430   6.723   4.173   5.656  0.3170  1.1265  0.9900
 5156TIP3   OH215431   5.511   5.365   4.914  0.2468 -0.0615  0.1077
 5156TIP3    H115432   5.462   5.425   4.970 -0.3524 -0.2739 -0.1741
 5156TIP3    H215433   5.562   5.421   4.856 -2.1377  0.3021 -1.8205
 5157TIP3   OH215434   2.304   5.996   3.932  0.3823 -0.1020  0.4973
 5157TIP3    H115435   2.294   6.033   3.844 -0.1868  0.8548  0.9435
 5157TIP3    H215436   2.233   6.035   3.982 -0.0842 -1.6455  1.0673
 5158TIP3   OH215437   2.367   3.699   1.421 -0.1484 -0.0617 -0.3159
 5158TIP3    H115438   2.277   3.692   1.453  0.4512 -3.1861  1.1035
 5158TIP3    H215439   2.410   3.757   1.484 -1.1033  1.4457 -0.9975
 5159TIP3   OH215440   2.635   2.212   2.672 -0.0419 -0.2787 -0.1756
 5159TIP3    H115441   2.683   2.286   2.709  0.8450 -1.8728  2.0793
 5159TIP3    H215442   2.543   2.239   2.674  0.1759  0.4272  1.5057
 5160TIP3   OH215443   0.662   4.875   1.329 -0.7229  0.0492 -0.8146
 5160TIP3    H115444   0.650   4.826   1.411  1.1973  0.0438 -0.4893
 5160TIP3    H215445   0.578   4.865   1.283 -0.5178 -3.4744 -0.7188
 5161TIP3   OH215446   3.606   2.832   5.623  0.1244  0.4182  0.1866
 5161TIP3    H115447   3.550   2.839   5.546 -0.4744  1.4646  0.6926
 5161TIP3    H215448   3.548   2.800   5.692  0.1845  1.3420  0.6743
 5162TIP3   OH215449   1.221   3.493   3.357 -0.5396  0.6653 -0.1542
 5162TIP3    H115450   1.213   3.426   3.425  0.5349 -1.3374 -1.8880
 5162TIP3    H215451   1.304   3.537   3.376  0.8999 -1.3716 -1.2883
 5163TIP3   OH215452   1.763   6.276   1.539 -0.1291 -0.7716  0.0612
 5163TIP3    H115453   1.839   6.306   1.488 -0.5928 -0.0341 -0.2208
 5163TIP3    H215454   1.798   6.261   1.627  0.0326  1.2675  0.3945
 5164TIP3   OH215455   0.137   6.350   4.952  0.7675  0.4961  0.0147
 5164TIP3    H115456   0.193   6.423   4.929  0.3016  1.1158  0.7744
 5164TIP3    H215457   0.057   6.391   4.987 -0.4653 -0.3353 -1.6795
 5165TIP3   OH215458   0.834   6.167   4.074 -0.0535  0.5307 -0.0718
 5165TIP3    H115459   0.892   6.198   4.143 -1.8078  0.7220  1.4121
 5165TIP3    H215460   0.827   6.241   4.013  0.7715  0.7101  0.0438
 5166TIP3   OH215461   6.951   4.933   5.767 -0.1149 -0.0436  0.2714
 5166TIP3    H115462   6.906   4.864   5.817 -0.9608  0.4009  0.1303
 5166TIP3    H215463   6.947   4.903   5.676 -1.3913  0.6556  0.0711
 5167TIP3   OH215464   0.343   0.642   2.954  0.6711  0.5170 -0.4032
 5167TIP3    H115465   0.352   0.563   2.901 -0.9984 -0.5334  0.7421
 5167TIP3    H215466   0.250   0.645   2.976  1.2604  0.9064  2.3871
 5168TIP3   OH215467   4.835   4.644   3.796  0.0345  0.0219 -0.1250
 5168TIP3    H115468   4.839   4.567   3.853 -1.1331  0.9165  1.2230
 5168TIP3    H215469   4.771   4.702   3.838 -0.5208  0.9292 -2.0915
 5169TIP3   OH215470   1.261   0.816   1.248 -0.0150  0.0200  0.2446
 5169TIP3    H115471   1.344   0.789   1.209  0.7973  1.7968  0.6715
 5169TIP3    H215472   1.280   0.900   1.290 -2.0491  0.5223  0.2578
 5170TIP3   OH215473   5.962   2.594   5.388 -0.1350  0.1437 -0.1735
 5170TIP3    H115474   5.996   2.662   5.330  2.3469  0.1212  1.1481
 5170TIP3    H215475   5.946   2.639   5.471  1.0236 -0.7518  0.5597
 5171TIP3   OH215476   1.667   5.116   2.554 -0.2209  0.1603 -0.0755
 5171TIP3    H115477   1.667   5.126   2.459  2.3333 -1.5894 -0.3344
 5171TIP3    H215478   1.600   5.050   2.571 -0.8325  0.6256 -0.5784
 5172TIP3   OH215479   2.032   0.064   2.078 -0.4604 -0.4983  0.3064
 5172TIP3    H115480   2.090   0.128   2.037 -0.8982 -0.9701 -1.0872
 5172TIP3    H215481   2.064   0.058   2.168  1.8287 -0.9396 -0.4691
 5173TIP3   OH215482   0.823   3.681   3.171 -0.3954 -0.2553 -0.4211
 5173TIP3    H115483   0.782   3.644   3.094 -0.0616  0.6358 -1.0414
 5173TIP3    H215484   0.822   3.610   3.236  0.7258 -1.5315 -1.7446
 5174TIP3   OH215485   6.010   1.593   1.919  0.2338  0.0069  0.2959
 5174TIP3    H115486   6.082   1.586   1.981 -0.8875 -1.2406  1.5150
 5174TIP3    H215487   6.047   1.642   1.845  2.3447 -0.6674  0.8313
 5175TIP3   OH215488   0.983   3.608   0.674  0.2098  0.3473  0.1258
 5175TIP3    H115489   1.003   3.691   0.718  0.4355 -0.7315  2.1815
 5175TIP3    H215490   0.910   3.571   0.724 -3.2622  1.3880 -3.5983
 5176TIP3   OH215491   5.272   3.752   2.459  0.4108  0.0807 -1.0445
 5176TIP3    H115492   5.192   3.783   2.416 -0.2405 -0.1659 -0.0435
 5176TIP3    H215493   5.314   3.831   2.494 -0.8152 -0.0094  0.7778
 5177TIP3   OH215494   5.397   4.262   4.969 -0.5672 -1.2199 -0.5053
 5177TIP3    H115495   5.422   4.293   4.882 -2.4176  0.2929 -0.5656
 5177TIP3    H215496   5.421   4.333   5.028 -0.0625 -1.9077  0.1492
 5178TIP3   OH215497   0.452   4.326   0.309  0.0194  0.6467  0.0261
 5178TIP3    H115498   0.499   4.358   0.386  0.3199  1.1507 -0.3624
 5178TIP3    H215499   0.411   4.405   0.272  3.1739  1.2605 -2.6607
 5179TIP3   OH215500   5.053   5.059   0.101  0.0605 -0.2103  0.0732
 5179TIP3    H115501   5.000   5.043   0.023 -0.4434  0.3665  0.2931
 5179TIP3    H215502   5.008   5.012   0.171  1.5598 -2.4026 -0.3090
 5180TIP3   OH215503   1.439   0.076   3.153  0.1525  0.0144 -0.5886
 5180TIP3    H115504   1.425   0.016   3.226  0.3390  1.3677  0.6001
 5180TIP3    H215505   1.432   0.021   3.075 -0.5207 -1.3813  0.4191
 5181TIP3   OH215506   4.500   4.643   3.727 -0.0494  0.3828  0.4197
 5181TIP3    H115507   4.531   4.610   3.643  1.8891 -1.0771  1.6206
 5181TIP3    H215508   4.525   4.735   3.727  1.1527  0.0838 -0.1036
 5182TIP3   OH215509   4.130   5.088   5.434 -0.4495 -0.3497  0.7612
 5182TIP3    H115510   4.097   5.152   5.497 -0.9314 -0.2772  0.4419
 5182TIP3    H215511   4.191   5.034   5.484  1.2432  1.3719  0.6471
 5183TIP3   OH215512   2.376   5.731   2.127  0.2873  0.7345 -0.0609
 5183TIP3    H115513   2.308   5.694   2.072  0.0780 -1.0567  1.3222
 5183TIP3    H215514   2.331   5.797   2.180 -0.4115 -0.3609  0.7686
 5184TIP3   OH215515   4.975   3.967   4.148 -0.4669 -0.1986  0.1475
 5184TIP3    H115516   4.968   3.872   4.161  0.4210 -0.4870 -1.2815
 5184TIP3    H215517   5.053   3.992   4.196  0.0496 -0.4364 -0.5444
 5185TIP3   OH215518   3.891   5.154   3.325 -0.0691 -0.1222 -0.3415
 5185TIP3    H115519   3.839   5.217   3.275  0.2795  0.8262  0.4356
 5185TIP3    H215520   3.970   5.203   3.350  2.6768 -2.2911 -3.8246
 5186TIP3   OH215521   4.873   1.213   0.293  0.0819  0.3604  0.0603
 5186TIP3    H115522   4.794   1.227   0.240  1.2239 -1.4952 -2.3919
 5186TIP3    H215523   4.925   1.292   0.279  0.3588 -0.0909 -1.6992
 5187TIP3   OH215524   3.516   2.162   1.152 -0.7082  0.5008 -0.1185
 5187TIP3    H115525   3.495   2.125   1.066 -0.3791  1.2736 -0.5461
 5187TIP3    H215526   3.508   2.088   1.212  2.1919 -0.8926 -1.2461
 5188TIP3   OH215527   7.156   6.775   5.504  0.1315  0.2887  0.0633
 5188TIP3    H115528   7.102   6.708   5.463 -1.0185  1.0221  0.3491
 5188TIP3    H215529   7.160   6.845   5.439 -1.7976  1.5080  1.1715
 5189TIP3   OH215530   3.240   2.724   0.579  0.3715  0.1790  0.1061
 5189TIP3    H115531   3.219   2.664   0.508 -0.5725  1.3804 -0.6741
 5189TIP3    H215532   3.258   2.668   0.654  1.9178 -1.1391 -1.1939
 5190TIP3   OH215533   6.043   1.532   1.606 -0.8567  0.5457  0.3927
 5190TIP3    H115534   6.081   1.618   1.624 -2.1398  1.7556 -2.0924
 5190TIP3    H215535   5.949   1.545   1.614 -1.0849 -0.5658 -0.2382
 5191TIP3   OH215536   1.327   2.307   0.508 -0.9269  0.4713  0.4681
 5191TIP3    H115537   1.236   2.304   0.536 -0.8235 -2.8358  0.9194
 5191TIP3    H215538   1.378   2.310   0.589 -0.6139  1.6002  0.2412
 5192TIP3   OH215539   3.817   5.371   1.438 -0.3228  0.2365  0.4537
 5192TIP3    H115540   3.861   5.454   1.458 -0.2785  0.3337 -0.0482
 5192TIP3    H215541   3.725   5.395   1.425 -0.5160  0.0507  1.3815
 5193TIP3   OH215542   1.058   3.684   3.545  0.1595  0.1826  0.4031
 5193TIP3    H115543   1.110   3.636   3.609  0.3281  0.5699  0.5592
 5193TIP3    H215544   1.093   3.656   3.460  1.8117  1.7137  0.5208
 5194TIP3   OH215545   5.902   3.407   3.838 -0.0978 -0.3536 -0.3815
 5194TIP3    H115546   5.969   3.450   3.785  0.4591  0.0526  0.6039
 5194TIP3    H215547   5.883   3.325   3.793  0.0713  0.1580 -1.3961
 5195TIP3   OH215548   0.337   1.957   3.093  0.1229  0.3848 -0.5899
 5195TIP3    H115549   0.389   1.992   3.165  0.1643  1.2569 -1.0307
 5195TIP3    H215550   0.350   2.020   3.021 -1.7715  0.8140 -0.6165
 5196TIP3   OH215551   2.188   6.294   5.349  0.5453  0.4321  0.5613
 5196TIP3    H115552   2.190   6.268   5.441  1.0689  1.8527  0.9695
 5196TIP3    H215553   2.261   6.355   5.339 -0.4046  1.4683 -0.4180
 5197TIP3   OH215554   3.361   6.039   2.272  0.3539 -0.1780  0.3315
 5197TIP3    H115555   3.409   6.050   2.190  2.7295  1.8130  1.8845
 5197TIP3    H215556   3.304   6.116   2.277  0.2105 -0.2963  0.5459
 5198TIP3   OH215557   0.694   2.052   2.073 -0.1003  0.8410 -0.0707
 5198TIP3    H115558   0.608   2.017   2.097  0.2957  0.3956  0.7057
 5198TIP3    H215559   0.752   1.977   2.074  0.3553  1.1847 -0.3535
 5199TIP3   OH215560   4.198   2.255   1.610 -0.6098 -0.3930  0.5604
 5199TIP3    H115561   4.146   2.185   1.569 -0.8685 -0.2524  0.6478
 5199TIP3    H215562   4.248   2.293   1.538  0.2914 -1.3224  0.6761
 5200TIP3   OH215563   6.461   5.503   4.805  0.5162  0.1884 -0.1717
 5200TIP3    H115564   6.442   5.513   4.712 -1.9856 -1.6368  0.0261
 5200TIP3    H215565   6.507   5.420   4.812  0.6207  0.2763  0.2089
 5201TIP3   OH215566   0.288   3.970   5.760 -0.0987  0.3357 -0.4359
 5201TIP3    H115567   0.203   3.965   5.717 -1.2790  0.3658  1.7349
 5201TIP3    H215568   0.311   4.063   5.756 -0.6697  0.4944 -0.1584
 5202TIP3   OH215569   1.724   5.848   2.518  0.5578 -0.1560  0.0533
 5202TIP3    H115570   1.667   5.784   2.560 -0.2176  1.1960  1.1482
 5202TIP3    H215571   1.668   5.893   2.455  1.5368 -1.6866 -2.0365
 5203TIP3   OH215572   1.953   6.496   2.169  0.2260  0.0081  0.2227
 5203TIP3    H115573   1.930   6.563   2.233 -2.2445  0.1895 -0.7207
 5203TIP3    H215574   1.882   6.432   2.174  1.1762 -1.1836 -0.7238
 5204TIP3   OH215575   6.047   1.955   3.017 -0.0301 -0.2343  0.3164
 5204TIP3    H115576   6.112   1.917   2.958  1.0094  0.2557  1.1200
 5204TIP3    H215577   6.065   1.915   3.102 -0.0812  0.7098  0.7776
 5205TIP3   OH215578   6.220   4.742   5.730 -0.0430 -0.3612 -0.5995
 5205TIP3    H115579   6.239   4.777   5.817 -2.4259 -0.6832  0.1261
 5205TIP3    H215580   6.225   4.817   5.671 -1.5405  0.5314  0.3592
 5206TIP3   OH215581   4.152   1.021   4.567 -0.2019 -0.4550  0.3514
 5206TIP3    H115582   4.186   1.006   4.655  1.5493 -3.1189 -0.6266
 5206TIP3    H215583   4.057   1.016   4.577 -0.0653 -0.1694  2.1573
 5207TIP3   OH215584   4.539   5.501   5.846 -0.0467 -0.3986 -0.1203
 5207TIP3    H115585   4.608   5.510   5.911  0.5648 -0.7977 -0.6987
 5207TIP3    H215586   4.581   5.456   5.772 -0.5209  0.6626 -1.0743
 5208TIP3   OH215587   2.525   0.248   1.546 -0.9594 -0.1980 -0.0471
 5208TIP3    H115588   2.530   0.335   1.586  3.3432 -0.4426  0.4424
 5208TIP3    H215589   2.464   0.200   1.601 -0.7951  1.5633  1.8007
 5209TIP3   OH215590   0.008   3.419   3.085  0.2677  0.1190 -0.2930
 5209TIP3    H115591   0.072   3.405   3.016  0.4485 -0.4777 -0.0099
 5209TIP3    H215592  -0.015   3.331   3.115  1.3240  0.3693  1.4410
 5210TIP3   OH215593   5.774   0.563   2.201  0.7174 -0.4029  0.2081
 5210TIP3    H115594   5.742   0.485   2.156  1.0815 -0.1789 -0.4627
 5210TIP3    H215595   5.701   0.624   2.197 -0.2009 -1.2868  2.2743
 5211TIP3   OH215596   2.163   5.963   0.793  0.1398 -0.2026  0.0796
 5211TIP3    H115597   2.144   5.955   0.699  1.7483  2.2213 -0.5351
 5211TIP3    H215598   2.077   5.973   0.834 -0.5259 -0.0309 -1.2901
 5212TIP3   OH215599   2.956   1.526   2.525  0.0788  0.0486  0.5703
 5212TIP3    H115600   2.958   1.552   2.618 -1.6850 -0.7400  0.8711
 5212TIP3    H215601   3.024   1.458   2.518  0.0330 -0.0926  1.3606
 5213TIP3   OH215602   0.832   0.452   3.413  0.2225  0.5652 -0.5483
 5213TIP3    H115603   0.923   0.433   3.392  0.5758  2.4581 -0.9060
 5213TIP3    H215604   0.819   0.411   3.499  1.4890  0.4936 -0.3667
 5214TIP3   OH215605   3.333   2.095   5.525 -0.8755 -0.2644 -0.1993
 5214TIP3    H115606   3.388   2.092   5.446  0.6339 -0.7095  0.8121
 5214TIP3    H215607   3.353   2.180   5.565  0.1277 -0.9446  0.8403
 5215TIP3   OH215608   3.644   2.646   3.048  0.4328  0.4204  0.1760
 5215TIP3    H115609   3.564   2.645   3.100  0.5132 -0.3625  0.3047
 5215TIP3    H215610   3.616   2.621   2.960  0.5389  0.0546  0.2417
 5216TIP3   OH215611   2.773   3.955   3.676  0.8261 -0.0058 -0.1846
 5216TIP3    H115612   2.737   3.943   3.588  1.5292  1.1822 -0.6679
 5216TIP3    H215613   2.755   3.873   3.721  2.6130 -1.6107 -2.2019
 5217TIP3   OH215614   1.852   2.334   2.086 -0.3819 -0.5223  0.4376
 5217TIP3    H115615   1.811   2.420   2.099 -1.7333 -0.7763 -1.7569
 5217TIP3    H215616   1.917   2.329   2.156 -0.8615  1.9121  1.1757
 5218TIP3   OH215617   1.579   4.204   1.876  0.8277 -0.4821  0.1424
 5218TIP3    H115618   1.645   4.247   1.821  0.8415  1.5818  1.6608
 5218TIP3    H215619   1.619   4.200   1.963 -0.7562  0.2097  0.9405
 5219TIP3   OH215620   2.324   5.180   0.801  0.4604  0.6980 -0.6705
 5219TIP3    H115621   2.268   5.108   0.771  0.1166  0.7920 -0.2623
 5219TIP3    H215622   2.394   5.184   0.736  1.2030 -0.8433 -0.0200
 5220TIP3   OH215623   2.156   1.356   2.589 -0.1525  0.4521 -0.1877
 5220TIP3    H115624   2.105   1.433   2.563 -0.9341 -0.2551 -0.8196
 5220TIP3    H215625   2.209   1.385   2.663 -1.2070  1.3214  0.2437
 5221TIP3   OH215626   5.564   2.333   4.732  0.1414 -0.1253  0.5815
 5221TIP3    H115627   5.502   2.265   4.758 -0.4931 -0.1774 -0.9403
 5221TIP3    H215628   5.597   2.368   4.814 -1.0245 -0.9066  1.4225
 5222TIP3   OH215629   2.001   1.815   3.753 -0.2896  0.0884  0.5804
 5222TIP3    H115630   1.912   1.801   3.721 -0.5762 -1.1204  1.8110
 5222TIP3    H215631   2.057   1.792   3.679 -0.9721  1.0061 -0.2575
 5223TIP3   OH215632   4.136  -0.031   4.449 -0.1828  0.6966  0.4814
 5223TIP3    H115633   4.176   0.012   4.525  2.8253  1.3427 -1.3408
 5223TIP3    H215634   4.153   0.028   4.376 -1.8919 -0.5036 -0.9636
 5224TIP3   OH215635   2.551   4.626   4.486  0.0270 -0.6431 -0.5612
 5224TIP3    H115636   2.523   4.705   4.439  0.8216 -0.1905 -0.2958
 5224TIP3    H215637   2.643   4.642   4.506  0.2039 -1.6584 -0.5318
 5225TIP3   OH215638   5.236   6.763   4.226  0.4826  0.1357  0.0623
 5225TIP3    H115639   5.321   6.771   4.184  0.8132 -0.5119  0.5892
 5225TIP3    H215640   5.225   6.668   4.240 -0.1012  0.2549  0.4439
 5226TIP3   OH215641   4.435   2.967   5.266  0.5326 -0.6014  0.0830
 5226TIP3    H115642   4.507   2.998   5.211 -0.0526 -0.4151 -0.5988
 5226TIP3    H215643   4.382   2.913   5.207 -1.1356  1.1106 -0.0704
 5227TIP3   OH215644   1.234   5.122   3.881  0.6773 -0.3352 -0.5411
 5227TIP3    H115645   1.244   5.158   3.793 -1.8418  0.5749 -0.5503
 5227TIP3    H215646   1.248   5.197   3.939 -0.9953 -0.1096 -0.3815
 5228TIP3   OH215647   3.236   3.014   2.737 -0.2383  0.0159 -0.4478
 5228TIP3    H115648   3.329   3.007   2.719 -0.3004  1.5900 -1.6323
 5228TIP3    H215649   3.230   3.026   2.832  0.7798  0.2226 -0.4063
 5229TIP3   OH215650   4.211   3.289   5.796  0.1808  0.3136  1.1250
 5229TIP3    H115651   4.124   3.260   5.821  1.2794 -1.9584  2.7205
 5229TIP3    H215652   4.235   3.354   5.862 -0.3166  1.0257  0.6170
 5230TIP3   OH215653   3.516   0.415   5.585 -0.4324  0.4766  0.3149
 5230TIP3    H115654   3.467   0.440   5.507  0.4711  3.7585  0.6331
 5230TIP3    H215655   3.449   0.407   5.653 -0.9562  0.4677 -0.1937
 5231TIP3   OH215656   5.588   0.234   5.525  0.5842 -0.9417  0.1056
 5231TIP3    H115657   5.595   0.181   5.446  0.6830 -1.1316  0.2409
 5231TIP3    H215658   5.505   0.205   5.565  0.5322 -0.8428  0.0695
 5232TIP3   OH215659   5.633   6.777   1.306  0.2528  0.3106  0.5073
 5232TIP3    H115660   5.607   6.685   1.306  0.8349  0.1360  1.5898
 5232TIP3    H215661   5.574   6.819   1.368  0.0126  0.6662  0.0406
 5233TIP3   OH215662   2.750   6.828   2.721  0.4142  0.3671  0.1098
 5233TIP3    H115663   2.684   6.766   2.751  2.6459 -1.5255  1.4254
 5233TIP3    H215664   2.824   6.774   2.694  0.8568  2.3249 -3.0434
 5234TIP3   OH215665   0.543   4.843   4.372 -0.0511 -0.1749 -0.2285
 5234TIP3    H115666   0.561   4.787   4.447 -1.6797 -1.0202 -0.4228
 5234TIP3    H215667   0.573   4.793   4.296  3.0483  1.3172 -0.1316
 5235TIP3   OH215668   1.900   4.689   5.525  0.0680 -0.4547  0.2015
 5235TIP3    H115669   1.901   4.715   5.617 -0.0909 -0.0984  0.1057
 5235TIP3    H215670   1.941   4.603   5.523 -1.7370 -1.3784  0.8836
 5236TIP3   OH215671   6.326   4.562   3.498 -0.9320 -0.7714  0.0544
 5236TIP3    H115672   6.265   4.629   3.529  0.9012  1.2098 -0.3821
 5236TIP3    H215673   6.370   4.530   3.577  0.3751  0.8515  0.0371
 5237TIP3   OH215674   3.321   5.548   0.647  0.7659 -0.8372 -0.2303
 5237TIP3    H115675   3.271   5.495   0.585 -1.3195  0.9886 -0.2254
 5237TIP3    H215676   3.323   5.497   0.727  0.5012 -1.7289 -0.7831
 5238TIP3   OH215677   3.748   3.957   3.889 -0.4214  0.2041 -0.0568
 5238TIP3    H115678   3.734   4.022   3.821 -1.3829  0.3214  0.2366
 5238TIP3    H215679   3.804   3.891   3.848  0.1774  0.9741 -0.4984
 5239TIP3   OH215680   3.697   3.503   1.664  0.4500 -0.1427  0.3342
 5239TIP3    H115681   3.604   3.489   1.677  0.4778  0.1230  0.8260
 5239TIP3    H215682   3.718   3.580   1.717  0.9143 -0.0933  0.0919
 5240TIP3   OH215683   1.043   0.108   2.089 -0.0348  0.6204 -0.0942
 5240TIP3    H115684   0.970   0.047   2.083  0.5952 -0.3712  1.8557
 5240TIP3    H215685   1.021   0.177   2.026 -2.3176  0.0233 -0.0250
 5241TIP3   OH215686   4.797   0.518   2.827 -0.0644  0.8247 -0.3467
 5241TIP3    H115687   4.784   0.571   2.748  0.1323  1.4036  0.0101
 5241TIP3    H215688   4.887   0.486   2.820 -0.2301  0.4134 -0.6336
 5242TIP3   OH215689   6.816   4.996   3.819  0.3783 -0.1842 -0.1295
 5242TIP3    H115690   6.846   4.920   3.770 -1.4338 -0.5642 -0.7352
 5242TIP3    H215691   6.864   4.992   3.902  1.0091 -1.4300 -0.5296
 5243TIP3   OH215692   4.851   5.662   0.353 -0.1247  0.6656  0.2590
 5243TIP3    H115693   4.943   5.639   0.362 -0.5209 -0.8966  0.8228
 5243TIP3    H215694   4.849   5.757   0.354  1.6910  0.8318 -2.2684
 5244TIP3   OH215695   1.290   3.956   1.630 -0.0641 -0.4069 -0.3708
 5244TIP3    H115696   1.255   4.044   1.640  0.4165 -0.3058  0.4884
 5244TIP3    H215697   1.367   3.953   1.686  0.2231 -1.2197 -0.7753
 5245TIP3   OH215698   2.931   4.009   3.054  0.1905 -0.7099  0.4510
 5245TIP3    H115699   2.890   3.937   3.102  0.4034 -1.0554  0.1134
 5245TIP3    H215700   2.923   3.985   2.962 -1.3382  0.5282  0.2027
 5246TIP3   OH215701   5.963   6.608   2.682 -0.1793 -0.2801 -0.0397
 5246TIP3    H115702   5.877   6.651   2.684 -0.2776 -0.4511 -0.4068
 5246TIP3    H215703   5.944   6.519   2.654  0.0532 -0.4932  0.4708
 5247TIP3   OH215704   5.952   4.808   0.658  0.0187  0.1090  0.4197
 5247TIP3    H115705   6.036   4.852   0.675 -0.5332  1.1180  0.5750
 5247TIP3    H215706   5.977   4.721   0.626  1.1855  1.0789 -1.5469
 5248TIP3   OH215707   0.404   5.623   3.158  0.5290  0.0724  0.0586
 5248TIP3    H115708   0.482   5.617   3.214  0.5405 -0.2237  0.0131
 5248TIP3    H215709   0.436   5.660   3.076  0.1826  2.3691  0.8836
 5249TIP3   OH215710   6.877   1.394   2.664  0.2672 -0.1686  0.4017
 5249TIP3    H115711   6.909   1.434   2.583 -1.3357  2.6214  1.0186
 5249TIP3    H215712   6.784   1.418   2.668 -0.2232 -2.0441  2.0631
 5250TIP3   OH215713   2.427   6.648   4.375 -0.1648 -0.0468  0.1618
 5250TIP3    H115714   2.394   6.729   4.413  1.2725  0.9364 -0.5613
 5250TIP3    H215715   2.417   6.582   4.444 -0.5099  0.9594  1.0977
 5251TIP3   OH215716   1.391   2.877   3.369 -0.2317  0.3237  0.1182
 5251TIP3    H115717   1.458   2.842   3.429 -0.6177 -0.1031  0.3106
 5251TIP3    H215718   1.390   2.814   3.296 -2.2860 -1.2266  1.3616
 5252TIP3   OH215719   2.717   3.270   1.441  0.0180  0.1691  0.1828
 5252TIP3    H115720   2.646   3.318   1.399  0.3254 -1.5092 -2.4273
 5252TIP3    H215721   2.719   3.305   1.531 -2.7301  1.6862 -0.2376
 5253TIP3   OH215722   2.714   1.324   1.484  0.3406  0.2517  0.2663
 5253TIP3    H115723   2.771   1.249   1.503  1.4344  0.9313 -0.2452
 5253TIP3    H215724   2.675   1.345   1.569  2.0198  0.6915  0.9863
 5254TIP3   OH215725   0.576   4.910   2.707 -0.0575  0.0405  0.4803
 5254TIP3    H115726   0.547   5.001   2.712  1.3309  0.5963 -0.8090
 5254TIP3    H215727   0.569   4.888   2.614  0.7836 -0.7653  0.5969
 5255TIP3   OH215728   4.522   4.353   4.952  0.3282 -0.3821 -0.3756
 5255TIP3    H115729   4.436   4.312   4.964  0.3320 -0.1321  0.5926
 5255TIP3    H215730   4.517   4.434   5.002  0.4418  0.6679 -1.9715
 5256TIP3   OH215731   2.999   2.579   0.429  0.1347 -0.3251  0.1733
 5256TIP3    H115732   3.017   2.498   0.476  1.1008 -0.0349  0.3323
 5256TIP3    H215733   2.907   2.599   0.450 -0.5349 -2.0368 -0.9118
 5257TIP3   OH215734   2.052   4.897   4.243  0.2791  0.0118  0.2980
 5257TIP3    H115735   2.080   4.858   4.325 -0.4518 -0.8736  0.1528
 5257TIP3    H215736   2.010   4.825   4.196  0.4165  0.5755 -0.7213
 5258TIP3   OH215737   2.133   0.198   5.234  0.1433 -0.6995  0.2518
 5258TIP3    H115738   2.096   0.141   5.301 -2.2283  2.1721  1.6025
 5258TIP3    H215739   2.215   0.230   5.272  0.7101 -1.9754  0.1275
 5259TIP3   OH215740   6.771   1.044   2.138  0.3482 -0.1351  0.0783
 5259TIP3    H115741   6.748   1.041   2.046  0.5716 -0.3307  0.0276
 5259TIP3    H215742   6.861   1.078   2.139  0.8441 -1.3875  0.1320
 5260TIP3   OH215743   5.657   4.149   0.741 -0.6803 -0.0617 -0.3350
 5260TIP3    H115744   5.642   4.239   0.772 -0.5491 -0.3851  0.6852
 5260TIP3    H215745   5.726   4.115   0.798 -0.6941 -0.8066 -0.7475
 5261TIP3   OH215746   5.383   1.485   4.183  0.0895 -0.0033 -0.1986
 5261TIP3    H115747   5.468   1.443   4.176 -0.3252 -0.6736 -1.6038
 5261TIP3    H215748   5.395   1.571   4.143  0.2743  0.1922  0.2672
 5262TIP3   OH215749   0.099   4.643   4.886 -0.4170 -0.5654  0.2858
 5262TIP3    H115750   0.141   4.712   4.834  1.9672 -0.2476  2.4463
 5262TIP3    H215751   0.084   4.572   4.824  0.3998  0.5542 -1.2532
 5263TIP3   OH215752   0.415   1.022   4.604  0.2030 -0.1897 -0.3391
 5263TIP3    H115753   0.411   1.064   4.690 -1.5350 -1.4517  0.2482
 5263TIP3    H215754   0.345   0.957   4.606  1.5307 -1.7409 -1.9404
 5264TIP3   OH215755   1.588   4.350   0.669  0.8365  0.1450 -0.0057
 5264TIP3    H115756   1.578   4.432   0.718 -0.3862 -0.0627  0.1209
 5264TIP3    H215757   1.587   4.281   0.735  1.3193 -0.0202 -0.1611
 5265TIP3   OH215758   3.502   1.760   2.662 -0.2875  0.1158  0.2770
 5265TIP3    H115759   3.560   1.686   2.680 -0.1430 -0.3702 -1.9484
 5265TIP3    H215760   3.434   1.724   2.606 -0.0768  1.7169 -1.0725
 5266TIP3   OH215761   0.529   1.812   3.406  0.3547  0.3463  0.5678
 5266TIP3    H115762   0.474   1.770   3.340  1.1060 -0.7682  0.6332
 5266TIP3    H215763   0.619   1.796   3.377  0.6855  0.4137  1.5084
 5267TIP3   OH215764   3.645   5.761   3.723  0.0323 -0.3687 -0.8038
 5267TIP3    H115765   3.556   5.763   3.686 -0.0341 -0.6844 -0.6649
 5267TIP3    H215766   3.632   5.739   3.815  0.2687 -0.6482 -0.8347
 5268TIP3   OH215767  -0.028   4.733   0.419  0.4283 -0.4079 -0.2292
 5268TIP3    H115768   0.053   4.784   0.421  0.0185  0.2600 -0.0020
 5268TIP3    H215769  -0.009   4.655   0.470  1.3151 -0.8731 -1.2259
 5269TIP3   OH215770   3.196   3.455   5.266 -0.6590  0.8381  0.1031
 5269TIP3    H115771   3.267   3.395   5.289 -1.4816 -0.3178 -0.2868
 5269TIP3    H215772   3.194   3.453   5.170  0.0915  2.4585  0.0155
 5270TIP3   OH215773   1.034   6.603   3.535  0.0730  0.1992  0.0437
 5270TIP3    H115774   0.977   6.669   3.496  0.3636  1.2647  1.3475
 5270TIP3    H215775   1.082   6.566   3.461 -0.6803  0.8728 -0.8068
 5271TIP3   OH215776   2.271   1.538   4.402 -0.0797 -0.0298  0.6410
 5271TIP3    H115777   2.299   1.496   4.483 -1.3862 -1.7502  0.2519
 5271TIP3    H215778   2.350   1.542   4.348  0.1761 -1.6302  0.8618
 5272TIP3   OH215779   5.603   0.047   4.934 -0.3723  0.4022  0.4075
 5272TIP3    H115780   5.651   0.123   4.902  0.0435 -0.1070 -0.2205
 5272TIP3    H215781   5.542   0.082   4.999  1.6739  0.9189  2.1550
 5273TIP3   OH215782   2.305   6.196   1.782 -0.4196 -0.4830  0.7351
 5273TIP3    H115783   2.262   6.141   1.848 -0.9269  1.5385  2.1739
 5273TIP3    H215784   2.396   6.166   1.782 -0.9503 -2.2110  0.4609
 5274TIP3   OH215785   2.407   4.626   3.760 -0.7963  0.2956 -0.0771
 5274TIP3    H115786   2.437   4.688   3.693  1.0107 -1.1188 -0.6469
 5274TIP3    H215787   2.314   4.613   3.739 -0.7526  1.3807 -1.0848
 5275TIP3   OH215788   4.928   3.818   5.152  0.0986 -0.4421 -0.2119
 5275TIP3    H115789   4.954   3.760   5.080  0.2984  0.1142 -0.5983
 5275TIP3    H215790   4.980   3.790   5.227 -0.8210 -1.6730 -0.0028
 5276TIP3   OH215791   6.617   1.050   0.851  0.1547  0.2646  0.4441
 5276TIP3    H115792   6.701   1.006   0.843  0.8908  1.8773 -1.7336
 5276TIP3    H215793   6.558   0.999   0.794  0.7695  1.4587 -1.3342
 5277TIP3   OH215794   1.060   1.787   3.487 -0.1415  0.3219 -0.1787
 5277TIP3    H115795   1.147   1.775   3.450  0.1427  2.2532 -0.2285
 5277TIP3    H215796   1.061   1.876   3.523 -2.5801  1.0556 -1.6612
 5278TIP3   OH215797   5.450   2.449   1.736  0.6179 -0.2006 -0.4921
 5278TIP3    H115798   5.354   2.455   1.730  0.3389 -1.2473  1.9089
 5278TIP3    H215799   5.473   2.382   1.672 -0.3893 -0.7037 -0.3622
 5279TIP3   OH215800   5.279   6.084   4.192  0.4425 -0.1805 -0.4374
 5279TIP3    H115801   5.222   6.082   4.116  0.7438  1.4477 -0.7357
 5279TIP3    H215802   5.364   6.113   4.159  0.1286  2.3522  0.7278
 5280TIP3   OH215803   5.743   5.740   2.163 -0.0807  0.2414  0.3735
 5280TIP3    H115804   5.801   5.777   2.230  1.1701  1.3869 -1.2872
 5280TIP3    H215805   5.709   5.816   2.116 -1.7666 -0.4962  0.3392
 5281TIP3   OH215806   7.082   1.762   1.754  0.7203  0.0655  0.0823
 5281TIP3    H115807   7.112   1.832   1.812  2.5905  0.8345 -1.6809
 5281TIP3    H215808   7.016   1.804   1.698 -0.1604 -0.3402  0.7946
 5282TIP3   OH215809   4.723   3.621   5.164  0.3266 -0.2808  0.2312
 5282TIP3    H115810   4.773   3.702   5.167 -1.2342  0.7071  0.5851
 5282TIP3    H215811   4.674   3.626   5.082 -0.5269 -0.3832  0.7209
 5283TIP3   OH215812   4.019   1.126   4.211 -0.5455 -0.2350  0.6971
 5283TIP3    H115813   3.927   1.142   4.233  0.0765  1.0871  2.5692
 5283TIP3    H215814   4.045   1.052   4.266 -0.7066 -1.2821 -0.5710
 5284TIP3   OH215815   2.881   6.074   1.597  0.4601 -0.5163 -0.0699
 5284TIP3    H115816   2.852   5.983   1.610 -1.1903 -0.1007 -0.6011
 5284TIP3    H215817   2.857   6.094   1.507  1.4187  0.2557 -0.1700
 5285TIP3   OH215818   6.780   6.176   2.820 -0.0194  0.3060  0.3753
 5285TIP3    H115819   6.712   6.138   2.764 -0.5606  1.8885 -0.1110
 5285TIP3    H215820   6.736   6.192   2.904  0.6083 -1.4470  1.0691
 5286TIP3   OH215821   2.916   3.066   0.276 -0.1006  0.3742 -0.1497
 5286TIP3    H115822   2.935   3.151   0.317  0.4629  1.3092 -2.2019
 5286TIP3    H215823   3.002   3.024   0.269 -0.6439 -1.8835  3.6615
 5287TIP3   OH215824   2.151   2.917   1.566  0.2682 -0.1603 -0.2899
 5287TIP3    H115825   2.115   2.834   1.535  0.7272 -0.2492 -0.5941
 5287TIP3    H215826   2.079   2.980   1.556  0.1011 -0.3989 -0.6164
 5288TIP3   OH215827   2.937   1.341   5.745  0.3439 -0.3515  0.6584
 5288TIP3    H115828   2.869   1.368   5.806 -0.9530 -1.2828 -0.3160
 5288TIP3    H215829   2.938   1.245   5.749  2.2334 -0.3554  1.2854
 5289TIP3   OH215830   7.167   0.733   5.691 -0.2163 -0.1254  0.5684
 5289TIP3    H115831   7.081   0.743   5.731 -0.0513  0.2468  0.8321
 5289TIP3    H215832   7.208   0.819   5.698 -0.0351 -0.1575 -0.0599
 5290TIP3   OH215833   6.729   5.911   3.468 -0.5699 -0.2523 -0.2377
 5290TIP3    H115834   6.717   5.867   3.384 -0.2592  1.2057 -1.0857
 5290TIP3    H215835   6.815   5.953   3.460 -1.0156  0.8099  0.3670
 5291TIP3   OH215836   1.134   5.126   2.020 -0.0097 -0.4078  0.0362
 5291TIP3    H115837   1.181   5.197   1.976  0.5393 -0.2811  0.8115
 5291TIP3    H215838   1.045   5.160   2.031 -0.2390 -0.5559 -1.2284
 5292TIP3   OH215839   2.488   2.891   4.887 -0.4785  0.1931  0.2015
 5292TIP3    H115840   2.397   2.905   4.861 -0.8201  0.8720  1.6697
 5292TIP3    H215841   2.507   2.962   4.948  1.2873  0.4913 -0.6462
 5293TIP3   OH215842   4.605   3.885   2.949  0.4436  0.1467 -0.1744
 5293TIP3    H115843   4.693   3.908   2.919  0.9664 -0.5348  0.7759
 5293TIP3    H215844   4.556   3.967   2.945  1.2616  0.6442 -0.2670
 5294TIP3   OH215845   5.081   5.423   4.475 -0.4034 -0.1491 -0.6946
 5294TIP3    H115846   5.089   5.504   4.525 -1.0174  0.0839 -0.9703
 5294TIP3    H215847   5.128   5.441   4.393  0.1871 -0.3667 -0.4129
 5295TIP3   OH215848   3.617   1.153   1.095  0.3302 -0.1215  0.0783
 5295TIP3    H115849   3.526   1.124   1.090  0.6247 -1.5317  2.0351
 5295TIP3    H215850   3.611   1.248   1.090 -1.4593 -0.0530  1.9850
 5296TIP3   OH215851   5.121   2.773   3.065  0.2693  0.3712  0.0866
 5296TIP3    H115852   5.061   2.827   3.116  0.5621 -0.0819  0.9152
 5296TIP3    H215853   5.207   2.791   3.101  0.4222 -0.3194  0.0862
 5297TIP3   OH215854   0.180   4.586   2.278 -0.1499  0.5711  0.3232
 5297TIP3    H115855   0.260   4.540   2.304  0.2247  0.8181 -0.3565
 5297TIP3    H215856   0.173   4.571   2.184  0.3554  2.4164 -0.0593
 5298TIP3   OH215857   5.590   2.386   2.896  0.5461 -0.5361  0.1750
 5298TIP3    H115858   5.665   2.328   2.882 -0.6455 -1.7802 -1.3622
 5298TIP3    H215859   5.564   2.413   2.808 -2.6719 -2.5973  0.3564
 5299TIP3   OH215860   0.704   5.785   0.533  0.4186 -0.4671 -0.5791
 5299TIP3    H115861   0.778   5.728   0.511  1.6266  0.7024  0.2970
 5299TIP3    H215862   0.683   5.764   0.623 -1.7554 -2.2640 -1.4067
 5300TIP3   OH215863   0.759   2.565   2.384  0.2361 -0.3290 -0.1173
 5300TIP3    H115864   0.668   2.538   2.371  0.1997 -1.5364  2.1216
 5300TIP3    H215865   0.758   2.660   2.375 -1.2318 -0.3307 -0.2016
 5301TIP3   OH215866   3.159   0.404   1.014  0.5423  0.1210  0.4429
 5301TIP3    H115867   3.088   0.387   0.951 -0.8877  1.2004  1.6742
 5301TIP3    H215868   3.239   0.395   0.963 -0.5421  0.8239 -1.5021
 5302TIP3   OH215869   5.186   4.296   2.749 -0.5296  0.1760  0.0739
 5302TIP3    H115870   5.271   4.339   2.754 -0.6026  0.3815 -0.3973
 5302TIP3    H215871   5.197   4.214   2.798 -0.3324  0.6349  0.8065
 5303TIP3   OH215872   1.888   1.735   0.418 -0.0287 -0.0261  0.2789
 5303TIP3    H115873   1.862   1.644   0.404 -0.2138  0.1174 -0.3452
 5303TIP3    H215874   1.807   1.785   0.407  0.1017  0.2282  0.4697
 5304TIP3   OH215875   1.298   3.927   4.211 -0.1202 -0.1926  0.1843
 5304TIP3    H115876   1.245   3.947   4.134 -2.2469 -0.0664  1.6181
 5304TIP3    H215877   1.371   3.989   4.206 -0.4938  0.1687 -1.4284
 5305TIP3   OH215878   0.370   4.967   1.668  0.6590 -0.2794 -0.2040
 5305TIP3    H115879   0.311   5.040   1.650  2.7281  1.5725  0.1530
 5305TIP3    H215880   0.355   4.944   1.759  1.2982  0.9765  0.2270
 5306TIP3   OH215881   5.850   5.599   0.780  0.1038  0.3256  0.2747
 5306TIP3    H115882   5.756   5.579   0.779  0.0132  0.5529  1.8133
 5306TIP3    H215883   5.875   5.601   0.687 -0.8886 -2.1031 -0.1208
 5307TIP3   OH215884   5.314   5.752   3.448  0.3573  0.0360 -0.3353
 5307TIP3    H115885   5.281   5.837   3.477  1.9786  0.3698  0.6566
 5307TIP3    H215886   5.280   5.690   3.513 -0.1621  0.0447 -0.5984
 5308TIP3   OH215887   7.156   3.636   0.383 -0.0019  0.1431 -0.3961
 5308TIP3    H115888   7.069   3.664   0.409 -0.0479 -0.5432  0.2227
 5308TIP3    H215889   7.168   3.552   0.427  0.2961 -0.5957 -1.8356
 5309TIP3   OH215890   6.201   0.357   4.396  0.0668 -0.5080  0.2612
 5309TIP3    H115891   6.223   0.443   4.431 -1.9629 -0.2702  1.0498
 5309TIP3    H215892   6.126   0.328   4.448 -1.7554 -1.0683 -2.4674
 5310TIP3   OH215893   1.346   5.895   3.927  0.3963 -0.4325  0.0526
 5310TIP3    H115894   1.300   5.888   3.844 -0.0325  0.3427  0.2124
 5310TIP3    H215895   1.429   5.938   3.905  1.0181 -1.7389 -0.2196
 5311TIP3   OH215896   5.623   1.322   1.287  0.2076  0.4176  0.4868
 5311TIP3    H115897   5.570   1.300   1.211 -0.2457 -0.3145  1.0014
 5311TIP3    H215898   5.710   1.290   1.266  0.3690  1.3156 -0.2227
 5312TIP3   OH215899   5.374   0.458   2.442  0.6258 -0.0860 -0.3371
 5312TIP3    H115900   5.298   0.465   2.500  2.0823  0.3991  1.6104
 5312TIP3    H215901   5.373   0.539   2.391 -1.9225 -1.4709 -2.7212
 5313TIP3   OH215902   2.521   1.764   1.969  0.0074 -0.2444  0.2389
 5313TIP3    H115903   2.510   1.673   1.999 -1.4814  0.2230  1.2044
 5313TIP3    H215904   2.537   1.814   2.049  1.4267  0.2887 -0.3514
 5314TIP3   OH215905   5.179   0.645   1.817 -0.4608 -0.5105  0.6546
 5314TIP3    H115906   5.099   0.655   1.764 -0.1746  0.2173  0.3554
 5314TIP3    H215907   5.218   0.732   1.818  1.7053 -1.3614 -1.3740
 5315TIP3   OH215908   0.009   3.232   4.168  0.1455 -0.0459 -0.3911
 5315TIP3    H115909   0.029   3.303   4.107 -0.4428 -0.5341 -1.1817
 5315TIP3    H215910  -0.035   3.166   4.113 -1.3487 -0.0504  0.7574
 5316TIP3   OH215911   0.768   4.000   5.515 -0.2195 -0.4167 -0.2137
 5316TIP3    H115912   0.709   3.938   5.472 -1.3860  1.2756 -1.1769
 5316TIP3    H215913   0.833   4.021   5.447 -1.0537  0.9502 -0.6286
 5317TIP3   OH215914   2.916   2.882   2.948  0.2180 -0.5220  0.7022
 5317TIP3    H115915   2.930   2.813   2.884  0.1627 -0.2655  0.4148
 5317TIP3    H215916   2.841   2.931   2.915 -0.3727 -0.9196  1.4118
 5318TIP3   OH215917   3.286   3.221   3.119 -0.8631 -0.4957 -0.6466
 5318TIP3    H115918   3.201   3.224   3.164 -0.6140 -1.3782 -0.1036
 5318TIP3    H215919   3.282   3.143   3.065  0.2090 -1.5150  0.6593
 5319TIP3   OH215920   6.334   6.283   2.207  0.6710 -0.0812 -0.2612
 5319TIP3    H115921   6.416   6.298   2.254  0.3944  1.1232 -0.1246
 5319TIP3    H215922   6.321   6.363   2.155 -2.0440  1.2618  2.2160
 5320TIP3   OH215923   3.406   2.321   2.955 -0.2221  0.2878  0.5249
 5320TIP3    H115924   3.395   2.273   2.872  0.2692  1.3955 -0.2032
 5320TIP3    H215925   3.486   2.371   2.943 -1.1565  1.9423  0.9418
 5321TIP3   OH215926   6.071   5.631   3.553  0.3122 -0.0112  0.4561
 5321TIP3    H115927   5.996   5.689   3.565 -0.6973 -1.3050  0.5922
 5321TIP3    H215928   6.077   5.582   3.635  3.0169  1.9199  1.5644
 5322TIP3   OH215929   6.979   1.336   3.828  0.3370  0.0099 -0.2869
 5322TIP3    H115930   6.968   1.300   3.740 -0.1306 -1.0475  0.1852
 5322TIP3    H215931   6.899   1.310   3.875  0.4899  0.7251  0.3921
 5323TIP3   OH215932   5.009   4.433   3.499  0.1295  0.3639  0.0058
 5323TIP3    H115933   5.083   4.400   3.550  0.7398  0.7526 -0.6002
 5323TIP3    H215934   5.048   4.461   3.416 -0.9902 -1.2030 -1.0938
 5324TIP3   OH215935   3.396   2.609   2.187  0.4528  0.0581  0.8496
 5324TIP3    H115936   3.347   2.673   2.136  0.0400 -0.3215  0.7607
 5324TIP3    H215937   3.444   2.661   2.251  2.3389  0.6926 -0.9943
 5325TIP3   OH215938   3.479   4.921   0.423 -0.0045 -0.2361 -0.5804
 5325TIP3    H115939   3.438   4.852   0.475 -1.0390  1.3001  0.7388
 5325TIP3    H215940   3.507   4.986   0.487  0.9358  0.5948 -1.7757
 5326TIP3   OH215941   0.981   2.366   1.712 -0.0759  0.4335  0.2145
 5326TIP3    H115942   1.020   2.434   1.657 -0.0396  1.0330  0.9722
 5326TIP3    H215943   0.903   2.339   1.664  0.7547 -0.1188 -0.8606
 5327TIP3   OH215944   6.711   4.269   5.068 -0.2317  0.0693  0.8269
 5327TIP3    H115945   6.647   4.336   5.090  0.7529  0.5919  2.2159
 5327TIP3    H215946   6.713   4.269   4.972  0.3411  2.6431  0.7560
 5328TIP3   OH215947   1.388   0.467   3.554 -0.1099 -0.2861 -0.3755
 5328TIP3    H115948   1.412   0.475   3.646  1.4363  0.5153 -0.7988
 5328TIP3    H215949   1.395   0.557   3.520  2.1918 -0.9490 -1.8801
 5329TIP3   OH215950   3.899   4.765   4.252 -0.2578 -0.0620  0.4026
 5329TIP3    H115951   3.895   4.859   4.269 -1.2214 -0.0136 -0.0581
 5329TIP3    H215952   3.871   4.756   4.161 -0.6800 -0.8422  0.6074
 5330TIP3   OH215953   5.645   1.587   1.112  0.1405 -0.1428  0.2525
 5330TIP3    H115954   5.707   1.660   1.105  0.1738 -0.2491 -0.7884
 5330TIP3    H215955   5.698   1.513   1.143  0.4437 -0.0990 -0.1412
 5331TIP3   OH215956   3.590   4.206   2.288  0.0119 -0.4240  0.9206
 5331TIP3    H115957   3.653   4.264   2.330 -0.3370  0.6093  0.0642
 5331TIP3    H215958   3.642   4.132   2.256  0.6424 -0.0244  1.0140
 5332TIP3   OH215959   4.177   2.339   3.804  0.1535 -0.3549  0.8077
 5332TIP3    H115960   4.118   2.267   3.827  0.7773 -1.0203  0.3981
 5332TIP3    H215961   4.153   2.362   3.714 -0.2476  0.1645  1.0430
 5333TIP3   OH215962   0.073   5.224   3.568  0.1324 -0.1052  0.0704
 5333TIP3    H115963   0.005   5.156   3.567  0.7977 -0.7935  0.5155
 5333TIP3    H215964   0.028   5.303   3.596 -0.4226 -0.6304  0.6942
 5334TIP3   OH215965   2.253   2.861   2.743  0.1743 -0.4718 -0.2455
 5334TIP3    H115966   2.321   2.802   2.775 -1.8613 -1.6228  2.2797
 5334TIP3    H215967   2.202   2.884   2.820 -2.5729  0.0086 -2.0547
 5335TIP3   OH215968   0.140   5.152   0.397 -0.0192 -0.3553 -0.4590
 5335TIP3    H115969   0.048   5.143   0.423 -0.1505 -0.0369 -0.7938
 5335TIP3    H215970   0.158   5.246   0.407  0.7644 -0.6619  1.2115
 5336TIP3   OH215971   6.873   0.930   0.781  0.1981  0.1834 -0.2282
 5336TIP3    H115972   6.913   0.851   0.819  0.1017 -0.2241 -0.9525
 5336TIP3    H215973   6.945   0.991   0.772  0.1193  0.5152  1.1532
 5337TIP3   OH215974   4.728   6.053   1.920 -0.0880 -0.0497  0.6715
 5337TIP3    H115975   4.773   6.042   1.837 -0.1435 -0.5209  0.7010
 5337TIP3    H215976   4.781   6.117   1.968  1.0198 -1.2019  1.0365
 5338TIP3   OH215977   1.426   4.668   4.907  0.1355 -0.5038 -0.0311
 5338TIP3    H115978   1.485   4.595   4.923 -1.0605 -1.1853  1.5555
 5338TIP3    H215979   1.480   4.746   4.917  1.1589 -1.1313 -0.5026
 5339TIP3   OH215980   3.675   1.183   0.782  0.0719  0.1703 -0.6276
 5339TIP3    H115981   3.742   1.219   0.840 -1.8050  1.4218  0.8682
 5339TIP3    H215982   3.593   1.220   0.814 -1.4854 -2.0553 -1.7888
 5340TIP3   OH215983   3.664   1.123   3.295 -0.5036  0.0148 -0.1079
 5340TIP3    H115984   3.696   1.213   3.300  0.1289 -0.2492  0.9303
 5340TIP3    H215985   3.699   1.090   3.212  0.0791  0.4256 -0.0334
 5341TIP3   OH215986   6.857   6.437   2.723  0.2345 -0.0466 -0.1943
 5341TIP3    H115987   6.853   6.348   2.758 -1.7693  0.4293  0.8921
 5341TIP3    H215988   6.864   6.493   2.800  0.6344  0.7891 -0.8251
 5342TIP3   OH215989   4.707   2.513   5.076  0.0624 -0.0027 -0.5905
 5342TIP3    H115990   4.699   2.583   5.141 -2.2199 -1.1028  0.4106
 5342TIP3    H215991   4.801   2.492   5.076  0.4000  1.2382  1.0216
 5343TIP3   OH215992   0.776   2.992   0.814 -0.2974  0.5737  0.0458
 5343TIP3    H115993   0.806   3.047   0.741  2.3135  0.8071  1.1820
 5343TIP3    H215994   0.681   2.995   0.808 -0.2065  1.1588 -2.9101
 5344TIP3   OH215995   5.314   2.631   3.904 -0.1986 -0.0482 -0.3706
 5344TIP3    H115996   5.353   2.544   3.916  1.0695  0.4514 -0.6733
 5344TIP3    H215997   5.383   2.692   3.929 -0.0472  0.9177 -2.8265
 5345TIP3   OH215998   1.280   0.251   5.580  0.3171  0.0963  0.0032
 5345TIP3    H115999   1.284   0.251   5.485 -0.9768  0.7429 -0.0735
 5345TIP3    H216000   1.267   0.160   5.604  1.0689 -0.1274 -0.4005
 5346TIP3   OH216001   4.949   4.627   4.260 -0.4789  0.1565 -0.3428
 5346TIP3    H116002   4.931   4.534   4.277  0.4203  0.1522  0.6564
 5346TIP3    H216003   5.009   4.653   4.330 -0.3177  1.3634 -0.9131
 5347TIP3   OH216004   2.018   2.600   0.856  0.1028  0.2467  0.4858
 5347TIP3    H116005   2.051   2.584   0.768 -0.7437 -1.0275  0.3705
 5347TIP3    H216006   2.019   2.514   0.898 -2.4899  0.2178  0.6456
 5348TIP3   OH216007   2.301   0.029   2.703  0.4492  0.9581 -0.4223
 5348TIP3    H116008   2.302   0.079   2.621 -0.6068 -1.1753 -1.8128
 5348TIP3    H216009   2.209   0.026   2.728  0.5809  0.2094 -0.0224
 5349TIP3   OH216010   4.012   6.103   0.328  0.1454 -0.1842 -0.6976
 5349TIP3    H116011   4.084   6.041   0.337  0.1639 -0.0740 -0.0732
 5349TIP3    H216012   4.019   6.161   0.404 -1.7296 -1.3465  0.4560
 5350TIP3   OH216013   3.538   3.930   3.535  0.2394  0.2445 -0.1935
 5350TIP3    H116014   3.487   3.970   3.465  1.0519 -1.7343 -2.0111
 5350TIP3    H216015   3.625   3.916   3.497  0.5668 -1.3654  1.0381
 5351TIP3   OH216016   1.271   0.226   1.921 -0.1462 -0.0374  0.1266
 5351TIP3    H116017   1.276   0.319   1.944 -1.0225 -0.3702  1.8674
 5351TIP3    H216018   1.361   0.203   1.897  0.0095  1.3279 -0.7511
 5352TIP3   OH216019   0.595   1.315   0.663 -0.2383 -0.2827  0.3347
 5352TIP3    H116020   0.544   1.394   0.649  0.4509  0.5073  1.9651
 5352TIP3    H216021   0.658   1.339   0.732 -0.0134 -2.2306  0.8702
 5353TIP3   OH216022   0.968   4.245   1.098  0.1013 -0.6873  0.1768
 5353TIP3    H116023   1.006   4.282   1.178  0.2172  0.0601 -0.2188
 5353TIP3    H216024   1.033   4.263   1.030 -1.2132  1.2272 -0.6493
 5354TIP3   OH216025   6.839   4.648   1.390  0.2347 -0.1013 -0.3135
 5354TIP3    H116026   6.927   4.679   1.371 -0.2212  1.4631 -0.0329
 5354TIP3    H216027   6.800   4.717   1.445 -0.8857 -1.1415  0.2560
 5355TIP3   OH216028   5.538   0.620   2.703  0.2468  0.0680 -0.0960
 5355TIP3    H116029   5.562   0.644   2.613 -0.1654 -1.6551 -0.7012
 5355TIP3    H216030   5.475   0.688   2.729 -0.7657 -0.2033 -1.6693
 5356TIP3   OH216031   2.977   1.932   5.798  0.4509 -0.0883 -0.1137
 5356TIP3    H116032   2.949   1.908   5.709 -0.2343  1.8240 -0.4733
 5356TIP3    H216033   2.996   1.849   5.841 -1.3786 -1.2149 -1.3511
 5357TIP3   OH216034   2.352   5.930   4.470  0.6523 -0.2033 -0.2556
 5357TIP3    H116035   2.268   5.892   4.444 -0.2366  1.2169  0.4195
 5357TIP3    H216036   2.416   5.884   4.415 -0.6907 -0.3612 -1.7945
 5358TIP3   OH216037   5.801   3.680   1.542 -0.0568 -0.6579 -0.1105
 5358TIP3    H116038   5.860   3.753   1.565  0.0332 -0.4100 -1.0763
 5358TIP3    H216039   5.718   3.723   1.520  0.3202 -0.7157 -1.7997
 5359TIP3   OH216040   0.623   4.365   4.426  0.4066 -0.2527  0.4398
 5359TIP3    H116041   0.662   4.345   4.340  0.1635 -0.4928  0.3830
 5359TIP3    H216042   0.646   4.456   4.442 -2.1350  0.8316 -1.3133
 5360TIP3   OH216043   4.935   2.228   1.595 -0.7156  0.2870  0.1779
 5360TIP3    H116044   4.994   2.167   1.641 -0.2069  0.0877 -0.7025
 5360TIP3    H216045   4.952   2.211   1.502 -1.8630  0.5357 -0.0891
 5361TIP3   OH216046   5.680   4.425   1.032 -0.1475 -0.6046  0.3016
 5361TIP3    H116047   5.670   4.507   1.082  2.0776  2.0719 -3.1545
 5361TIP3    H216048   5.759   4.385   1.070  0.2791  0.2547  0.3695
 5362TIP3   OH216049   1.125   6.800   4.353 -0.3218  0.1991 -0.2053
 5362TIP3    H116050   1.078   6.722   4.322  0.6025 -1.0088  1.2729
 5362TIP3    H216051   1.069   6.837   4.420 -0.6468  0.6716 -0.7337
 5363TIP3   OH216052   0.763   5.513   5.034 -0.2119 -0.0931 -0.0469
 5363TIP3    H116053   0.746   5.506   4.940 -0.7319 -1.0346  0.1066
 5363TIP3    H216054   0.702   5.451   5.074  0.1952  0.0991  0.8927
 5364TIP3   OH216055   0.588   4.230   0.762  0.2112  0.2400 -0.5751
 5364TIP3    H116056   0.627   4.297   0.818  1.2184 -1.5825  1.0255
 5364TIP3    H216057   0.661   4.173   0.738 -0.9071 -1.4633 -0.1157
 5365TIP3   OH216058   5.961   3.671   2.321  0.3522  0.1647 -0.9955
 5365TIP3    H116059   5.992   3.671   2.230 -0.8550  0.6186 -1.4342
 5365TIP3    H216060   5.886   3.732   2.320  0.5697  0.4820  0.3915
 5366TIP3   OH216061   4.926   6.200   2.273 -0.0314 -0.0288 -0.2349
 5366TIP3    H116062   4.969   6.231   2.194  1.0621 -0.7646  0.0448
 5366TIP3    H216063   4.840   6.170   2.244  0.3173 -0.1774 -1.1304
 5367TIP3   OH216064   6.646   5.068   4.421  0.0395  0.0871 -0.0493
 5367TIP3    H116065   6.670   4.983   4.383 -3.2146 -0.2636 -1.6716
 5367TIP3    H216066   6.662   5.057   4.515  1.2611 -1.7111 -0.4050
 5368TIP3   OH216067   1.361   6.574   4.926  0.0065 -0.1708  0.3900
 5368TIP3    H116068   1.374   6.480   4.939 -1.7127 -0.6846 -1.1226
 5368TIP3    H216069   1.401   6.592   4.841  1.3111  0.7435  1.1595
 5369TIP3   OH216070   5.832   6.462   2.956  0.2784 -0.1041  0.6847
 5369TIP3    H116071   5.863   6.453   2.866 -0.3341 -0.0180  0.4565
 5369TIP3    H216072   5.790   6.378   2.975  0.8679 -0.3183  1.0820
 5370TIP3   OH216073   7.139   4.953   1.147 -0.3620 -0.0984 -0.3866
 5370TIP3    H116074   7.086   4.935   1.224 -1.3715  4.5021  0.2696
 5370TIP3    H216075   7.080   4.935   1.073 -1.4101  0.8559  0.1813
 5371TIP3   OH216076   7.128   5.091   5.310 -0.3482 -0.0910  0.2173
 5371TIP3    H116077   7.064   5.044   5.256 -0.5320  0.2207  0.1645
 5371TIP3    H216078   7.212   5.067   5.273 -0.2534 -2.2451  1.5994
 5372TIP3   OH216079   6.491   0.444   5.495  0.4471  0.1673 -0.7080
 5372TIP3    H116080   6.428   0.372   5.486  0.7610 -0.1506 -0.3845
 5372TIP3    H216081   6.511   0.470   5.405  0.5387 -0.3279 -0.8325
 5373TIP3   OH216082   1.871   0.044   2.568 -0.8338  0.2398 -0.5440
 5373TIP3    H116083   1.827   0.115   2.521 -1.6074 -0.5815 -1.0852
 5373TIP3    H216084   1.808  -0.027   2.569  0.4246 -0.9468 -1.2749
 5374TIP3   OH216085   3.717   3.359   5.159 -0.2203  0.2187 -0.2570
 5374TIP3    H116086   3.697   3.296   5.090  0.0139  0.7750 -0.8439
 5374TIP3    H216087   3.716   3.307   5.240  0.8077 -0.7177 -0.8160
 5375TIP3   OH216088   4.626   6.555   4.931 -0.1811 -0.1144  0.2303
 5375TIP3    H116089   4.585   6.480   4.974  1.3009  1.0799  4.2084
 5375TIP3    H216090   4.679   6.596   5.000 -0.7427  4.4961 -1.6880
 5376TIP3   OH216091   4.144   2.710   0.814 -0.5264  0.0607 -0.6042
 5376TIP3    H116092   4.121   2.645   0.881  0.1261 -0.7727 -1.1511
 5376TIP3    H216093   4.190   2.778   0.861  1.9850 -1.6070 -0.4442
 5377TIP3   OH216094   5.791   1.532   2.110  0.4350 -0.2640 -0.1197
 5377TIP3    H116095   5.769   1.446   2.073  0.9070 -0.8053  0.8184
 5377TIP3    H216096   5.851   1.571   2.046  0.3416 -0.6956 -0.4778
 5378TIP3   OH216097   2.856   2.378   5.046 -0.4752 -0.1029  0.1354
 5378TIP3    H116098   2.905   2.456   5.072  0.6308 -0.4334 -0.8895
 5378TIP3    H216099   2.876   2.314   5.113  2.9725 -1.1959 -1.6944
 5379TIP3   OH216100   5.810   3.361   2.504 -0.7141 -0.1037 -0.0011
 5379TIP3    H116101   5.777   3.385   2.418  2.1216 -0.2773 -1.2585
 5379TIP3    H216102   5.796   3.267   2.510  0.0014 -0.2734 -0.7705
 5380TIP3   OH216103   6.823   6.789   1.568 -0.1012  0.4245  0.0893
 5380TIP3    H116104   6.907   6.761   1.602  0.2028 -0.9725 -1.6677
 5380TIP3    H216105   6.769   6.803   1.645  1.7506  1.5394  1.2698
 5381TIP3   OH216106   1.344   1.229   4.305 -0.1720 -0.2878 -0.0333
 5381TIP3    H116107   1.351   1.136   4.325  3.0380 -0.9858 -3.2930
 5381TIP3    H216108   1.394   1.272   4.374 -0.5743 -1.0560  0.7674
 5382TIP3   OH216109   3.128   6.143   5.532  0.5967 -0.3570  0.4041
 5382TIP3    H116110   3.125   6.126   5.626 -2.5175  1.1277  0.7307
 5382TIP3    H216111   3.209   6.102   5.502  0.3579 -3.2927  3.2266
 5383TIP3   OH216112   5.442   5.053   0.623 -0.2312 -0.1371  0.4086
 5383TIP3    H116113   5.351   5.067   0.649 -0.0020 -1.1908  1.9229
 5383TIP3    H216114   5.484   5.138   0.635 -1.1764  0.6101 -1.2010
 5384TIP3   OH216115   2.053   4.330   1.448  0.5228 -0.3948  0.5477
 5384TIP3    H116116   2.027   4.409   1.400 -0.4589 -0.2635  1.2499
 5384TIP3    H216117   2.123   4.359   1.506  0.2296 -0.0555  0.7367
 5385TIP3   OH216118   4.163   4.577   0.319  0.1017 -0.0032 -0.6523
 5385TIP3    H116119   4.156   4.636   0.244 -1.2779 -1.1225 -1.4465
 5385TIP3    H216120   4.170   4.490   0.280 -0.8157 -0.6225  0.5199
 5386TIP3   OH216121   3.417   0.065   4.650 -0.0997 -0.0726 -0.5032
 5386TIP3    H116122   3.512   0.058   4.662 -0.2561 -1.1865  0.2484
 5386TIP3    H216123   3.402   0.157   4.629  1.3073 -0.2236 -2.3713
 5387TIP3   OH216124   7.117   2.239   2.405 -0.4581 -0.2089 -0.6545
 5387TIP3    H116125   7.145   2.236   2.314 -0.3777  0.1316 -0.6416
 5387TIP3    H216126   7.199   2.242   2.455 -0.4863 -0.9873 -0.5418
 5388TIP3   OH216127   6.026   4.249   4.457  0.5236  0.8517 -0.0562
 5388TIP3    H116128   5.971   4.260   4.379  1.2992  0.2877 -0.7068
 5388TIP3    H216129   5.993   4.314   4.519 -1.5854 -0.1717 -0.0019
 5389TIP3   OH216130   3.376   1.121   1.374 -0.1188 -0.1264 -0.1498
 5389TIP3    H116131   3.349   1.040   1.330 -0.8174  0.4665 -0.8461
 5389TIP3    H216132   3.369   1.188   1.306 -2.0381  0.9780  1.0509
 5390TIP3   OH216133   3.706   5.223   0.449  0.3190 -0.4180 -0.1590
 5390TIP3    H116134   3.799   5.241   0.460  0.0602  2.3496 -1.4608
 5390TIP3    H216135   3.696   5.208   0.355 -0.5418 -0.8890 -0.0032
 5391TIP3   OH216136   6.841   1.076   5.525 -0.1515 -0.2158  0.4464
 5391TIP3    H116137   6.763   1.126   5.502 -0.6517 -0.7415  0.9576
 5391TIP3    H216138   6.842   1.077   5.621  0.7812  0.2581  0.4366
 5392TIP3   OH216139   5.731   5.489   3.088 -0.4578 -0.4450  0.0184
 5392TIP3    H116140   5.657   5.480   3.149 -1.3779  1.4483 -0.7059
 5392TIP3    H216141   5.809   5.475   3.142 -1.1450  2.7445  2.1273
 5393TIP3   OH216142   4.775   5.181   0.797 -0.3007  0.5950 -0.4576
 5393TIP3    H116143   4.839   5.194   0.726 -0.0908 -0.5901 -0.5091
 5393TIP3    H216144   4.700   5.235   0.772  1.0221  2.8266  0.1091
 5394TIP3   OH216145   6.070   0.820   2.888 -0.6047  0.0623  0.0467
 5394TIP3    H116146   6.165   0.811   2.885 -0.3658  2.1356 -0.2703
 5394TIP3    H216147   6.050   0.884   2.820 -1.9642  1.2890  1.5134
 5395TIP3   OH216148   0.784   2.268   4.784 -0.2702 -0.1431  0.1089
 5395TIP3    H116149   0.851   2.309   4.839  0.3225 -0.7179 -0.1791
 5395TIP3    H216150   0.717   2.240   4.846  0.1037 -0.2292  0.4769
 5396TIP3   OH216151   6.449   4.532   3.756 -0.1135 -0.7500  0.2423
 5396TIP3    H116152   6.487   4.619   3.743  0.5502 -1.1201 -0.3574
 5396TIP3    H216153   6.420   4.532   3.847 -0.0476  0.0659  0.2733
 5397TIP3   OH216154   5.106   4.035   5.034 -0.5019  0.2754  0.0657
 5397TIP3    H116155   5.183   4.047   5.090 -0.3051  1.4768 -0.4416
 5397TIP3    H216156   5.062   3.958   5.071  0.0264  0.5855  1.4005
 5398TIP3   OH216157   4.247   0.664   5.015 -0.2090 -0.3671 -0.6145
 5398TIP3    H116158   4.215   0.708   5.093 -1.5446 -1.4016 -0.5268
 5398TIP3    H216159   4.322   0.613   5.045 -1.7859 -2.2100  0.4864
 5399TIP3   OH216160   6.035   5.745   1.253  0.1417  0.3278  0.6110
 5399TIP3    H116161   6.101   5.676   1.245  1.3573  1.3617  1.3244
 5399TIP3    H216162   5.959   5.711   1.206  1.5051 -0.4959 -1.1214
 5400TIP3   OH216163   3.216   4.473   5.287  0.1822  0.3574 -0.3340
 5400TIP3    H116164   3.307   4.502   5.292  0.6606 -1.1561  0.4975
 5400TIP3    H216165   3.209   4.430   5.202  0.0650  1.0096 -0.6577
 5401TIP3   OH216166   0.388   2.897   3.054  0.4141  0.6907  0.2023
 5401TIP3    H116167   0.428   2.835   3.116  1.7576  3.0237  1.8420
 5401TIP3    H216168   0.294   2.877   3.058  0.8838 -1.9860 -0.3030
 5402TIP3   OH216169   5.911   3.555   4.855 -0.3107  0.5383 -0.6459
 5402TIP3    H116170   5.946   3.597   4.776 -0.0707  1.6135  0.0119
 5402TIP3    H216171   5.956   3.598   4.927 -0.2099 -0.7251  0.0861
 5403TIP3   OH216172   0.951   0.101   2.438  0.2503  0.1926 -0.0474
 5403TIP3    H116173   0.859   0.082   2.418 -0.6718  2.8192  1.2358
 5403TIP3    H216174   0.959   0.196   2.427  2.7027  0.1057  0.3753
 5404TIP3   OH216175   2.712   2.747   4.341 -0.8143  0.1073  0.4570
 5404TIP3    H116176   2.645   2.713   4.400 -1.0930  2.3647  1.5369
 5404TIP3    H216177   2.786   2.768   4.398  1.0815 -2.6831 -0.7519
 5405TIP3   OH216178   0.051   6.005   5.742  0.3116  0.1828 -0.7028
 5405TIP3    H116179  -0.009   6.012   5.817 -0.2972 -0.8595 -1.0715
 5405TIP3    H216180  -0.006   6.014   5.665  0.3449 -2.3467 -1.1014
 5406TIP3   OH216181   3.309   4.066   1.734  0.2203 -0.4728  0.0728
 5406TIP3    H116182   3.268   3.985   1.704 -1.0581 -0.6820  2.1834
 5406TIP3    H216183   3.403   4.051   1.725 -0.0445 -1.6181 -0.9137
 5407TIP3   OH216184   6.227   1.582   2.084  0.0216 -0.5427 -0.5144
 5407TIP3    H116185   6.213   1.544   2.171 -0.5933  0.3514 -0.2069
 5407TIP3    H216186   6.321   1.576   2.071 -0.0249 -1.8523 -0.3385
 5408TIP3   OH216187   1.882   4.179   0.599 -0.6417 -0.0301  0.3963
 5408TIP3    H116188   1.974   4.189   0.621 -0.6297 -0.9147  0.8088
 5408TIP3    H216189   1.848   4.268   0.594 -0.0050  0.2710  1.2870
 5409TIP3   OH216190   0.374   4.455   4.823 -0.2962 -0.1695 -0.1331
 5409TIP3    H116191   0.340   4.407   4.747 -2.6726  1.0833  0.0346
 5409TIP3    H216192   0.295   4.482   4.871  1.0388  1.5109  1.2455
 5410TIP3   OH216193   2.782   2.091   1.864 -0.3232  0.0672  0.1868
 5410TIP3    H116194   2.789   2.153   1.792 -2.8290  0.0315 -0.1791
 5410TIP3    H216195   2.857   2.032   1.853 -0.1665  0.5833 -1.8539
 5411TIP3   OH216196   0.322   6.422   5.475 -0.5838  0.3238 -0.4206
 5411TIP3    H116197   0.278   6.397   5.557  0.5700  0.7367  0.3443
 5411TIP3    H216198   0.316   6.517   5.472 -0.8433  0.2928 -0.9491
 5412TIP3   OH216199   0.283   2.354   5.878 -0.3904 -0.3616 -0.5873
 5412TIP3    H116200   0.359   2.364   5.936 -0.4660 -0.9951 -0.3644
 5412TIP3    H216201   0.307   2.403   5.800  0.5661 -1.1191 -0.8031
 5413TIP3   OH216202   4.233   2.921   2.630  0.3036  0.0758 -0.8424
 5413TIP3    H116203   4.310   2.925   2.687 -0.8587  0.4590  0.7722
 5413TIP3    H216204   4.210   3.013   2.614 -0.0439 -0.0379 -1.0051
 5414TIP3   OH216205   4.254   4.527   5.030 -0.1603  0.0134 -0.4648
 5414TIP3    H116206   4.303   4.584   5.090  0.4284 -2.2700  1.3824
 5414TIP3    H216207   4.164   4.529   5.065 -0.0975 -0.3130 -0.2804
 5415TIP3   OH216208   0.088   6.734   4.136  0.7191 -0.4846  0.1293
 5415TIP3    H116209   0.121   6.822   4.118  0.5435 -0.0524  1.7400
 5415TIP3    H216210   0.113   6.717   4.226 -1.4358 -1.0323  0.6990
 5416TIP3   OH216211   5.446   2.821   2.658  0.4719  0.1150  0.4366
 5416TIP3    H116212   5.487   2.907   2.649 -1.6677  1.3326  1.5975
 5416TIP3    H216213   5.456   2.799   2.750 -0.0459 -0.3248  0.3931
 5417TIP3   OH216214   0.508   3.278   0.520 -0.0812  0.5164  0.2995
 5417TIP3    H116215   0.487   3.326   0.440  0.9235 -0.4398 -0.5839
 5417TIP3    H216216   0.561   3.339   0.572 -0.6981  1.1240  0.2231
 5418TIP3   OH216217   0.639   4.666   4.566  0.3288 -0.3844  0.4562
 5418TIP3    H116218   0.606   4.645   4.653  2.2331 -0.8054  1.1275
 5418TIP3    H216219   0.711   4.727   4.582  0.0520  0.3490 -0.9145
 5419TIP3   OH216220   5.526   3.836   2.724 -0.1003  0.0509  0.2431
 5419TIP3    H116221   5.580   3.824   2.802 -0.7119 -1.9798  0.4037
 5419TIP3    H216222   5.436   3.822   2.755 -0.4714  0.5087 -0.5890
 5420TIP3   OH216223   0.372   3.250   5.753 -0.3493  0.3438  0.4886
 5420TIP3    H116224   0.402   3.173   5.801  1.2394 -0.5703 -1.8366
 5420TIP3    H216225   0.276   3.247   5.761 -0.2528 -1.1821  1.3972
 5421TIP3   OH216226   3.663   0.246   2.123 -0.1217 -0.3578  0.1911
 5421TIP3    H116227   3.688   0.286   2.040 -1.5532 -0.4792 -0.3262
 5421TIP3    H216228   3.723   0.171   2.133  1.5951  0.9865  0.4541
 5422TIP3   OH216229   3.224   6.385   5.307 -0.1629 -0.1043 -0.2852
 5422TIP3    H116230   3.251   6.300   5.272 -0.5282 -0.8572  1.1957
 5422TIP3    H216231   3.278   6.397   5.385  0.7881  1.6373 -1.1670
 5423TIP3   OH216232   1.835   4.756   5.813 -0.6343  0.6168 -0.0343
 5423TIP3    H116233   1.810   4.838   5.855 -1.3889  1.1151 -1.4165
 5423TIP3    H216234   1.764   4.696   5.834 -1.2607  1.0083 -0.9674
 5424TIP3   OH216235   0.052   2.677   5.697  0.0152  1.1864  0.8167
 5424TIP3    H116236   0.115   2.705   5.763  0.4199 -0.1339  1.0132
 5424TIP3    H216237   0.037   2.585   5.715  1.3484  0.3336 -1.8736
 5425TIP3   OH216238   4.348   1.364   2.999  0.2099 -1.0643 -0.5280
 5425TIP3    H116239   4.400   1.289   2.968  0.8981 -1.2378  0.9695
 5425TIP3    H216240   4.412   1.436   3.006 -0.4134 -0.3400 -1.8039
 5426TIP3   OH216241   1.787   1.715   1.141  0.0953  0.1287  0.7033
 5426TIP3    H116242   1.824   1.761   1.216  1.3565 -0.7540  0.6572
 5426TIP3    H216243   1.838   1.635   1.134 -0.6560 -0.2821 -0.5015
 5427TIP3   OH216244   2.929   2.058   1.065  0.0180 -0.2820 -0.0090
 5427TIP3    H116245   3.019   2.034   1.088  0.1280 -0.2029 -0.3535
 5427TIP3    H216246   2.878   2.035   1.143  0.3911  0.0118  0.3245
 5428TIP3   OH216247   5.611   3.906   0.318  0.1116  0.1105  0.3102
 5428TIP3    H116248   5.688   3.964   0.320 -0.6756  1.2343 -0.4111
 5428TIP3    H216249   5.544   3.953   0.367 -0.1701 -0.8107  0.8331
 5429TIP3   OH216250   5.020   4.700   5.605  0.1005  0.0546  0.2564
 5429TIP3    H116251   4.951   4.725   5.544  0.9303 -0.0420 -0.7507
 5429TIP3    H216252   5.054   4.784   5.638  0.0378  0.1264  0.1384
 5430TIP3   OH216253   0.476   2.537   2.366 -0.0657  0.3028  0.0782
 5430TIP3    H116254   0.440   2.452   2.341 -0.5171 -0.1750  2.1188
 5430TIP3    H216255   0.463   2.593   2.290 -2.6982 -0.5826 -0.2250
 5431TIP3   OH216256   1.597   4.477   3.242  0.0849  0.0581 -0.0139
 5431TIP3    H116257   1.632   4.390   3.261  0.1023 -0.3423 -1.7125
 5431TIP3    H216258   1.673   4.527   3.212  0.2876  1.0238  1.9532
 5432TIP3   OH216259   4.100   5.787   2.357 -0.1359  0.0529  0.1909
 5432TIP3    H116260   4.077   5.697   2.334  0.5361 -0.5103  1.5911
 5432TIP3    H216261   4.057   5.841   2.290  1.9960 -1.4074 -2.5542
 5433TIP3   OH216262   3.916   3.519   0.928 -0.1690  0.0360 -0.0237
 5433TIP3    H116263   3.877   3.595   0.972  0.7056  0.6496 -0.2818
 5433TIP3    H216264   4.005   3.547   0.907 -0.1448 -0.7167 -0.9987
 5434TIP3   OH216265   3.131   0.016   3.114  0.0379 -0.7263  0.1941
 5434TIP3    H116266   3.086   0.098   3.131 -2.6022 -2.1738  0.7629
 5434TIP3    H216267   3.110  -0.005   3.023 -0.4736 -1.3923  0.4500
 5435TIP3   OH216268   1.257   5.960   5.406  0.0526 -0.1029  0.1862
 5435TIP3    H116269   1.288   6.040   5.363  2.5147 -0.5106  1.0189
 5435TIP3    H216270   1.169   5.980   5.435  1.0590  2.8584  1.5693
 5436TIP3   OH216271   4.887   2.844   3.284  0.2514  0.0742  0.2668
 5436TIP3    H116272   4.966   2.831   3.337 -0.6286  0.4412  1.7266
 5436TIP3    H216273   4.843   2.919   3.325 -1.7923 -1.2534  0.6725
 5437TIP3   OH216274   5.506   0.710   2.386  0.4359  0.3140  0.2477
 5437TIP3    H116275   5.538   0.783   2.439 -1.7544  2.1587 -0.8064
 5437TIP3    H216276   5.479   0.751   2.303 -1.9557 -1.4612  0.0490
 5438TIP3   OH216277   3.275   0.768   4.994  0.1464 -0.2178  0.4858
 5438TIP3    H116278   3.275   0.714   4.915  0.1553  0.7428 -0.1946
 5438TIP3    H216279   3.321   0.848   4.968  0.5324 -0.0527  1.5940
 5439TIP3   OH216280   4.874   6.127   5.347 -0.1669 -0.3049  0.0395
 5439TIP3    H116281   4.903   6.040   5.377 -1.6172 -0.6503  0.5128
 5439TIP3    H216282   4.862   6.177   5.428  0.6691  0.3639 -0.2318
 5440TIP3   OH216283   4.395   1.206   1.119 -0.3669 -0.2548 -0.6121
 5440TIP3    H116284   4.436   1.167   1.196  0.0575  0.6669 -0.3591
 5440TIP3    H216285   4.380   1.133   1.060 -1.7389 -1.1559  0.7987
 5441TIP3   OH216286   4.943   5.817   2.200  0.0608  0.1064 -0.3467
 5441TIP3    H116287   4.863   5.868   2.189 -0.6063 -0.6918  0.5843
 5441TIP3    H216288   4.949   5.802   2.294  2.0934  1.3513 -0.2187
 5442TIP3   OH216289   4.842   4.215   3.542  0.7244  0.8009 -0.3246
 5442TIP3    H116290   4.924   4.263   3.531  1.1850  0.3215  0.7945
 5442TIP3    H216291   4.785   4.248   3.473  0.9591  3.0670  0.4739
 5443TIP3   OH216292   5.514   2.110   0.155 -0.4207 -0.3599  0.0598
 5443TIP3    H116293   5.510   2.146   0.067  1.7788  0.5251  0.2632
 5443TIP3    H216294   5.433   2.141   0.197 -1.5725 -0.9211 -1.6475
 5444TIP3   OH216295   0.591   5.910   4.611  0.1320  0.3288  0.3132
 5444TIP3    H116296   0.570   5.854   4.685 -0.3088  1.2073  0.8801
 5444TIP3    H216297   0.616   5.850   4.541 -0.2479 -0.5557  0.9187
 5445TIP3   OH216298   6.254   3.719   1.542 -0.2235 -0.1168  0.1245
 5445TIP3    H116299   6.179   3.764   1.582 -0.5778  0.7388 -1.4247
 5445TIP3    H216300   6.327   3.739   1.601 -0.1600  3.3293 -0.8914
 5446TIP3   OH216301   5.981   6.086   2.221 -0.0630 -0.1447 -0.5012
 5446TIP3    H116302   5.924   6.012   2.243 -1.8731  1.2160 -0.3731
 5446TIP3    H216303   5.959   6.153   2.286 -0.3113  1.3827 -2.0787
 5447TIP3   OH216304   7.073   3.340   5.107  0.5809  0.9470  0.3739
 5447TIP3    H116305   7.075   3.291   5.025 -0.5531  2.6435 -0.7436
 5447TIP3    H216306   7.134   3.294   5.164  1.5685 -0.1688 -1.4771
 5448TIP3   OH216307   5.086   6.023   3.242 -0.1162 -0.5805  0.0210
 5448TIP3    H116308   5.070   5.928   3.242 -0.0848 -0.5856  0.0808
 5448TIP3    H216309   4.998   6.061   3.244 -0.1204 -0.6103  0.6506
 5449TIP3   OH216310   1.456   4.967   3.565  0.4380  1.1155  0.1705
 5449TIP3    H116311   1.477   4.880   3.601 -0.2984  1.6455  2.0024
 5449TIP3    H216312   1.370   4.955   3.524 -0.9875  1.5256  2.8319
 5450TIP3   OH216313   5.944   5.071   5.476 -0.5136  0.8710 -0.0081
 5450TIP3    H116314   5.934   5.006   5.546 -0.5162 -0.0210 -0.8281
 5450TIP3    H216315   6.034   5.062   5.447 -0.5744  1.0975 -0.2676
 5451TIP3   OH216316   2.263   5.766   1.012  0.0612  0.4148  0.2066
 5451TIP3    H116317   2.353   5.774   1.043  0.2554 -0.3643 -0.1286
 5451TIP3    H216318   2.245   5.850   0.969  0.1201  1.1291  1.5150
 5452TIP3   OH216319   3.624   5.580   3.969 -0.4046 -0.5078 -0.3316
 5452TIP3    H116320   3.529   5.570   3.973 -0.4381 -0.1336 -0.1135
 5452TIP3    H216321   3.653   5.567   4.059 -0.3919  0.6863 -0.1412
 5453TIP3   OH216322   1.088   2.114   2.765  0.1370  0.5706 -0.3707
 5453TIP3    H116323   1.160   2.062   2.731 -1.2629 -0.7742 -1.4318
 5453TIP3    H216324   1.081   2.089   2.857  1.1218  0.8713 -0.1997
 5454TIP3   OH216325   0.843   3.169   0.610  0.4950 -0.4044  0.3649
 5454TIP3    H116326   0.794   3.107   0.556  0.1239  0.1633  0.0335
 5454TIP3    H216327   0.834   3.253   0.564  0.2766  0.0619  1.2388
 5455TIP3   OH216328   6.275   1.708   4.277 -0.2864 -0.0876  0.0492
 5455TIP3    H116329   6.262   1.615   4.296 -1.5419  0.2917  1.2494
 5455TIP3    H216330   6.187   1.740   4.255  0.2900  0.6250 -1.3333
 5456TIP3   OH216331   3.606   2.164   0.557 -0.1192 -0.2594  0.0111
 5456TIP3    H116332   3.602   2.162   0.653  0.7416  1.1770  0.1208
 5456TIP3    H216333   3.628   2.074   0.532 -1.0750 -0.8249  1.0979
 5457TIP3   OH216334   7.078   5.420   3.400 -0.6991  0.1036 -0.0530
 5457TIP3    H116335   7.123   5.453   3.322  0.7748 -0.7277  0.4026
 5457TIP3    H216336   7.013   5.359   3.366  1.6376 -2.2363 -0.6027
 5458TIP3   OH216337   2.359   5.404   1.680 -0.5789  0.5778  0.1839
 5458TIP3    H116338   2.395   5.399   1.592 -0.8083 -0.2551  0.1285
 5458TIP3    H216339   2.287   5.467   1.673 -0.7602  0.3239 -0.2864
 5459TIP3   OH216340   2.880   1.778   4.142  0.4088  0.3983  0.1359
 5459TIP3    H116341   2.902   1.694   4.181  0.1852  1.2227  2.1875
 5459TIP3    H216342   2.795   1.765   4.102  1.2226 -0.8289 -1.2981
 5460TIP3   OH216343   1.715   2.957   3.303 -0.5333  0.2096  0.3520
 5460TIP3    H116344   1.758   3.029   3.256 -0.3946  0.1915  0.4499
 5460TIP3    H216345   1.646   2.999   3.354 -0.5799  0.2493  0.2573
 5461TIP3   OH216346   5.722   1.600   3.157 -0.2605 -0.0396 -0.2478
 5461TIP3    H116347   5.720   1.650   3.076  0.2325 -1.6426 -1.3117
 5461TIP3    H216348   5.811   1.611   3.190 -0.1432 -0.1962 -0.4994
 5462TIP3   OH216349   1.006   2.676   2.770  0.4061  0.1532  0.1055
 5462TIP3    H116350   1.025   2.713   2.684 -0.7507  1.6923  0.4775
 5462TIP3    H216351   0.928   2.622   2.756 -2.1273  3.3772  0.8070
 5463TIP3   OH216352   6.190   5.810   5.837  0.7138 -0.4241  0.2145
 5463TIP3    H116353   6.190   5.877   5.905 -0.6266 -0.5820  0.3937
 5463TIP3    H216354   6.255   5.746   5.867 -0.6193 -1.0494  1.9460
 5464TIP3   OH216355   6.567   4.762   5.292 -0.5063  0.1525  0.6261
 5464TIP3    H116356   6.586   4.831   5.356 -0.1374  0.8321 -0.1860
 5464TIP3    H216357   6.472   4.764   5.283 -0.6177 -0.3242  1.5416
 5465TIP3   OH216358   6.809   4.189   0.549 -0.2170  0.2033 -0.2175
 5465TIP3    H116359   6.734   4.244   0.573  0.7400  1.1212  0.8194
 5465TIP3    H216360   6.787   4.103   0.584 -1.4313  0.0545 -1.2516
 5466TIP3   OH216361   5.054   2.004   1.714  0.3691 -0.8987 -0.6880
 5466TIP3    H116362   5.058   1.948   1.792 -0.0875 -2.6181 -1.8328
 5466TIP3    H216363   5.057   1.943   1.640 -0.0122  0.6192 -2.0271
 5467TIP3   OH216364   2.172   1.860   2.489  0.7651 -0.1591  0.3934
 5467TIP3    H116365   2.092   1.809   2.500  1.0456 -0.5022  0.8615
 5467TIP3    H216366   2.141   1.950   2.478  0.3351 -0.1433  1.5246
 5468TIP3   OH216367   0.699   4.911   0.832 -0.4219  0.1010 -0.1665
 5468TIP3    H116368   0.695   4.947   0.743  0.2964 -1.4133 -0.8463
 5468TIP3    H216369   0.735   4.982   0.885 -2.0196  1.4773 -0.7968
 5469TIP3   OH216370   5.124   3.212   4.287 -0.2320 -0.8570 -0.1572
 5469TIP3    H116371   5.108   3.176   4.200  1.2048 -1.4184 -0.2233
 5469TIP3    H216372   5.191   3.155   4.324  0.3608  0.3528  0.6927
 5470TIP3   OH216373   0.425   2.617   3.302  0.4444 -0.1246 -0.1613
 5470TIP3    H116374   0.509   2.598   3.344  0.6459 -0.2785 -0.6263
 5470TIP3    H216375   0.443   2.611   3.208 -0.3791 -1.4142 -0.2541
 5471TIP3   OH216376   3.267   2.846   2.059  0.3430  0.0245  0.2074
 5471TIP3    H116377   3.249   2.884   1.973  1.9918 -1.0742 -0.6908
 5471TIP3    H216378   3.327   2.909   2.100  0.8806 -0.2445 -0.1499
 5472TIP3   OH216379   6.872   0.295   3.004 -0.0118  0.6159 -0.1783
 5472TIP3    H116380   6.840   0.269   3.091  1.7677 -1.5194 -0.0734
 5472TIP3    H216381   6.793   0.314   2.954 -1.2832 -1.1243  1.0409
 5473TIP3   OH216382   7.044   0.025   1.914 -0.2863 -0.2267 -0.3694
 5473TIP3    H116383   6.992   0.068   1.847 -0.9664 -2.5527 -1.4233
 5473TIP3    H216384   7.106  -0.029   1.866 -0.5392 -1.6660  0.8348
 5474TIP3   OH216385   1.191   5.575   5.285  0.8561 -0.0713  0.1047
 5474TIP3    H116386   1.132   5.595   5.212  2.0873  0.4560 -0.7910
 5474TIP3    H216387   1.277   5.606   5.255  1.8835 -2.0839  0.7837
 5475TIP3   OH216388   0.355   3.592   4.873 -0.5056  0.0445  0.2105
 5475TIP3    H116389   0.424   3.527   4.888 -0.6111 -1.5177 -4.4311
 5475TIP3    H216390   0.274   3.541   4.874 -1.3825  1.3340  2.4865
 5476TIP3   OH216391   0.030   6.369   3.607  0.4449 -0.2773  0.1047
 5476TIP3    H116392   0.078   6.351   3.527  0.8884 -1.0861  0.5339
 5476TIP3    H216393  -0.057   6.397   3.577  0.7059 -0.2549 -0.6522
 5477TIP3   OH216394   5.130   0.012   4.450  0.1939  0.1127 -0.1215
 5477TIP3    H116395   5.037   0.022   4.429  0.3759 -1.7842 -2.2046
 5477TIP3    H216396   5.172   0.089   4.411 -0.2552 -0.2564 -1.3997
 5478TIP3   OH216397   1.672   3.985   3.276 -0.0507 -0.3805 -0.4775
 5478TIP3    H116398   1.686   3.891   3.264  0.3258 -0.4190  0.2473
 5478TIP3    H216399   1.669   3.998   3.371  2.9828  0.7673 -0.4246
 5479TIP3   OH216400   0.041   5.837   3.196  0.3074  0.3715 -0.2097
 5479TIP3    H116401  -0.044   5.859   3.158 -0.8050  0.3417  2.0512
 5479TIP3    H216402   0.069   5.758   3.150 -2.4660 -1.5054  1.0570
 5480TIP3   OH216403   2.640   5.219   1.637 -0.0543 -0.4011 -0.1833
 5480TIP3    H116404   2.607   5.308   1.623 -0.8536 -0.5567  0.6251
 5480TIP3    H216405   2.733   5.225   1.615 -0.1614  0.5620 -0.4427
 5481TIP3   OH216406   1.856   6.663   3.428 -0.8223 -0.0525  0.8133
 5481TIP3    H116407   1.797   6.601   3.384 -0.2935  0.0373 -0.0296
 5481TIP3    H216408   1.895   6.612   3.499 -1.5399 -0.2459  1.0873
 5482TIP3   OH216409   5.058   1.216   5.442 -0.0016  0.2423  0.2336
 5482TIP3    H116410   5.113   1.253   5.373  0.2135  1.2185  0.8906
 5482TIP3    H216411   5.097   1.250   5.523  0.4905 -1.8408  0.9225
 5483TIP3   OH216412   6.006   0.574   2.059  0.0684 -0.2301  0.0416
 5483TIP3    H116413   5.934   0.573   2.122 -1.0030  0.6029 -1.1186
 5483TIP3    H216414   5.967   0.543   1.977  0.9631  0.4489 -0.6652
 5484TIP3   OH216415   2.074   6.395   1.925 -0.2374  0.2258  0.4504
 5484TIP3    H116416   2.014   6.432   1.990 -0.0905  0.5305  0.4178
 5484TIP3    H216417   2.159   6.396   1.968 -0.0388  0.9491  0.0641
 5485TIP3   OH216418   0.964   1.369   5.384 -0.4557 -0.3250  0.2901
 5485TIP3    H116419   1.029   1.435   5.359 -0.5259 -0.9626 -1.8190
 5485TIP3    H216420   0.883   1.398   5.344 -0.7096 -1.1822  0.1568
 5486TIP3   OH216421   1.882   3.379   1.132  0.0620  0.1713 -0.6920
 5486TIP3    H116422   1.790   3.362   1.113 -0.1776  0.0571  0.4946
 5486TIP3    H216423   1.929   3.306   1.092 -0.4540 -0.2862 -0.4729
 5487TIP3   OH216424   0.884   5.153   4.797 -0.1998  0.7827  0.3669
 5487TIP3    H116425   0.906   5.061   4.785  0.3611  0.9702 -0.0914
 5487TIP3    H216426   0.873   5.163   4.891  1.3524  0.5891  0.5882
 5488TIP3   OH216427   1.719   2.606   4.120 -0.0310 -0.4611 -0.3375
 5488TIP3    H116428   1.725   2.604   4.216 -0.9519  1.5746 -0.1809
 5488TIP3    H216429   1.695   2.517   4.096 -0.9507 -0.7468  1.4317
 5489TIP3   OH216430   1.783   2.962   0.279  0.4217  0.0452  0.1655
 5489TIP3    H116431   1.810   2.958   0.370  1.6052 -0.9930 -0.2091
 5489TIP3    H216432   1.865   2.960   0.229 -0.1365  1.5832 -0.9178
 5490TIP3   OH216433   2.386   1.320   0.517  0.2053  0.3944  0.0792
 5490TIP3    H116434   2.379   1.387   0.585 -0.1121 -2.9263  3.6703
 5490TIP3    H216435   2.299   1.282   0.510  0.8584 -1.1872 -0.0601
 5491TIP3   OH216436   1.235   0.756   1.661  0.2754  0.0364 -0.5627
 5491TIP3    H116437   1.226   0.785   1.752  0.6857 -0.9598 -0.1984
 5491TIP3    H216438   1.329   0.765   1.643  0.2873 -0.3616 -0.6895
 5492TIP3   OH216439   4.283   1.427   1.219  0.0787  0.6674 -0.3348
 5492TIP3    H116440   4.301   1.338   1.187 -1.5618  0.5326 -0.9968
 5492TIP3    H216441   4.188   1.436   1.211  0.1478  2.2594  0.3473
 5493TIP3   OH216442   0.364   0.162   3.134 -0.4283  0.4741  0.2786
 5493TIP3    H116443   0.402   0.130   3.215  1.7514 -0.2780 -0.9738
 5493TIP3    H216444   0.409   0.245   3.117  0.2684 -0.1107 -0.8959
 5494TIP3   OH216445   5.500   0.872   5.363  0.4180  0.1898 -0.0465
 5494TIP3    H116446   5.432   0.922   5.318 -0.3930  0.4607  1.4426
 5494TIP3    H216447   5.536   0.815   5.295 -0.2357  1.1149 -1.2198
 5495TIP3   OH216448   2.454   5.359   5.310  0.0470 -0.0455 -0.3986
 5495TIP3    H116449   2.477   5.388   5.399  1.9459 -3.0893  0.2396
 5495TIP3    H216450   2.528   5.386   5.256 -1.2236  2.0399 -1.2340
 5496TIP3   OH216451   2.047   2.441   0.579  0.1221 -0.0916 -0.5528
 5496TIP3    H116452   1.965   2.422   0.625  0.1547  0.9802 -0.0074
 5496TIP3    H216453   2.038   2.397   0.495 -1.2824  0.4901 -0.7412
 5497TIP3   OH216454   0.337   2.511   0.467 -0.8443  0.0361  0.1159
 5497TIP3    H116455   0.380   2.456   0.401 -0.8245  1.3911 -1.0666
 5497TIP3    H216456   0.404   2.573   0.494 -1.1245  0.0731  0.7436
 5498TIP3   OH216457   6.771   3.175   4.601 -0.2981 -0.3637  0.4251
 5498TIP3    H116458   6.754   3.166   4.507 -2.2831  1.4113  0.5294
 5498TIP3    H216459   6.853   3.127   4.615  1.3390  1.2344 -2.6196
 5499TIP3   OH216460   7.096   6.698   2.219 -0.1733  0.1759  0.5491
 5499TIP3    H116461   7.131   6.617   2.256 -0.3105  0.1960  0.7263
 5499TIP3    H216462   7.173   6.749   2.194 -0.0964 -0.2681 -0.1362
 5500TIP3   OH216463   6.726   4.909   1.466  0.5176 -0.0729 -0.0433
 5500TIP3    H116464   6.692   4.920   1.555  1.2338  1.9265  0.0370
 5500TIP3    H216465   6.660   4.951   1.410 -0.6846 -2.6223 -0.6883
 5501TIP3   OH216466   5.584   0.352   4.106  0.0232  0.7624 -0.1746
 5501TIP3    H116467   5.627   0.342   4.022  1.4141  1.6696  0.3997
 5501TIP3    H216468   5.619   0.280   4.160 -0.0912  0.7858 -0.0679
 5502TIP3   OH216469   3.261   4.729   3.558  0.1182  0.1109  0.2473
 5502TIP3    H116470   3.336   4.788   3.549 -0.8646  1.4433  0.6269
 5502TIP3    H216471   3.281   4.657   3.497  1.5180  0.6177  0.0555
 5503TIP3   OH216472   3.723   0.579   5.274  0.1283  0.6531 -0.2401
 5503TIP3    H116473   3.741   0.626   5.355  0.0854  1.3979 -0.6516
 5503TIP3    H216474   3.706   0.648   5.209  0.8461  0.1070 -1.0454
 5504TIP3   OH216475   0.674   2.738   2.040 -0.3890 -0.2998 -0.1184
 5504TIP3    H116476   0.715   2.796   2.104  1.1471 -1.3458 -0.0976
 5504TIP3    H216477   0.647   2.796   1.969 -0.6516  0.6737  0.7488
 5505TIP3   OH216478   1.656   3.892   4.071  0.5802 -0.4180 -0.0859
 5505TIP3    H116479   1.660   3.840   4.151  0.9420 -0.3174 -0.0389
 5505TIP3    H216480   1.614   3.974   4.098  3.1762  0.7806  0.6468
 5506TIP3   OH216481   0.172   3.996   2.986  0.1414  0.2348  0.7360
 5506TIP3    H116482   0.090   4.031   2.951  0.2551  1.9485  2.0294
 5506TIP3    H216483   0.241   4.042   2.937  0.3213 -0.0411  0.7269
 5507TIP3   OH216484   6.568   3.473   4.693  0.3121  0.1829 -0.0510
 5507TIP3    H116485   6.625   3.549   4.676 -1.8977  1.9556  0.0063
 5507TIP3    H216486   6.495   3.509   4.743 -1.5393 -1.7291 -1.2349
 5508TIP3   OH216487   2.476   2.145   3.645 -0.3002 -0.1840  0.3773
 5508TIP3    H116488   2.479   2.086   3.570  1.2573 -1.7000  1.5423
 5508TIP3    H216489   2.522   2.097   3.715  1.4723  2.5541  1.2734
 5509TIP3   OH216490   1.035   0.610   4.273  0.1650 -0.3278 -0.3904
 5509TIP3    H116491   1.116   0.590   4.225 -2.0691  0.1965 -4.8904
 5509TIP3    H216492   0.993   0.525   4.285  0.0683 -0.3068 -0.5963
 5510TIP3   OH216493   1.444   0.549   5.255  0.3131  0.3998  0.3675
 5510TIP3    H116494   1.468   0.601   5.331  1.0297  0.0261  0.4079
 5510TIP3    H216495   1.517   0.561   5.194  0.6564 -0.7996  0.5097
 5511TIP3   OH216496   0.097   1.383   1.786  0.0911  0.6242 -0.4196
 5511TIP3    H116497   0.096   1.354   1.877  0.3125 -1.2679 -0.9699
 5511TIP3    H216498   0.119   1.304   1.736 -0.4197  1.5256 -2.1482
 5512TIP3   OH216499   1.560   2.102   1.001  0.0006 -0.7729  0.2092
 5512TIP3    H116500   1.482   2.096   1.056 -0.5060 -0.5979 -0.4746
 5512TIP3    H216501   1.553   2.028   0.940  0.4267 -0.8226  0.2152
 5513TIP3   OH216502   1.119   5.949   4.088 -0.0054 -0.1692  0.3839
 5513TIP3    H116503   1.067   6.014   4.042 -1.9146 -1.7562  0.1648
 5513TIP3    H216504   1.187   5.923   4.026 -0.4806  0.1537 -0.2758
 5514TIP3   OH216505   0.586   6.369   4.871  0.4345  0.0180 -0.7163
 5514TIP3    H116506   0.639   6.347   4.948  1.2875 -0.2352 -1.3546
 5514TIP3    H216507   0.596   6.293   4.814 -0.8827 -0.1651 -0.7322
 5515TIP3   OH216508   4.405   2.604   3.721 -0.1478  0.2048  0.1024
 5515TIP3    H116509   4.475   2.627   3.781  0.4153 -0.8922 -0.1073
 5515TIP3    H216510   4.335   2.667   3.740  1.3082  2.1086 -0.5175
 5516TIP3   OH216511   0.570   6.250   0.540  0.1575  0.0121 -0.3385
 5516TIP3    H116512   0.556   6.171   0.487 -0.2028  0.1191 -0.4055
 5516TIP3    H216513   0.484   6.293   0.541  0.4308  0.5680 -0.5632
 5517TIP3   OH216514   5.839   4.958   3.153  0.0157 -0.4067 -0.5581
 5517TIP3    H116515   5.899   4.889   3.181  1.0053  0.7379  0.3009
 5517TIP3    H216516   5.807   4.996   3.235 -0.9693 -0.2242 -1.0142
 5518TIP3   OH216517   1.104   4.798   2.062 -0.1595 -0.2729 -0.4451
 5518TIP3    H116518   1.089   4.869   2.000  0.8773 -0.9139 -1.4655
 5518TIP3    H216519   1.033   4.807   2.126  0.5616  2.3709  0.1329
 5519TIP3   OH216520   5.094   2.784   1.283 -0.1142  0.0184  0.1629
 5519TIP3    H116521   5.075   2.700   1.241  0.4369  1.2291 -2.7642
 5519TIP3    H216522   5.010   2.814   1.317 -0.5204 -1.2275  0.3130
 5520TIP3   OH216523   1.902   5.230   5.814  0.2110  0.5639 -0.2332
 5520TIP3    H116524   1.977   5.204   5.868  0.4588  0.0141 -0.8210
 5520TIP3    H216525   1.838   5.263   5.876  0.2711 -0.5764  0.4578
 5521TIP3   OH216526   7.146   4.184   2.436 -0.6673  0.3081  0.3709
 5521TIP3    H116527   7.134   4.130   2.513 -0.3533 -1.0290 -0.4735
 5521TIP3    H216528   7.168   4.270   2.470  0.0859 -0.4020  1.7716
 5522TIP3   OH216529   7.109   4.626   0.150  0.6354  0.3846 -0.3583
 5522TIP3    H116530   7.128   4.661   0.237 -0.2943  1.0236 -0.3956
 5522TIP3    H216531   7.051   4.692   0.110  0.9944  0.0689 -1.4321
 5523TIP3   OH216532   1.210   6.377   1.903 -0.2752 -0.0642  0.3096
 5523TIP3    H116533   1.128   6.329   1.887  0.3574 -0.7638 -0.9361
 5523TIP3    H216534   1.268   6.350   1.833  1.3312 -0.1953  1.6265
 5524TIP3   OH216535   1.094   4.668   4.619  0.0026 -0.0160 -0.2230
 5524TIP3    H116536   1.040   4.594   4.591 -1.0274  1.0236 -1.1165
 5524TIP3    H216537   1.055   4.695   4.702 -0.2054  0.0875 -0.3531
 5525TIP3   OH216538   5.654   1.876   3.570 -0.1684 -0.0685  0.2304
 5525TIP3    H116539   5.619   1.832   3.648 -2.1794  1.2031  0.1497
 5525TIP3    H216540   5.628   1.820   3.497 -0.2573 -0.1638  0.3348
 5526TIP3   OH216541   1.009   5.682   0.970  0.3563  0.0923 -0.6134
 5526TIP3    H116542   0.975   5.770   0.985 -0.8553 -0.3394 -0.7359
 5526TIP3    H216543   0.931   5.627   0.960  1.0871 -1.0498 -0.2513
 5527TIP3   OH216544   3.244   3.942   2.990 -0.3402  0.0018 -0.2929
 5527TIP3    H116545   3.200   4.027   2.994 -0.3498  0.0440 -1.1562
 5527TIP3    H216546   3.204   3.899   2.915 -0.2638 -0.7332  0.0834
 5528TIP3   OH216547   1.903   2.530   1.120  0.2174  0.6322  0.7043
 5528TIP3    H116548   1.971   2.594   1.098 -0.0367  0.9132  0.7242
 5528TIP3    H216549   1.937   2.485   1.198  0.6588  0.3392  0.3456
 5529TIP3   OH216550   6.761   1.647   1.765 -0.6518  0.0057  0.0870
 5529TIP3    H116551   6.672   1.681   1.776 -0.4128  0.9541 -0.7662
 5529TIP3    H216552   6.799   1.650   1.852 -1.4287 -0.3456  0.4486
 5530TIP3   OH216553   2.503   6.745   4.846 -0.0366  0.4387  0.1259
 5530TIP3    H116554   2.453   6.695   4.910 -0.8881  0.3657 -0.5749
 5530TIP3    H216555   2.542   6.678   4.789  0.3034  0.5192  0.2628
 5531TIP3   OH216556   7.037   6.645   3.511  0.1028 -0.0006 -0.7170
 5531TIP3    H116557   7.018   6.556   3.481  1.4987 -0.0635 -1.5161
 5531TIP3    H216558   6.996   6.651   3.597  0.3564 -1.5562 -0.4652
 5532TIP3   OH216559   6.184   2.056   1.137 -0.2985  0.1989 -0.0293
 5532TIP3    H116560   6.279   2.048   1.129 -0.4518 -0.9571 -0.8983
 5532TIP3    H216561   6.155   1.969   1.162 -1.2599  0.1889 -1.1031
 5533TIP3   OH216562   3.287   6.338   2.758 -0.0354  0.8125 -0.0990
 5533TIP3    H116563   3.258   6.332   2.667  0.6867  1.8518 -0.4079
 5533TIP3    H216564   3.232   6.406   2.796 -1.5914 -0.8292  0.7750
 5534TIP3   OH216565   1.774   4.088   0.243  0.1302  0.2576 -0.0630
 5534TIP3    H116566   1.748   4.018   0.182  0.9301  1.3692 -1.7758
 5534TIP3    H216567   1.761   4.050   0.330 -1.1974 -1.3638 -0.9021
 5535TIP3   OH216568   4.473   2.969   1.824 -0.4073 -0.1645  0.1429
 5535TIP3    H116569   4.488   2.888   1.873  0.4920  0.4792  0.9973
 5535TIP3    H216570   4.435   2.941   1.741  1.8779 -1.6690 -0.4994
 5536TIP3   OH216571   1.728   6.723   2.937 -0.1500 -0.2646  0.3192
 5536TIP3    H116572   1.749   6.646   2.883  0.3312 -0.9825  1.4938
 5536TIP3    H216573   1.806   6.737   2.990 -1.0118 -0.2543  1.6188
 5537TIP3   OH216574   2.024   2.244   1.596 -0.0153 -0.2951  0.4240
 5537TIP3    H116575   2.119   2.252   1.607  0.0282 -0.8122  0.4882
 5537TIP3    H216576   1.987   2.279   1.676  0.1077  0.1911  0.2709
 5538TIP3   OH216577   4.952   4.978   3.759  0.8427 -0.0748 -0.0322
 5538TIP3    H116578   4.866   4.984   3.800  0.4027  0.8867 -1.0257
 5538TIP3    H216579   4.936   4.933   3.676  1.2757  0.1710 -0.2534
 5539TIP3   OH216580   6.953   1.193   1.565 -0.3035 -0.1642 -0.2742
 5539TIP3    H116581   6.886   1.139   1.523  0.6531 -1.5311 -0.1007
 5539TIP3    H216582   7.009   1.222   1.493 -1.3280  1.4155 -0.4890
 5540TIP3   OH216583   2.575   4.415   0.559 -0.2748  0.7252  0.3230
 5540TIP3    H116584   2.564   4.320   0.563 -1.3936  0.8360  0.0838
 5540TIP3    H216585   2.585   4.434   0.465 -0.7321  0.9160  0.3124
 5541TIP3   OH216586   1.909   5.179   1.904 -0.0166  0.4017  0.4620
 5541TIP3    H116587   1.863   5.256   1.939  0.7374  0.6158  0.9873
 5541TIP3    H216588   1.977   5.216   1.848 -1.0480  0.0720 -1.0762
 5542TIP3   OH216589   0.985   3.082   4.804 -0.2027 -0.1046 -0.6859
 5542TIP3    H116590   1.015   3.015   4.865  0.0082  1.1161  0.6068
 5542TIP3    H216591   0.916   3.040   4.754 -0.9121 -0.9301  0.9247
 5543TIP3   OH216592   0.533   6.491   3.663  0.1106  0.0219  0.5037
 5543TIP3    H116593   0.451   6.482   3.614  0.1484  0.1413  0.4165
 5543TIP3    H216594   0.530   6.422   3.729 -0.3231  0.3828  0.8699
 5544TIP3   OH216595   6.933   1.388   0.876 -0.3004 -0.4329 -0.2530
 5544TIP3    H116596   6.957   1.388   0.784 -1.0471  0.9930 -0.4795
 5544TIP3    H216597   7.016   1.400   0.923  0.1859 -1.9844 -0.6709
 5545TIP3   OH216598   1.893   3.003   0.540 -0.1871 -0.2761 -0.0988
 5545TIP3    H116599   1.933   2.916   0.537 -1.2776 -0.7903 -0.2094
 5545TIP3    H216600   1.868   3.015   0.632 -0.2975 -0.2088 -0.1371
 5546TIP3   OH216601   1.784   6.298   4.248  0.3134  0.5632  0.0600
 5546TIP3    H116602   1.738   6.376   4.278 -1.8975 -1.4833  2.5165
 5546TIP3    H216603   1.715   6.237   4.221  1.9840 -0.3178 -2.7239
 5547TIP3   OH216604   3.584   0.649   2.639 -0.2910  0.1214  0.2264
 5547TIP3    H116605   3.676   0.674   2.636  0.2642 -1.4424  1.9852
 5547TIP3    H216606   3.580   0.566   2.593 -0.8151  0.1346  0.2395
 5548TIP3   OH216607   4.440   3.613   5.417  0.0154  0.6165 -0.0681
 5548TIP3    H116608   4.532   3.590   5.403 -0.6400 -1.6862 -1.2082
 5548TIP3    H216609   4.417   3.570   5.499  0.1142  1.7788  0.5819
 5549TIP3   OH216610   6.415   1.371   4.716  0.3899  0.4125  0.4983
 5549TIP3    H116611   6.394   1.279   4.701  3.1978 -0.1071 -0.9044
 5549TIP3    H216612   6.410   1.412   4.630  0.1912  1.3483  0.9395
 5550TIP3   OH216613   0.988   5.897   5.157 -0.2457  0.4151  0.0321
 5550TIP3    H116614   1.059   5.957   5.135  0.6149 -0.5165  0.2145
 5550TIP3    H216615   0.919   5.917   5.093  0.1261  1.3985 -0.0804
 5551TIP3   OH216616   7.098   0.875   2.494  0.4150 -0.0473 -0.3885
 5551TIP3    H116617   7.147   0.903   2.572  2.2760 -1.4681 -0.9655
 5551TIP3    H216618   7.048   0.952   2.468  3.5343  2.0727 -0.6416
 5552TIP3   OH216619  -0.031   4.144   1.936  0.3735  0.0586 -0.5651
 5552TIP3    H116620  -0.018   4.181   1.848  0.1783  1.5365  0.0099
 5552TIP3    H216621   0.052   4.100   1.955  1.6189  2.3725 -0.2735
 5553TIP3   OH216622   5.933   0.604   2.986  0.5375 -0.1180 -0.6736
 5553TIP3    H116623   5.978   0.521   2.972  1.4627  0.5580 -1.9125
 5553TIP3    H216624   6.000   0.670   2.971  0.0091  0.8631  1.0393
 5554TIP3   OH216625   6.609   6.618   2.054  0.2879 -0.2644  0.1347
 5554TIP3    H116626   6.594   6.524   2.039  0.8468 -0.1010 -1.5841
 5554TIP3    H216627   6.693   6.621   2.100  0.6459 -0.5808 -0.4849
 5555TIP3   OH216628   1.884   5.861   0.635 -0.1731  0.3379 -0.2039
 5555TIP3    H116629   1.963   5.891   0.590 -0.3808  0.0588 -0.7511
 5555TIP3    H216630   1.867   5.929   0.701  0.9870  0.0058  0.4706
 5556TIP3   OH216631   1.637   0.327   5.062 -0.3779  0.9806  0.0992
 5556TIP3    H116632   1.576   0.271   5.014 -0.6257  1.4519 -0.1470
 5556TIP3    H216633   1.629   0.413   5.020  1.0723  0.8626 -0.5004
 5557TIP3   OH216634   4.241   5.542   0.832  0.1504  0.3964 -0.1338
 5557TIP3    H116635   4.266   5.466   0.885  0.3377 -0.6624 -1.6658
 5557TIP3    H216636   4.321   5.567   0.787  0.1999  1.8378  0.7088
 5558TIP3   OH216637   3.791   2.097   0.061  0.4693  0.3442 -0.2505
 5558TIP3    H116638   3.768   2.063  -0.026  2.3644  0.4000 -0.8102
 5558TIP3    H216639   3.862   2.158   0.044  1.0484  0.1517  1.3787
 5559TIP3   OH216640   6.482   6.212   0.105 -0.2289 -0.1128  0.0556
 5559TIP3    H116641   6.461   6.293   0.152 -2.1540 -0.4662 -0.1274
 5559TIP3    H216642   6.432   6.144   0.149 -0.4140 -0.8133 -1.1706
 5560TIP3   OH216643   6.809   6.713   5.218 -0.0509  0.1837  0.2909
 5560TIP3    H116644   6.794   6.645   5.152 -0.8399  0.7242 -0.1006
 5560TIP3    H216645   6.732   6.769   5.213 -0.0467  0.3391  1.5574
 5561TIP3   OH216646   5.504   2.636   0.050  0.1460  0.0454  0.2576
 5561TIP3    H116647   5.521   2.695   0.124  0.2968 -0.4513  0.6269
 5561TIP3    H216648   5.454   2.689  -0.011  2.6526  1.4908 -0.7127
 5562TIP3   OH216649   4.588   0.516   5.028  0.4878  0.1444 -0.4919
 5562TIP3    H116650   4.628   0.430   5.037  1.4069  0.6500  0.4610
 5562TIP3    H216651   4.575   0.527   4.934 -0.5993 -1.4440 -0.5666
 5563TIP3   OH216652   6.787   5.901   2.346  0.1214 -0.2231  0.6372
 5563TIP3    H116653   6.783   5.862   2.259 -0.4933  1.5572 -0.1821
 5563TIP3    H216654   6.705   5.951   2.354  0.9119  0.9724  1.5722
 5564TIP3   OH216655   3.364   4.879   1.905  0.0646 -0.2045 -0.7384
 5564TIP3    H116656   3.381   4.823   1.981  1.4748  0.5498 -0.4768
 5564TIP3    H216657   3.439   4.866   1.848 -1.1146 -0.9696 -2.1615
 5565TIP3   OH216658   2.582   6.785   1.087 -0.0568 -0.0729 -0.0024
 5565TIP3    H116659   2.490   6.769   1.106  0.0890 -1.5815 -0.4384
 5565TIP3    H216660   2.599   6.735   1.007  1.0818  0.3757 -0.0632
 5566TIP3   OH216661   0.523   3.442   3.185  0.4048  0.3406  0.3778
 5566TIP3    H116662   0.603   3.390   3.182 -0.0021 -0.2336 -1.1096
 5566TIP3    H216663   0.460   3.387   3.231  0.2883 -0.0405 -0.2345
 5567TIP3   OH216664   1.585   4.167   0.864 -0.1337  0.5073 -0.1582
 5567TIP3    H116665   1.512   4.146   0.923  0.2126  0.3899  0.2329
 5567TIP3    H216666   1.612   4.082   0.830  1.3871  0.2409  1.5623
 5568TIP3   OH216667   2.700   1.415   0.839 -0.5023 -0.0753 -0.3274
 5568TIP3    H116668   2.684   1.441   0.930 -2.0262 -0.5494 -0.4322
 5568TIP3    H216669   2.769   1.349   0.845  0.1945  0.6814  0.3589
 5569TIP3   OH216670   6.898   0.283   1.735  0.7331  0.3148  0.2167
 5569TIP3    H116671   6.805   0.292   1.759  0.3398  0.9233 -1.3943
 5569TIP3    H216672   6.900   0.205   1.679  0.9828  0.9513 -0.6795
 5570TIP3   OH216673   1.990   0.168   1.338 -0.1635 -0.3351  0.6448
 5570TIP3    H116674   1.999   0.128   1.425 -1.9781 -3.9505 -0.6330
 5570TIP3    H216675   2.076   0.157   1.297 -0.0283 -0.9401  1.0862
 5571TIP3   OH216676   3.285   2.697   0.149 -0.3723 -0.4845 -0.1744
 5571TIP3    H116677   3.253   2.626   0.094 -0.2215 -0.1595 -0.6862
 5571TIP3    H216678   3.342   2.748   0.092 -2.0282  1.1936 -0.4066
 5572TIP3   OH216679   1.758   0.044   5.225 -0.2308 -0.3199 -0.2987
 5572TIP3    H116680   1.700   0.021   5.152  0.6669 -2.1766 -0.4895
 5572TIP3    H216681   1.701   0.091   5.286 -1.5675 -0.7494 -1.1468
 5573TIP3   OH216682   6.585   5.634   0.619  0.1667  0.0732 -0.5792
 5573TIP3    H116683   6.589   5.698   0.547 -0.6384  1.6916  0.7336
 5573TIP3    H216684   6.493   5.637   0.648  0.6330  0.0442  0.9906
 5574TIP3   OH216685   5.014   3.810   1.728  0.0073 -0.4309 -0.5483
 5574TIP3    H116686   4.983   3.754   1.657 -0.7358 -1.6040  0.6344
 5574TIP3    H216687   5.060   3.750   1.787  0.6071  0.5110 -0.0302
 5575TIP3   OH216688   1.521   4.716   5.778 -0.3206 -0.2446  0.0344
 5575TIP3    H116689   1.556   4.638   5.822 -2.8408 -1.8897 -0.7139
 5575TIP3    H216690   1.443   4.685   5.733 -1.1231  2.6515 -0.7198
 5576TIP3   OH216691   2.114   1.270   2.056 -0.3306  0.2391  0.1730
 5576TIP3    H116692   2.101   1.212   2.131  0.4628  1.4539  1.2836
 5576TIP3    H216693   2.204   1.255   2.029 -0.0415  1.1347  0.6294
 5577TIP3   OH216694   3.438   3.584   3.294  0.4517 -0.7210 -0.1724
 5577TIP3    H116695   3.463   3.624   3.211 -2.5449  0.3023 -0.7052
 5577TIP3    H216696   3.489   3.503   3.297  3.2175  0.8364 -1.2849
 5578TIP3   OH216697   4.206   5.046   2.971  0.0232  0.1291 -0.1315
 5578TIP3    H116698   4.203   4.993   2.892 -0.0617 -0.9195  0.5651
 5578TIP3    H216699   4.118   5.041   3.007  0.4216 -0.5368  0.7668
 5579TIP3   OH216700   4.351   0.858   1.315  0.1112 -0.1552 -0.2598
 5579TIP3    H116701   4.321   0.816   1.396  0.2464  2.0223  0.9922
 5579TIP3    H216702   4.271   0.880   1.268 -0.2794  2.4438  1.4012
 5580TIP3   OH216703   5.493   6.450   0.837  0.2488  0.0597 -0.0616
 5580TIP3    H116704   5.565   6.478   0.893 -0.7256 -0.1305  1.3377
 5580TIP3    H216705   5.426   6.420   0.898 -1.3529  1.0134 -1.2787
 5581TIP3   OH216706   6.518   5.926   2.535  0.3174  0.3827  0.4150
 5581TIP3    H116707   6.513   5.831   2.539 -1.1892  0.2540 -2.1628
 5581TIP3    H216708   6.438   5.952   2.489  0.2531  2.9908  1.8038
 5582TIP3   OH216709   6.450   0.132   5.776 -0.0016 -0.5456 -0.6935
 5582TIP3    H116710   6.399   0.051   5.783 -0.5700 -0.0937  0.9133
 5582TIP3    H216711   6.504   0.120   5.698 -0.5761 -2.1764 -0.8801
 5583TIP3   OH216712   2.983   1.895   1.758 -0.0910 -0.0449  0.2340
 5583TIP3    H116713   2.950   1.908   1.669 -0.5428  0.9122  0.5300
 5583TIP3    H216714   3.036   1.816   1.752  0.4542  0.3871 -1.0421
 5584TIP3   OH216715   3.616   0.716   1.013 -0.1929 -0.1162  0.2230
 5584TIP3    H116716   3.587   0.695   0.924  0.0723  2.4850 -0.5718
 5584TIP3    H216717   3.585   0.643   1.066 -3.2845 -0.1826 -1.4653
 5585TIP3   OH216718   1.686   5.553   3.320  0.1274  0.0433  0.3701
 5585TIP3    H116719   1.758   5.611   3.297  0.3105  0.6568  2.3134
 5585TIP3    H216720   1.612   5.612   3.339 -0.4517 -0.5049 -0.1188
 5586TIP3   OH216721   5.109   2.262   4.646  0.6236 -0.1576  0.2827
 5586TIP3    H116722   5.083   2.339   4.696  0.9130  0.3480 -0.3256
 5586TIP3    H216723   5.060   2.190   4.685  0.2150  0.3650  0.7481
 5587TIP3   OH216724   2.201   6.142   5.597 -0.4517 -0.4426 -0.1136
 5587TIP3    H116725   2.279   6.105   5.638 -0.6209  0.8248  1.4412
 5587TIP3    H216726   2.143   6.067   5.585  0.5344 -1.2151 -0.2526
 5588TIP3   OH216727   3.770   0.174   3.533  0.5032 -0.5489  0.5408
 5588TIP3    H116728   3.724   0.246   3.491 -0.7595  0.1663  2.9552
 5588TIP3    H216729   3.860   0.181   3.501  0.6387  2.6292  1.2797
 5589TIP3   OH216730   7.047   3.595   2.334  0.3687 -0.1079 -0.1458
 5589TIP3    H116731   7.109   3.587   2.261  0.2539 -1.4102 -0.1213
 5589TIP3    H216732   7.101   3.577   2.412  0.1760 -0.2231 -0.0396
 5590TIP3   OH216733   3.245   0.985   0.573  0.4401  0.3699  0.4380
 5590TIP3    H116734   3.175   1.049   0.564  2.2624  2.3681 -0.3121
 5590TIP3    H216735   3.245   0.963   0.666 -0.5375  1.0915  0.6269
 5591TIP3   OH216736   1.196   4.304   5.407  0.1241 -0.4184  0.0009
 5591TIP3    H116737   1.185   4.251   5.486  1.3462  0.0852  0.5324
 5591TIP3    H216738   1.266   4.261   5.358  3.0940  2.0721  1.7396
 5592TIP3   OH216739   6.619   3.354   1.606  0.0363  0.1078  0.3641
 5592TIP3    H116740   6.549   3.415   1.631  0.3302  0.4948  0.2387
 5592TIP3    H216741   6.689   3.370   1.669  0.9491  1.3800 -0.9077
 5593TIP3   OH216742   1.810   2.122   4.377 -0.0402 -0.0404  0.1808
 5593TIP3    H116743   1.831   2.097   4.467 -1.2889 -1.9604  0.0007
 5593TIP3    H216744   1.838   2.047   4.324 -0.8038  0.3754 -0.8492
 5594TIP3   OH216745   6.385   2.122   4.038 -0.1444  0.1517  0.0556
 5594TIP3    H116746   6.418   2.032   4.037 -1.2840 -0.3988  2.4233
 5594TIP3    H216747   6.445   2.169   4.096 -0.6195  0.4240  0.3331
 5595TIP3   OH216748   4.704   5.955   2.605  0.3171  0.2560 -0.0712
 5595TIP3    H116749   4.707   6.004   2.687 -2.6088  0.8306 -0.1933
 5595TIP3    H216750   4.770   5.996   2.549 -0.8570  2.9912  0.4274
 5596TIP3   OH216751   5.979   0.318   4.579 -0.0512  0.1978 -0.0115
 5596TIP3    H116752   5.978   0.394   4.637  0.8264 -1.2170  1.9768
 5596TIP3    H216753   5.895   0.275   4.594 -0.0272  0.0910 -0.1714
 5597TIP3   OH216754   5.158   6.047   0.625 -0.0625  0.3427  0.4008
 5597TIP3    H116755   5.182   6.042   0.533  0.3691  0.3493  0.5102
 5597TIP3    H216756   5.082   6.105   0.627 -0.7178 -0.4766 -0.0646
 5598TIP3   OH216757   0.447   1.909   2.051 -0.4935 -0.1408 -0.1872
 5598TIP3    H116758   0.467   1.819   2.024 -2.9143 -0.2436 -1.9420
 5598TIP3    H216759   0.354   1.918   2.035 -0.6727  2.1723  1.6500
 5599TIP3   OH216760   6.531   5.021   4.048  0.1718  0.1199  0.1128
 5599TIP3    H116761   6.451   4.971   4.043  0.2371  0.0613 -0.3965
 5599TIP3    H216762   6.546   5.052   3.958  0.8293 -0.0515  0.1585
 5600TIP3   OH216763   5.783   0.695   3.190 -0.1119 -0.4203  0.1531
 5600TIP3    H116764   5.768   0.612   3.235 -0.1112  0.1232  1.1732
 5600TIP3    H216765   5.856   0.677   3.131 -0.1552 -1.1625  0.3162
 5601TIP3   OH216766   3.885   2.545   1.527  0.3744  0.1015 -0.3184
 5601TIP3    H116767   3.800   2.510   1.502  0.5542 -1.2978  0.9005
 5601TIP3    H216768   3.866   2.610   1.594  0.2925 -0.6413  0.3869
 5602TIP3   OH216769   4.564   2.498   5.357 -0.3898  0.2740 -0.1443
 5602TIP3    H116770   4.531   2.450   5.281 -0.9979  0.1715  0.1787
 5602TIP3    H216771   4.636   2.444   5.389 -0.8141 -0.2225 -0.0190
 5603TIP3   OH216772   5.960   2.445   3.925  1.1206  0.2672 -0.2628
 5603TIP3    H116773   6.028   2.474   3.985 -0.0551 -0.1863  1.3664
 5603TIP3    H216774   5.963   2.349   3.930 -0.2470  0.2530  0.5792
 5604TIP3   OH216775   3.810   4.036   2.291 -0.2810 -0.3893  0.2995
 5604TIP3    H116776   3.770   3.960   2.334 -1.3911 -0.4277 -0.7276
 5604TIP3    H216777   3.884   3.999   2.242 -0.6645 -0.7753  0.0053
 5605TIP3   OH216778   0.728   0.037   4.961 -0.0095  0.3632 -0.0920
 5605TIP3    H116779   0.816   0.067   4.984  0.6234 -0.2100 -1.6282
 5605TIP3    H216780   0.709   0.081   4.878 -1.3910  0.8656  0.4641
 5606TIP3   OH216781   6.564   2.794   3.716  0.6713 -0.0262 -0.2641
 5606TIP3    H116782   6.505   2.826   3.785  2.6912  1.1961  1.0248
 5606TIP3    H216783   6.534   2.838   3.637 -0.6962 -0.1765  0.1388
 5607TIP3   OH216784   5.589   2.063   2.667 -0.1228  0.2564 -0.2734
 5607TIP3    H116785   5.618   2.052   2.576 -0.8816  1.1645 -0.6429
 5607TIP3    H216786   5.497   2.091   2.659 -0.2347  0.2093  0.7792
 5608TIP3   OH216787   6.829   2.408   4.697 -0.0497 -0.5467 -0.0016
 5608TIP3    H116788   6.809   2.501   4.708 -1.6632 -0.7725 -0.8218
 5608TIP3    H216789   6.797   2.367   4.778 -1.6315 -0.6915 -0.6609
 5609TIP3   OH216790   3.058   4.101   5.512  0.3204 -0.3636  0.3031
 5609TIP3    H116791   3.130   4.042   5.489 -0.0634 -0.7260  0.0140
 5609TIP3    H216792   3.077   4.182   5.466  1.5314  0.1988  1.7155
 5610TIP3   OH216793   2.581   1.221   1.278 -0.3441  0.2847  0.6088
 5610TIP3    H116794   2.572   1.130   1.306  1.7826 -0.3120 -0.4943
 5610TIP3    H216795   2.644   1.259   1.340 -0.3805  0.7126  0.3870
 5611TIP3   OH216796   3.801   4.951   3.733  0.3073 -0.4272  0.0987
 5611TIP3    H116797   3.848   4.930   3.653  0.7832 -0.6629  0.4379
 5611TIP3    H216798   3.767   5.039   3.719  0.8531 -0.2562 -0.1415
 5612TIP3   OH216799   3.003   2.029   4.685 -0.1268 -0.3159  0.5973
 5612TIP3    H116800   2.934   2.053   4.623 -1.1976  0.3897  2.0011
 5612TIP3    H216801   2.957   1.980   4.754  0.8542 -0.2198  1.3466
 5613TIP3   OH216802   6.666   1.087   5.180 -0.1011 -0.6154 -0.6124
 5613TIP3    H116803   6.661   1.079   5.085 -0.2240  1.0376 -0.7765
 5613TIP3    H216804   6.753   1.122   5.197 -0.2595 -0.4346 -0.1587
 5614TIP3   OH216805   1.553   3.617   0.668 -0.0362  0.0286  0.0076
 5614TIP3    H116806   1.637   3.591   0.631 -0.0642 -1.4795  0.9250
 5614TIP3    H216807   1.545   3.565   0.748 -1.2200  1.1699  0.6612
 5615TIP3   OH216808   3.009   6.105   3.585 -0.2303 -0.8705 -0.0316
 5615TIP3    H116809   3.081   6.117   3.647  0.3941 -0.6292 -0.7851
 5615TIP3    H216810   2.936   6.154   3.623  0.2950 -0.3051  0.2619
 5616TIP3   OH216811   0.619   2.551   0.123 -0.0688  0.1067  0.1189
 5616TIP3    H116812   0.640   2.637   0.161 -2.0595 -0.1722  2.0156
 5616TIP3    H216813   0.691   2.495   0.150 -0.1818  0.5240  1.3385
 5617TIP3   OH216814   5.768   0.881   1.704  0.1043 -0.6603  0.3056
 5617TIP3    H116815   5.713   0.868   1.782  0.2081 -0.3756  0.4279
 5617TIP3    H216816   5.820   0.958   1.725 -2.0951  1.4037 -1.3069
 5618TIP3   OH216817   3.747   5.811   0.356  0.3578 -0.2157 -0.1343
 5618TIP3    H116818   3.758   5.759   0.276  1.8308 -1.5753  0.8799
 5618TIP3    H216819   3.828   5.797   0.405 -0.7292  0.0739  1.8695
 5619TIP3   OH216820   6.974   2.619   4.401  0.0097  0.0015 -0.0495
 5619TIP3    H116821   7.064   2.589   4.407 -0.7562 -2.3141  0.6892
 5619TIP3    H216822   6.957   2.624   4.307  1.2509  1.7488 -0.2323
 5620TIP3   OH216823   6.757   3.587   4.112  0.0994  0.0267 -0.3195
 5620TIP3    H116824   6.705   3.658   4.074 -0.0492 -0.0458 -0.2522
 5620TIP3    H216825   6.847   3.620   4.111  0.0465  0.1718 -0.3914
 5621TIP3   OH216826   4.774   5.550   4.308  0.5676  0.2972 -0.9220
 5621TIP3    H116827   4.728   5.606   4.246 -0.2498  0.0586 -0.5340
 5621TIP3    H216828   4.838   5.609   4.350  0.9398  0.5186 -1.7854
 5622TIP3   OH216829   2.488   0.930   0.640  0.1025  0.6362  0.1056
 5622TIP3    H116830   2.513   1.010   0.686  0.9545 -0.9501  2.6216
 5622TIP3    H216831   2.467   0.868   0.710 -0.7062 -1.2911 -1.7426
 5623TIP3   OH216832   3.717   1.208   2.566  0.0003  0.3704 -0.2895
 5623TIP3    H116833   3.643   1.171   2.518 -0.6015  1.7175 -0.4431
 5623TIP3    H216834   3.782   1.139   2.566  0.1056  0.3412 -3.2035
 5624TIP3   OH216835   2.276   5.445   0.638  0.1822 -0.4784 -0.3132
 5624TIP3    H116836   2.227   5.512   0.590 -1.3542 -2.3033 -1.3995
 5624TIP3    H216837   2.250   5.457   0.730  0.8168  1.1061 -0.3120
 5625TIP3   OH216838   4.599   0.631   4.082 -0.1181  0.4971 -0.4173
 5625TIP3    H116839   4.555   0.672   4.008 -1.2510 -0.6424 -0.4060
 5625TIP3    H216840   4.528   0.603   4.140  0.7269  1.1059  0.9811
 5626TIP3   OH216841   4.552   0.382   4.422  0.0064 -0.3047  0.5020
 5626TIP3    H116842   4.605   0.381   4.502  0.6777  1.6195  0.1526
 5626TIP3    H216843   4.561   0.472   4.389 -2.7529 -0.1684 -0.0842
 5627TIP3   OH216844   1.896   4.393   5.570  0.4222  0.3636  0.1273
 5627TIP3    H116845   1.809   4.366   5.597 -0.2178  1.9087 -0.2849
 5627TIP3    H216846   1.952   4.371   5.644 -0.1930 -1.1430  0.1875
 5628TIP3   OH216847   4.128   0.434   1.428  0.3469 -0.0653 -0.3046
 5628TIP3    H116848   4.112   0.406   1.518  1.1516  1.5555  0.3862
 5628TIP3    H216849   4.224   0.428   1.418  0.7663  3.4438  0.3265
 5629TIP3   OH216850   5.882   2.457   1.427  0.2708  0.1196 -0.0922
 5629TIP3    H116851   5.965   2.489   1.392  0.0952  0.0628 -0.5669
 5629TIP3    H216852   5.890   2.467   1.522  0.1448  1.7667 -0.2292
 5630TIP3   OH216853   0.400   0.722   3.363 -0.2948 -0.1118  0.2472
 5630TIP3    H116854   0.331   0.656   3.376 -2.5060  1.4433 -2.4879
 5630TIP3    H216855   0.471   0.675   3.320 -0.3894 -1.3440  1.3579
 5631TIP3   OH216856   4.458   1.953   3.639  0.4587  0.1336  0.3328
 5631TIP3    H116857   4.548   1.942   3.671  0.8045  0.9522 -0.3438
 5631TIP3    H216858   4.440   1.872   3.592  1.1010  0.2480 -0.1262
 5632TIP3   OH216859   0.013   3.759   1.302  0.3864  0.4130  0.1801
 5632TIP3    H116860   0.055   3.676   1.325 -0.9731  0.0241  1.4201
 5632TIP3    H216861   0.086   3.820   1.290  1.3734 -0.7398  0.1208
 5633TIP3   OH216862   6.674   1.942   1.788  0.0307 -0.5508  0.1205
 5633TIP3    H116863   6.616   1.866   1.795 -1.7946  0.8472  1.2009
 5633TIP3    H216864   6.681   1.975   1.878  2.6304 -0.6885  0.0437
 5634TIP3   OH216865   5.381   0.402   5.171  0.0315  0.0967 -0.3540
 5634TIP3    H116866   5.386   0.306   5.168 -1.6551 -0.0289 -2.5581
 5634TIP3    H216867   5.456   0.432   5.119  0.7377  0.0072  0.5957
 5635TIP3   OH216868   5.676   2.569   3.906  0.4408 -0.6059 -0.2005
 5635TIP3    H116869   5.754   2.573   3.851 -0.1332 -0.4590 -1.0302
 5635TIP3    H216870   5.649   2.660   3.917  1.3060 -0.5244  1.4657
 5636TIP3   OH216871   2.377   0.010   1.480  0.1007  0.1173 -0.3673
 5636TIP3    H116872   2.445   0.072   1.454  0.7999 -1.0143 -1.3271
 5636TIP3    H216873   2.337  -0.018   1.397  0.2736 -1.2267 -0.0232
 5637TIP3   OH216874   2.713   4.949   4.390 -0.7078 -0.8783 -0.1414
 5637TIP3    H116875   2.785   4.912   4.442  0.0966  0.2899 -0.3664
 5637TIP3    H216876   2.723   5.043   4.401 -1.2982 -0.6577 -1.3968
 5638TIP3   OH216877   0.777   1.762   3.298  0.0143  0.0654  0.4647
 5638TIP3    H116878   0.826   1.831   3.253 -0.2736 -0.8914 -1.3968
 5638TIP3    H216879   0.820   1.681   3.272 -1.0485 -0.6212  0.7886
 5639TIP3   OH216880   3.445   3.881   3.796 -0.2767  0.6331 -0.2511
 5639TIP3    H116881   3.351   3.865   3.791 -0.3754  1.4782 -1.5139
 5639TIP3    H216882   3.473   3.890   3.705  1.3669 -1.3346 -0.0230
 5640TIP3   OH216883   6.000   0.083   3.629  0.2578  0.2564 -0.5364
 5640TIP3    H116884   6.007   0.067   3.723 -4.4287  0.8856  0.1684
 5640TIP3    H216885   6.004   0.178   3.620 -4.2662  0.7235 -0.0120
 5641TIP3   OH216886   4.834   4.195   0.109  0.3810  0.1403 -0.1973
 5641TIP3    H116887   4.898   4.128   0.089  0.3297  0.0222  0.0402
 5641TIP3    H216888   4.759   4.147   0.144  0.6042  0.3782  0.6222
 5642TIP3   OH216889   5.852   2.066   5.571  0.1253 -0.2448 -0.0029
 5642TIP3    H116890   5.832   2.030   5.485  1.3739  0.6566 -0.7124
 5642TIP3    H216891   5.934   2.023   5.597  0.5271  0.5389  0.0634
 5643TIP3   OH216892   5.055   2.735   1.744 -0.4873 -0.2414  0.7268
 5643TIP3    H116893   5.045   2.685   1.663  0.1400 -1.4065  1.3458
 5643TIP3    H216894   5.130   2.793   1.727 -0.1115 -0.7563  0.6052
 5644TIP3   OH216895   5.830   3.292   2.786 -0.0710  0.1477 -0.5250
 5644TIP3    H116896   5.840   3.237   2.708 -0.5927  0.0577 -0.5322
 5644TIP3    H216897   5.812   3.379   2.752  0.2620  0.2232 -0.5090
 5645TIP3   OH216898   4.809   3.469   4.148 -0.4942 -0.1459  0.0902
 5645TIP3    H116899   4.887   3.459   4.201 -1.0413  1.2507  1.2298
 5645TIP3    H216900   4.744   3.412   4.191 -0.3971 -0.5291 -0.2623
 5646TIP3   OH216901   0.384   5.978   3.008  0.4954  1.1687 -0.0470
 5646TIP3    H116902   0.457   5.948   3.062  1.0610  1.1990 -0.7697
 5646TIP3    H216903   0.419   5.977   2.919 -0.4862  0.9134 -0.4349
 5647TIP3   OH216904   1.549   5.428   5.054  0.8359  0.0575  0.3582
 5647TIP3    H116905   1.623   5.368   5.061 -0.1529 -1.2770 -0.1321
 5647TIP3    H216906   1.558   5.487   5.130  0.7546 -1.9811  2.0456
 5648TIP3   OH216907   0.391   5.462   0.177  0.9377 -0.1964  0.4048
 5648TIP3    H116908   0.486   5.473   0.183  0.8779  1.1777 -0.8143
 5648TIP3    H216909   0.357   5.550   0.164 -0.4190 -0.7985 -0.3301
 5649TIP3   OH216910   1.051   4.983   3.705  0.0625 -0.5929  0.0731
 5649TIP3    H116911   1.118   5.029   3.654 -1.0282  0.9260 -0.0904
 5649TIP3    H216912   1.046   5.031   3.788  0.5866 -1.9552  0.9173
 5650TIP3   OH216913   3.720   6.452   2.704  0.1178  0.0644  0.1144
 5650TIP3    H116914   3.714   6.399   2.784  1.6727 -0.0452  0.1829
 5650TIP3    H216915   3.637   6.500   2.701  1.1877  2.6170  3.6456
 5651TIP3   OH216916   5.137   4.877   3.040  1.0148 -0.2311 -0.7577
 5651TIP3    H116917   5.075   4.934   2.995  1.0640  0.9982  0.6487
 5651TIP3    H216918   5.123   4.790   3.002 -1.2515  0.0977 -0.7717
 5652TIP3   OH216919   2.164   0.541   0.192  0.2342  0.2174 -0.2343
 5652TIP3    H116920   2.165   0.636   0.203  1.6439  0.1448  0.3859
 5652TIP3    H216921   2.168   0.505   0.280 -0.0380 -0.4255 -0.4722
 5653TIP3   OH216922   5.049   1.746   0.357 -0.3458  0.4387  0.0424
 5653TIP3    H116923   5.129   1.741   0.305 -0.7906  1.3059 -0.7394
 5653TIP3    H216924   5.012   1.831   0.336 -0.9091  0.5127  1.2464
 5654TIP3   OH216925   5.632   2.957   5.617  0.2705  0.4901 -0.4503
 5654TIP3    H116926   5.546   2.994   5.638  0.3373 -0.2706  1.4378
 5654TIP3    H216927   5.619   2.862   5.624  1.6308  0.3879  1.7801
 5655TIP3   OH216928   1.633   4.596   5.451  0.5888 -0.2817 -0.2057
 5655TIP3    H116929   1.721   4.594   5.490  0.9381 -1.7266 -0.9868
 5655TIP3    H216930   1.584   4.531   5.501 -0.4336  1.3186  0.9912
 5656TIP3   OH216931   4.506   4.326   0.227  0.1042  0.3393 -0.0749
 5656TIP3    H116932   4.532   4.238   0.253  0.5728  0.8758  1.3849
 5656TIP3    H216933   4.552   4.341   0.144 -0.3787 -0.9554 -0.5981
 5657TIP3   OH216934   3.005   6.435   4.787 -0.5356  0.2819  0.2444
 5657TIP3    H116935   2.944   6.419   4.715  0.1473  2.4723 -0.9103
 5657TIP3    H216936   3.039   6.523   4.770  0.0947  0.6357  2.9406
 5658TIP3   OH216937   0.852   6.494   2.153 -0.0227  0.6157 -0.1631
 5658TIP3    H116938   0.809   6.481   2.237  0.8728  1.5955  0.4671
 5658TIP3    H216939   0.914   6.421   2.147  0.5783  1.0650  0.4689
 5659TIP3   OH216940   0.940   4.891   2.784  0.5275  0.2087 -0.0607
 5659TIP3    H116941   0.850   4.879   2.816  0.2659  0.5310 -0.6654
 5659TIP3    H216942   0.979   4.952   2.847  0.0268  0.8011 -0.3147
 5660TIP3   OH216943   3.410   3.782   0.302 -0.4453 -0.1912  0.1085
 5660TIP3    H116944   3.337   3.825   0.257  0.0943 -0.2889 -0.8928
 5660TIP3    H216945   3.471   3.758   0.232 -0.7207 -2.6048  0.5990
 5661TIP3   OH216946   3.180   5.839   2.290 -0.0596 -0.3417  0.0137
 5661TIP3    H116947   3.259   5.893   2.286  0.6685 -1.1276  2.1826
 5661TIP3    H216948   3.134   5.869   2.369 -0.0664 -2.2451  0.7881
 5662TIP3   OH216949   2.824   0.434   0.605  0.6364  0.3532 -0.6506
 5662TIP3    H116950   2.825   0.339   0.617 -0.8316  0.2695 -1.1001
 5662TIP3    H216951   2.865   0.468   0.685 -0.9148 -0.5711  0.6026
 5663TIP3   OH216952   6.553   0.987   5.830  0.3694  0.2850 -0.6357
 5663TIP3    H116953   6.538   0.951   5.917 -1.6756  0.3763 -0.8940
 5663TIP3    H216954   6.648   0.987   5.819  0.6504  0.0224  1.4767
 5664TIP3   OH216955   2.506   5.127   1.024  0.2886  0.2860  0.7878
 5664TIP3    H116956   2.448   5.190   0.982  0.4698  0.8851  1.4236
 5664TIP3    H216957   2.470   5.041   1.001 -0.5805  0.6447  0.8061
 5665TIP3   OH216958   1.990   0.985   3.058  0.2151 -0.2230 -0.1431
 5665TIP3    H116959   1.903   1.023   3.061  0.3951  0.1515  0.4542
 5665TIP3    H216960   1.976   0.891   3.070 -0.1071 -0.1714 -0.1205
 5666TIP3   OH216961   1.944   5.974   5.583 -0.4444  0.1174 -0.3846
 5666TIP3    H116962   1.918   5.883   5.566  1.4240 -0.3503 -1.0203
 5666TIP3    H216963   1.890   6.001   5.657 -1.7142 -1.1826 -0.7769
 5667TIP3   OH216964   5.714   0.436   0.540 -0.1691 -0.2681 -0.0893
 5667TIP3    H116965   5.690   0.446   0.632 -0.1251  1.2552 -0.2149
 5667TIP3    H216966   5.633   0.407   0.497  0.2468 -2.7795  0.6561
 5668TIP3   OH216967   4.453   0.383   2.854 -0.4716  0.4419 -0.4852
 5668TIP3    H116968   4.416   0.446   2.915 -1.6240  0.3049 -1.0298
 5668TIP3    H216969   4.544   0.412   2.842 -0.6663  1.3369  0.1231
 5669TIP3   OH216970   3.301   6.164   3.697  0.1634  0.5445 -0.0520
 5669TIP3    H116971   3.289   6.244   3.747 -0.4142  2.2694 -2.7538
 5669TIP3    H216972   3.303   6.192   3.606  0.4650 -2.4745 -1.1016
 5670TIP3   OH216973   3.199   2.548   2.390  0.0554  0.3318 -0.6355
 5670TIP3    H116974   3.281   2.560   2.342 -0.6551  0.0786 -1.9468
 5670TIP3    H216975   3.178   2.635   2.424  1.0213  0.3340 -0.0004
 5671TIP3   OH216976   3.615   2.136   2.763  0.2354 -0.6807 -0.1308
 5671TIP3    H116977   3.685   2.162   2.703 -0.8199  0.1288 -1.0554
 5671TIP3    H216978   3.645   2.163   2.849  0.6300  0.5794 -0.6491
 5672TIP3   OH216979   3.850   0.082   4.513  0.1662  0.2224  0.1973
 5672TIP3    H116980   3.920   0.031   4.474  0.2027 -0.6629  1.3745
 5672TIP3    H216981   3.807   0.124   4.439  1.9322  0.8063 -0.5522
 5673TIP3   OH216982   3.825   0.527   2.105  0.1436  0.1058 -0.6719
 5673TIP3    H116983   3.740   0.537   2.062  0.5369 -0.9331 -1.7730
 5673TIP3    H216984   3.884   0.583   2.054  0.7542 -1.6461 -1.9862
 5674TIP3   OH216985   5.418   5.694   5.039  0.7269  0.5244 -0.0597
 5674TIP3    H116986   5.407   5.770   5.097  0.7876  1.1031 -0.7848
 5674TIP3    H216987   5.510   5.669   5.049  0.6888  0.5086  0.2387
 5675TIP3   OH216988   2.257   5.545   3.466 -0.2206 -0.6196 -0.7451
 5675TIP3    H116989   2.170   5.581   3.447 -0.3797 -0.4797  0.1969
 5675TIP3    H216990   2.307   5.618   3.501 -0.8226 -1.4041  2.0264
 5676TIP3   OH216991   0.857   2.210   1.520 -0.3128 -0.2650  0.1479
 5676TIP3    H116992   0.894   2.135   1.567  0.5759 -0.5651 -1.0048
 5676TIP3    H216993   0.857   2.183   1.428 -3.5272 -0.3298  0.0590
 5677TIP3   OH216994   4.713   3.968   4.523  0.5518 -0.8048 -0.1510
 5677TIP3    H116995   4.794   3.919   4.533  1.1738  0.6543  3.3944
 5677TIP3    H216996   4.644   3.900   4.523  1.5744 -1.8948  0.8581
 5678TIP3   OH216997   5.096   2.467   1.363 -0.1190  0.6531 -0.2333
 5678TIP3    H116998   5.069   2.439   1.276 -1.1529  0.7845  0.0426
 5678TIP3    H216999   5.092   2.388   1.416  0.8787  0.4880 -0.3670
 5679TIP3   OH217000   6.285   3.270   0.930  0.4375  0.0954  0.0239
 5679TIP3    H117001   6.298   3.178   0.956  0.6419  0.1113 -0.0234
 5679TIP3    H217002   6.193   3.274   0.905  0.5970 -0.2694 -0.6639
 5680TIP3   OH217003   3.992   1.926   3.198 -0.4029 -0.1487  0.0367
 5680TIP3    H117004   3.977   1.918   3.104 -2.2872 -2.7118  0.4627
 5680TIP3    H217005   3.915   1.974   3.230 -1.3564 -1.9246  0.5733
 5681TIP3   OH217006   3.897   3.734   0.624 -0.1437  0.2101  0.8571
 5681TIP3    H117007   3.802   3.733   0.637 -0.8886  0.9114 -3.2016
 5681TIP3    H217008   3.918   3.827   0.608  0.5976 -0.2597 -1.2462
 5682TIP3   OH217009   6.631   0.594   0.816 -0.5793  0.0482  0.0189
 5682TIP3    H117010   6.665   0.631   0.898 -2.2272  0.1667  0.7013
 5682TIP3    H217011   6.577   0.520   0.844  1.8061 -2.3098 -1.2537
 5683TIP3   OH217012   6.134   1.949   5.203 -0.6414  0.1562 -0.2134
 5683TIP3    H117013   6.119   1.947   5.108  1.5745 -0.7672 -0.5998
 5683TIP3    H217014   6.225   1.921   5.213 -0.3490  1.7302  2.0986
 5684TIP3   OH217015   0.775   1.276   1.665  0.2275  0.5833  0.0455
 5684TIP3    H117016   0.748   1.234   1.747 -1.7578  1.9645  0.1817
 5684TIP3    H217017   0.703   1.258   1.604  0.6746  1.3793 -0.7374
 5685TIP3   OH217018   6.549   6.733   2.849  0.1449 -0.1272  0.0499
 5685TIP3    H117019   6.533   6.638   2.846 -1.3926  0.1192 -0.7223
 5685TIP3    H217020   6.584   6.754   2.763 -0.1198  0.0922 -0.0061
 5686TIP3   OH217021   3.100   4.090   5.110 -0.2659  0.0081  0.0181
 5686TIP3    H117022   3.085   4.006   5.153 -1.6671  0.6397  0.8339
 5686TIP3    H217023   3.018   4.109   5.065  0.4751  0.3545 -1.2182
 5687TIP3   OH217024   6.171   2.641   4.510 -0.0070 -0.3020  0.2266
 5687TIP3    H117025   6.114   2.639   4.588 -2.3855 -1.4962 -1.4101
 5687TIP3    H217026   6.216   2.557   4.511  1.0030  0.2214  0.9628
 5688TIP3   OH217027   0.746   2.302   5.107  0.5421 -0.4917  0.2932
 5688TIP3    H117028   0.789   2.371   5.056  1.2484 -1.7333 -0.8197
 5688TIP3    H217029   0.817   2.259   5.154  0.4403 -1.9339 -0.8082
 5689TIP3   OH217030   4.534   4.509   3.944  0.7025 -0.3012 -0.3934
 5689TIP3    H117031   4.536   4.556   3.861 -0.4028 -1.4491 -1.1057
 5689TIP3    H217032   4.479   4.433   3.927  0.5622 -0.6322  1.3572
 5690TIP3   OH217033   2.387   5.420   1.394  0.5847 -0.1297  0.7032
 5690TIP3    H117034   2.367   5.348   1.333 -0.5987  0.6498  0.1353
 5690TIP3    H217035   2.479   5.407   1.416  0.8839 -0.8059 -0.7820
 5691TIP3   OH217036   1.900   5.560   0.446  0.1993 -0.0199 -0.0945
 5691TIP3    H117037   1.974   5.603   0.490 -0.4445  0.1188  0.8688
 5691TIP3    H217038   1.922   5.467   0.448  0.3165  0.0136  0.2587
 5692TIP3   OH217039   5.425   4.775   2.754  0.0540  0.2191  0.3149
 5692TIP3    H117040   5.343   4.726   2.754 -0.4517  1.0357 -0.4916
 5692TIP3    H217041   5.492   4.709   2.740 -0.5295 -0.3648  0.2007
 5693TIP3   OH217042   1.517   2.560   2.739  0.0663  0.3072 -0.1308
 5693TIP3    H117043   1.585   2.585   2.676 -1.4040  0.5979 -1.6749
 5693TIP3    H217044   1.566   2.526   2.814  1.8829 -1.3876 -1.9526
 5694TIP3   OH217045   1.566   5.034   3.911 -0.0625 -0.1552  0.5630
 5694TIP3    H117046   1.600   5.058   3.824 -0.2241 -0.4134  0.4295
 5694TIP3    H217047   1.496   5.097   3.928 -0.3556 -0.4101  0.2966
 5695TIP3   OH217048   2.146   3.218   2.251 -0.1329  0.2981  0.7440
 5695TIP3    H117049   2.099   3.281   2.195 -1.9178  0.4433  2.3146
 5695TIP3    H217050   2.100   3.135   2.238  2.5480 -0.9775 -1.7472
 5696TIP3   OH217051   6.498   3.872   2.801 -0.5702  0.1374  0.2870
 5696TIP3    H117052   6.563   3.827   2.855 -0.6536  0.5881  0.7602
 5696TIP3    H217053   6.530   3.961   2.794  1.0277 -0.5263 -2.8425
 5697TIP3   OH217054   4.231   0.666   1.027 -0.1857  0.3173  0.1861
 5697TIP3    H117055   4.176   0.590   1.007 -0.7246  0.9280 -0.7244
 5697TIP3    H217056   4.176   0.722   1.082  0.9207 -0.8601  2.6488
 5698TIP3   OH217057   2.714   0.572   4.063 -0.2324  0.8420  0.5028
 5698TIP3    H117058   2.626   0.587   4.030 -0.0551  0.4310 -0.1601
 5698TIP3    H217059   2.772   0.594   3.990  0.2437  1.5084  1.0563
 5699TIP3   OH217060   3.139   4.913   0.635 -0.0108  0.0538 -0.2487
 5699TIP3    H117061   3.218   4.858   0.641 -0.6019 -0.9312 -1.2466
 5699TIP3    H217062   3.074   4.868   0.688 -0.6259 -0.4653 -1.4041
 5700TIP3   OH217063   0.339   1.297   3.280 -0.5742 -0.2675  0.0328
 5700TIP3    H117064   0.283   1.374   3.270 -0.7749 -0.3317  0.6283
 5700TIP3    H217065   0.427   1.332   3.293 -0.9429 -0.0476  2.3121
 5701TIP3   OH217066   1.232   5.352   2.291  0.2475 -0.0912  0.5537
 5701TIP3    H117067   1.234   5.407   2.369  1.5496  0.5830  0.0768
 5701TIP3    H217068   1.285   5.275   2.315  0.1931 -0.1383  0.5219
 5702TIP3   OH217069   4.101   0.420   5.377 -0.2029  0.1296 -0.6571
 5702TIP3    H117070   4.168   0.355   5.396 -1.0670 -0.8776 -0.9353
 5702TIP3    H217071   4.072   0.450   5.463  2.9529  3.1899 -0.4577
 5703TIP3   OH217072   0.654   0.548   5.610  0.0669  0.9815 -0.3563
 5703TIP3    H117073   0.653   0.577   5.701 -1.0501 -1.8306  0.6175
 5703TIP3    H217074   0.563   0.527   5.591  0.4323  0.6204 -1.8111
 5704TIP3   OH217075   0.549   2.139   2.487 -0.2771  0.0250 -0.0754
 5704TIP3    H117076   0.479   2.171   2.545 -0.1309 -0.1403  0.1959
 5704TIP3    H217077   0.584   2.062   2.532 -0.1495 -0.0964 -0.3787
 5705TIP3   OH217078   4.725   6.288   0.524  0.8273  0.4065  0.1481
 5705TIP3    H117079   4.710   6.240   0.442 -1.6719 -0.3936  0.9850
 5705TIP3    H217080   4.660   6.358   0.522 -0.5135 -0.7026  2.2062
 5706TIP3   OH217081   3.438   5.144   4.079 -0.3205  0.1822 -0.3336
 5706TIP3    H117082   3.400   5.230   4.060 -2.4630 -0.6838 -0.2312
 5706TIP3    H217083   3.410   5.125   4.168  0.5680 -0.4204 -0.1729
 5707TIP3   OH217084   0.810   3.003   3.834 -0.1401 -0.2533 -0.5624
 5707TIP3    H117085   0.741   3.041   3.888 -1.8533 -2.2645 -1.2489
 5707TIP3    H217086   0.849   3.079   3.789 -1.2860  1.0101  0.4859
 5708TIP3   OH217087   4.313   5.935   0.753  0.1929 -0.3346  0.4369
 5708TIP3    H117088   4.374   5.887   0.698 -2.0519 -1.3734 -1.3343
 5708TIP3    H217089   4.312   5.888   0.836 -0.2120 -1.9954 -0.4692
 5709TIP3   OH217090   4.209   0.670   1.617  0.1654  0.2830 -0.5323
 5709TIP3    H117091   4.214   0.632   1.705 -2.6089  0.9206  0.0122
 5709TIP3    H217092   4.216   0.595   1.558  2.6165 -0.1034  0.1359
 5710TIP3   OH217093   0.904   4.915   3.242 -0.2786  0.0300 -0.1614
 5710TIP3    H117094   0.843   4.892   3.313  0.7638  0.2231  0.8254
 5710TIP3    H217095   0.873   5.000   3.210 -0.9036 -0.1746 -0.1177
 5711TIP3   OH217096   3.048   5.473   2.952  0.3183  0.1884  0.1363
 5711TIP3    H117097   3.068   5.410   3.022  0.5943 -0.4414 -0.4995
 5711TIP3    H217098   3.072   5.558   2.989 -1.1107  0.0719  1.4262
 5712TIP3   OH217099   6.568   0.416   1.585  0.5460 -0.3991  0.2661
 5712TIP3    H117100   6.616   0.453   1.659  0.1291  1.4480 -0.3564
 5712TIP3    H217101   6.620   0.440   1.508 -1.0236  1.1496 -0.3707
 5713TIP3   OH217102   6.191   5.416   2.143  0.3105 -0.9471  0.1387
 5713TIP3    H117103   6.200   5.502   2.183 -1.9986 -0.6467  0.1743
 5713TIP3    H217104   6.152   5.362   2.212 -1.2304 -1.1331 -0.8368
 5714TIP3   OH217105   2.194   6.167   1.197  0.0619  1.0021  0.1449
 5714TIP3    H117106   2.264   6.122   1.244  0.1359  2.4417  1.5071
 5714TIP3    H217107   2.146   6.214   1.265 -2.5547 -0.3108 -0.6871
 5715TIP3   OH217108   4.271   5.295   4.708  0.1194 -0.0944  0.4825
 5715TIP3    H117109   4.231   5.378   4.736 -1.7628 -0.4323 -1.0027
 5715TIP3    H217110   4.248   5.233   4.777  2.0834  0.6870  1.9291
 5716TIP3   OH217111   0.971   6.529   3.908  0.9344  0.1295 -0.3247
 5716TIP3    H117112   0.914   6.598   3.874  0.0507  1.3467  3.1239
 5716TIP3    H217113   0.912   6.456   3.925  0.1989  1.2886  2.9694
 5717TIP3   OH217114   3.073   0.886   2.588 -0.2736 -0.2239 -0.6871
 5717TIP3    H117115   3.058   0.927   2.503 -2.6282  1.4707  0.4493
 5717TIP3    H217116   3.040   0.796   2.577 -2.3981  0.5388 -1.0984
 5718TIP3   OH217117   1.505   3.201   3.105  0.2495  0.0025 -0.4898
 5718TIP3    H117118   1.466   3.233   3.024 -1.0984 -0.8146 -0.2094
 5718TIP3    H217119   1.435   3.149   3.146  0.3633  1.6084  1.9428
 5719TIP3   OH217120   6.928   4.489   4.399 -0.2602 -0.1121 -0.0326
 5719TIP3    H117121   6.908   4.511   4.308  0.3840  1.3974  0.1558
 5719TIP3    H217122   7.021   4.510   4.408 -0.5382  0.6618  1.2193
 5720TIP3   OH217123   4.141   6.211   2.720 -0.0237  0.1235  0.0134
 5720TIP3    H117124   4.166   6.128   2.759 -4.1644 -1.3990 -0.0152
 5720TIP3    H217125   4.112   6.265   2.794 -0.0488  0.4258 -0.2139
 5721TIP3   OH217126   5.566   0.887   3.616 -0.1418 -0.3665  0.2616
 5721TIP3    H117127   5.503   0.958   3.624 -0.5326 -0.8082  1.1436
 5721TIP3    H217128   5.572   0.848   3.703 -1.8419 -3.0248 -0.6782
 5722TIP3   OH217129   0.354   2.653   2.653 -0.6166  0.4512  0.6146
 5722TIP3    H117130   0.386   2.576   2.699 -0.7892  0.3382  0.5480
 5722TIP3    H217131   0.432   2.696   2.620 -0.4897  0.5536  1.0474
 5723TIP3   OH217132   3.364   3.464   5.003 -0.0353  0.0286  0.0791
 5723TIP3    H117133   3.274   3.481   4.975 -0.8691 -2.1002  1.2644
 5723TIP3    H217134   3.403   3.551   5.012 -2.4357  1.0991  1.0098
 5724TIP3   OH217135   5.645   5.787   3.996 -0.7938  0.3372  0.1278
 5724TIP3    H117136   5.621   5.839   4.073  0.1788 -0.4905  1.0161
 5724TIP3    H217137   5.682   5.850   3.934 -1.7028  1.0285  0.2728
 5725TIP3   OH217138   4.241   5.086   1.915 -0.4699 -0.8715  0.4002
 5725TIP3    H117139   4.280   5.172   1.902 -1.9779 -0.2617 -0.2974
 5725TIP3    H217140   4.254   5.040   1.831 -2.3805 -0.1564 -0.3512
 5726TIP3   OH217141   4.135   3.832   1.041 -0.3279  0.2878  0.6297
 5726TIP3    H117142   4.050   3.790   1.054 -0.4421  0.1705 -0.4288
 5726TIP3    H217143   4.120   3.924   1.062 -0.7112  0.2607  0.4802
 5727TIP3   OH217144   4.630   6.161   0.778 -0.1008 -0.0580 -0.2008
 5727TIP3    H117145   4.535   6.169   0.767 -0.0399  0.6229 -0.2906
 5727TIP3    H217146   4.667   6.203   0.700  0.2744 -1.1101 -0.6041
 5728TIP3   OH217147   2.659   0.573   3.014 -0.1895  0.3825 -0.0445
 5728TIP3    H117148   2.651   0.624   3.095 -3.4273  0.2487 -0.1497
 5728TIP3    H217149   2.662   0.482   3.044  3.3783  0.3632  0.0233
 5729TIP3   OH217150   2.039   1.605   2.830  0.4946 -0.2959 -0.1520
 5729TIP3    H117151   2.036   1.516   2.863 -2.5529  0.0678  0.8894
 5729TIP3    H217152   2.008   1.598   2.739 -0.4724 -0.2591  0.1620
 5730TIP3   OH217153   6.791   0.868   2.806 -0.0382  0.5860  0.2178
 5730TIP3    H117154   6.848   0.945   2.809 -0.6013  0.9892  0.7503
 5730TIP3    H217155   6.758   0.858   2.895 -1.4831  0.8994 -0.2455
 5731TIP3   OH217156   4.641   1.326   1.498 -0.4996  0.2979 -0.2690
 5731TIP3    H117157   4.606   1.399   1.447 -0.9196  0.9005  0.8479
 5731TIP3    H217158   4.733   1.350   1.513 -0.5954  0.5279 -0.0387
 5732TIP3   OH217159   5.892   6.122   3.201  0.2882  0.6655  0.3218
 5732TIP3    H117160   5.936   6.046   3.238 -0.5063 -0.4172 -0.8794
 5732TIP3    H217161   5.934   6.136   3.116 -2.2540 -1.0755 -1.3684
 5733TIP3   OH217162   0.166   2.501   2.487 -0.1343 -0.4335 -0.4572
 5733TIP3    H117163   0.192   2.501   2.395  0.5551 -2.6448 -0.3154
 5733TIP3    H217164   0.240   2.542   2.532  0.4974 -1.3033 -0.6820
 5734TIP3   OH217165   1.054   2.369   5.559 -0.5119  0.5652  0.2716
 5734TIP3    H117166   0.970   2.373   5.512 -0.1138  0.6945 -0.4532
 5734TIP3    H217167   1.086   2.280   5.544  0.2660  1.0105 -0.9004
 5735TIP3   OH217168   1.322   5.988   4.768 -0.5581  0.6760  0.2982
 5735TIP3    H117169   1.383   5.925   4.807  1.5194  1.1573 -1.9061
 5735TIP3    H217170   1.306   5.955   4.680 -1.4245  1.9167 -0.0390
 5736TIP3   OH217171   0.983   4.628   1.680  0.2367  0.3328  0.4781
 5736TIP3    H117172   1.038   4.671   1.746 -1.7534  1.4874  1.4511
 5736TIP3    H217173   0.908   4.595   1.729  0.2001 -1.5801 -0.7526
 5737TIP3   OH217174   2.106   4.525   0.879  0.1303 -0.4513  0.1129
 5737TIP3    H117175   2.175   4.477   0.834 -0.8415 -1.5207 -0.2922
 5737TIP3    H217176   2.121   4.508   0.972  1.9164  1.4550  0.2680
 5738TIP3   OH217177   2.938   2.611   0.142 -0.0550  0.1690  0.0966
 5738TIP3    H117178   2.965   2.597   0.232 -1.5438 -1.7541  0.2991
 5738TIP3    H217179   3.017   2.593   0.090  0.7065  0.9188  0.9535
 5739TIP3   OH217180   6.524   1.427   4.118  0.1112 -0.3077 -0.6716
 5739TIP3    H117181   6.436   1.403   4.088 -0.7817 -1.1221  2.2197
 5739TIP3    H217182   6.553   1.351   4.169  1.2326  1.0701  0.8419
 5740TIP3   OH217183   5.021   3.777   0.231  0.3608 -0.0325  0.2077
 5740TIP3    H117184   4.960   3.708   0.203 -0.6076  0.4027  1.1647
 5740TIP3    H217185   5.030   3.763   0.325  0.9555  0.5332  0.2349
 5741TIP3   OH217186   4.631   4.834   4.234  0.2308 -0.6545 -0.3115
 5741TIP3    H117187   4.543   4.857   4.202 -0.2371 -0.8504  0.7940
 5741TIP3    H217188   4.645   4.890   4.309  0.4906 -1.5695  0.3404
 5742TIP3   OH217189   3.816   3.762   1.997 -0.6069 -0.0115  0.4419
 5742TIP3    H117190   3.748   3.829   1.990 -2.4509 -1.9330 -2.9759
 5742TIP3    H217191   3.769   3.679   1.987  1.9183 -1.6392  1.1340
 5743TIP3   OH217192   2.716   2.652   2.437  0.2042 -0.2830 -0.1355
 5743TIP3    H117193   2.747   2.563   2.457 -0.8587 -0.5237  0.5323
 5743TIP3    H217194   2.726   2.660   2.342  3.3555  0.0999  0.0987
 5744TIP3   OH217195   3.027   1.000   2.888 -0.0981 -0.4331  0.6224
 5744TIP3    H117196   3.073   0.917   2.888  1.3401  0.2300 -1.9865
 5744TIP3    H217197   3.065   1.049   2.961  1.2548 -0.9862  0.3164
 5745TIP3   OH217198   4.950   4.560   2.431 -0.6628 -0.1524 -0.2641
 5745TIP3    H117199   4.979   4.576   2.341 -1.6451  0.5217 -0.4758
 5745TIP3    H217200   4.890   4.632   2.450 -0.5985 -0.3830  0.8756
 5746TIP3   OH217201   4.233   3.966   3.597  0.0968 -0.0224 -0.3239
 5746TIP3    H117202   4.262   4.021   3.523  1.1229  0.0981  0.1620
 5746TIP3    H217203   4.313   3.935   3.637 -0.4741 -1.5263 -0.2979
 5747TIP3   OH217204   6.219   4.050   1.499 -0.0104  0.5641  0.5813
 5747TIP3    H117205   6.157   3.976   1.502  1.5446 -0.7773  1.0275
 5747TIP3    H217206   6.298   4.017   1.542  0.0957  3.1720  2.6653
 5748TIP3   OH217207   5.553   4.640   4.116 -0.0664  0.5582  0.4113
 5748TIP3    H117208   5.558   4.546   4.135  0.3995  0.5011  0.0150
 5748TIP3    H217209   5.596   4.682   4.190 -2.2317  0.5991  1.7155
 5749TIP3   OH217210   0.095   1.030   1.134 -0.2052  0.2345  0.0442
 5749TIP3    H117211   0.033   1.089   1.091 -1.3764 -1.6221 -0.9204
 5749TIP3    H217212   0.170   1.085   1.154 -1.2121  2.0335 -0.8728
 5750TIP3   OH217213   2.623   1.921   1.706 -0.0824 -0.4928 -0.6839
 5750TIP3    H117214   2.709   1.920   1.664  0.5726  0.3097  0.5767
 5750TIP3    H217215   2.626   1.995   1.767 -1.6262 -0.5280 -0.5140
 5751TIP3   OH217216   1.267   5.838   4.301 -0.6785  0.2727 -0.2949
 5751TIP3    H117217   1.318   5.912   4.337 -3.2173  1.8117  0.3688
 5751TIP3    H217218   1.212   5.877   4.234 -1.8272 -1.0842 -0.1847
 5752TIP3   OH217219   1.855   6.694   2.340 -0.2020  0.3959  0.0379
 5752TIP3    H117220   1.770   6.649   2.334  0.2883 -0.5417 -0.0754
 5752TIP3    H217221   1.865   6.713   2.433  1.1763 -2.9877  0.7319
 5753TIP3   OH217222   6.920   2.586   1.499 -0.1083  0.1736  0.2401
 5753TIP3    H117223   6.885   2.663   1.543  1.5071  1.0080  0.1540
 5753TIP3    H217224   6.947   2.528   1.570 -0.1512  0.2489  0.3184
 5754TIP3   OH217225   0.250   4.354   1.832  0.0344  0.1067  0.3040
 5754TIP3    H117226   0.287   4.272   1.801  1.5891  1.5333 -1.8908
 5754TIP3    H217227   0.325   4.405   1.862 -0.8582  0.8941  1.3005
 5755TIP3   OH217228   2.440   4.728   0.601 -0.0746 -0.4271  0.3024
 5755TIP3    H117229   2.493   4.740   0.681 -0.2032 -0.0553  0.3337
 5755TIP3    H217230   2.493   4.767   0.532  0.0506 -0.7776  0.1962
 5756TIP3   OH217231   2.031   4.617   1.595 -0.7842  0.3878  0.2198
 5756TIP3    H117232   1.957   4.561   1.614 -1.5592  1.1283 -0.5377
 5756TIP3    H217233   2.031   4.683   1.664 -2.1953  1.6944 -0.9554
 5757TIP3   OH217234   1.720   2.155   2.885 -0.0551 -0.7392 -0.2282
 5757TIP3    H117235   1.638   2.120   2.850 -0.5525 -0.2215  0.3805
 5757TIP3    H217236   1.720   2.129   2.977  0.1310 -0.1692 -0.0593
 5758TIP3   OH217237   3.468   6.726   5.252 -0.1592  0.2204 -0.5165
 5758TIP3    H117238   3.427   6.684   5.176  1.5132  1.4350 -2.1649
 5758TIP3    H217239   3.401   6.720   5.321 -1.1085 -2.3933 -1.5366
 5759TIP3   OH217240   0.038   5.680   0.291 -0.0333  0.2236  0.1448
 5759TIP3    H117241  -0.039   5.643   0.249  1.0276  0.4508 -2.1233
 5759TIP3    H217242   0.006   5.761   0.331 -0.7766  1.0038 -1.8920
 5760TIP3   OH217243   4.196   3.624   4.345  0.1290  0.2169 -0.4999
 5760TIP3    H117244   4.104   3.599   4.351 -0.4230  1.9682 -1.1234
 5760TIP3    H217245   4.196   3.708   4.299  2.1134 -0.1167 -1.2262
 5761TIP3   OH217246   0.413   0.593   2.442 -0.5565 -0.2571 -0.4648
 5761TIP3    H117247   0.381   0.682   2.426  1.3273  0.2962 -1.3957
 5761TIP3    H217248   0.344   0.536   2.408 -1.3207  0.8558 -0.8289
 5762TIP3   OH217249   3.890   3.400   2.921 -0.2253 -0.0748 -0.3820
 5762TIP3    H117250   3.957   3.437   2.863 -0.0457 -0.9511 -0.7460
 5762TIP3    H217251   3.940   3.369   2.997 -0.2080 -0.7107 -0.6443
 5763TIP3   OH217252   0.187   5.748   3.537  0.1186 -0.0919 -0.5688
 5763TIP3    H117253   0.276   5.773   3.511  0.5944 -0.6633  0.4345
 5763TIP3    H217254   0.172   5.663   3.495  0.5991 -0.6550  0.3473
 5764TIP3   OH217255   6.480   4.221   2.059  0.4989  0.4111 -0.4147
 5764TIP3    H117256   6.546   4.244   2.125  1.6071 -1.9012 -0.5872
 5764TIP3    H217257   6.476   4.297   2.002  1.4391  1.4612  0.8450
 5765TIP3   OH217258   5.768   4.258   1.315 -0.2054 -0.5495  0.0068
 5765TIP3    H117259   5.694   4.297   1.268 -0.2663 -0.2914  0.3099
 5765TIP3    H217260   5.844   4.308   1.286 -0.0836 -1.0918 -0.6263
 5766TIP3   OH217261   1.006   5.626   5.091  0.1895 -0.0921  0.1854
 5766TIP3    H117262   0.920   5.590   5.070  1.0758 -1.0469 -2.0757
 5766TIP3    H217263   0.987   5.716   5.120 -1.5170 -0.0470 -0.9068
 5767TIP3   OH217264   0.219   1.524   4.962 -0.7222  0.3983 -0.0552
 5767TIP3    H117265   0.259   1.462   5.023 -0.7748 -0.6349 -1.0308
 5767TIP3    H217266   0.156   1.573   5.015  0.0606  0.3466  0.9575
 5768TIP3   OH217267   2.196   2.981   4.959 -0.2376  0.1503 -0.0333
 5768TIP3    H117268   2.129   3.046   4.939  0.6878  1.1751  0.0589
 5768TIP3    H217269   2.156   2.897   4.939 -1.3023  0.7848 -0.6289
 5769TIP3   OH217270   2.962   5.295   5.112  0.3063 -0.3288 -0.2514
 5769TIP3    H117271   3.019   5.368   5.089  0.6083  0.0677  1.6633
 5769TIP3    H217272   3.022   5.225   5.139 -0.0578 -0.5987 -0.1259
 5770TIP3   OH217273   6.951   4.854   0.502  0.0015  0.0569  0.4692
 5770TIP3    H117274   6.989   4.831   0.587 -0.0955  0.2471  0.5641
 5770TIP3    H217275   7.009   4.812   0.438  0.1047 -0.0433  0.6273
 5771TIP3   OH217276   4.215   1.954   3.919 -0.2242 -1.1364 -0.3144
 5771TIP3    H117277   4.148   1.920   3.860 -1.9832  0.0368  0.9008
 5771TIP3    H217278   4.186   2.043   3.939  1.2723 -0.8792  0.8962
 5772TIP3   OH217279   0.166   4.536   4.576  0.5993  0.1417 -0.3504
 5772TIP3    H117280   0.218   4.488   4.511  0.5917 -1.0557  0.4929
 5772TIP3    H217281   0.129   4.609   4.528 -0.8082 -1.6443 -2.1426
 5773TIP3   OH217282   2.509   1.977   5.871 -0.1076  0.1631 -0.0966
 5773TIP3    H117283   2.496   2.072   5.863 -0.0419  0.1136 -0.8575
 5773TIP3    H217284   2.603   1.968   5.887 -0.0630  0.2089 -0.3316
 5774TIP3   OH217285   6.601   1.649   3.137 -0.0096  0.4873 -0.0606
 5774TIP3    H117286   6.570   1.563   3.165 -1.4521  0.7386 -0.7708
 5774TIP3    H217287   6.534   1.710   3.168 -0.4017  1.0348 -1.8323
 5775TIP3   OH217288   7.057   0.915   1.964  0.6277  0.5610 -0.2180
 5775TIP3    H117289   7.087   0.964   1.888 -0.4641  1.1423 -0.2857
 5775TIP3    H217290   7.087   0.967   2.039  2.3840 -0.3998 -0.1797
 5776TIP3   OH217291   5.654   0.758   5.591  0.1168 -0.6172 -0.1902
 5776TIP3    H117292   5.718   0.716   5.649  0.6443 -0.5128 -0.6899
 5776TIP3    H217293   5.652   0.702   5.513  0.2982 -0.1093 -0.5653
 5777TIP3   OH217294   7.225   5.426   1.115 -0.0333 -0.4390  0.2503
 5777TIP3    H117295   7.234   5.341   1.073 -0.0416  0.5884 -1.9608
 5777TIP3    H217296   7.132   5.434   1.134  0.0668 -1.1897  1.1321
 5778TIP3   OH217297   7.024   2.688   5.034 -0.0662 -0.0352  0.4023
 5778TIP3    H117298   7.083   2.631   4.985 -1.6237 -2.0153  0.7320
 5778TIP3    H217299   7.003   2.639   5.113 -1.1583  1.1739  0.8898
 5779TIP3   OH217300   6.845   2.357   1.678  0.9703  0.3261 -0.0529
 5779TIP3    H117301   6.753   2.341   1.659  0.8127  0.5085  0.5247
 5779TIP3    H217302   6.845   2.392   1.767  1.6733 -0.5409  0.3007
 5780TIP3   OH217303   4.844   0.043   2.190  0.0647  0.2428 -0.5058
 5780TIP3    H117304   4.841   0.090   2.106  0.9968  1.9127  0.3290
 5780TIP3    H217305   4.882   0.107   2.251  0.2159 -1.2227  0.9942
 5781TIP3   OH217306   4.747   2.088   3.283 -0.6518 -0.2837  0.1445
 5781TIP3    H117307   4.690   2.112   3.356 -2.2798 -0.2120 -1.1056
 5781TIP3    H217308   4.752   2.167   3.229 -0.1854 -0.5995 -0.2875
 5782TIP3   OH217309   1.439   4.347   2.981 -0.3412 -0.1445  0.6686
 5782TIP3    H117310   1.464   4.258   3.009 -1.3707 -0.6183  0.1199
 5782TIP3    H217311   1.481   4.404   3.045  2.8212 -0.8040 -0.5875
 5783TIP3   OH217312   4.744   2.236   0.125 -0.5851  0.2097 -0.2006
 5783TIP3    H117313   4.696   2.239   0.042 -0.6057 -3.3652 -0.4814
 5783TIP3    H217314   4.697   2.171   0.177  0.4679  1.0841  1.9528
 5784TIP3   OH217315   2.576   5.977   0.868  0.4226  0.0962 -0.3042
 5784TIP3    H117316   2.550   6.069   0.879 -0.4226 -0.2524  0.7083
 5784TIP3    H217317   2.668   5.976   0.894  0.2386  0.5240  0.3897
 5785TIP3   OH217318   5.654   1.553   4.794 -0.1656  0.7003  0.1203
 5785TIP3    H117319   5.625   1.471   4.834 -4.6143  2.5427  1.3486
 5785TIP3    H217320   5.601   1.561   4.714  2.0275  1.3015 -1.3588
 5786TIP3   OH217321   2.142   0.330   0.850  0.8286  0.1704 -0.2114
 5786TIP3    H117322   2.181   0.388   0.916  0.3407 -3.6004  3.9318
 5786TIP3    H217323   2.048   0.346   0.856  0.8512  0.5458 -0.8083
 5787TIP3   OH217324   5.938   2.474   5.832  0.2002 -0.5111 -0.4002
 5787TIP3    H117325   5.981   2.430   5.905  0.0630  0.0389  0.0218
 5787TIP3    H217326   5.913   2.404   5.772 -0.3423 -1.0354  0.4271
 5788TIP3   OH217327   5.192   5.176   3.485  0.2979 -0.2029 -0.0554
 5788TIP3    H117328   5.213   5.265   3.456  0.0658 -0.1238  0.0140
 5788TIP3    H217329   5.160   5.187   3.574  3.0179 -0.6766  1.0768
 5789TIP3   OH217330   6.571   2.687   2.938  0.2101 -0.5415  0.3137
 5789TIP3    H117331   6.563   2.644   3.023 -0.6681  0.0633  0.5437
 5789TIP3    H217332   6.601   2.617   2.879  0.2015 -1.1163  0.9830
 5790TIP3   OH217333   3.207   1.160   0.224 -0.1849 -0.3638 -0.4403
 5790TIP3    H117334   3.291   1.114   0.226  0.2911  0.5125  0.2471
 5790TIP3    H217335   3.224   1.244   0.266 -1.0570  0.4496 -1.6387
 5791TIP3   OH217336   5.473   2.992   0.517 -0.3304  0.1817 -0.2477
 5791TIP3    H117337   5.537   2.937   0.563  0.1733  0.9751  0.0204
 5791TIP3    H217338   5.398   2.994   0.576 -0.7818 -1.0881 -0.7485
 5792TIP3   OH217339   3.137   0.422   4.327 -0.1355  0.1463 -0.1567
 5792TIP3    H117340   3.222   0.460   4.302  0.0559  0.1377  0.4627
 5792TIP3    H217341   3.155   0.329   4.339 -0.2130  0.1614  0.0732
 5793TIP3   OH217342   0.700   5.436   4.757 -0.4757 -0.0827  0.2803
 5793TIP3    H117343   0.686   5.470   4.669  0.2039  1.7138  0.8139
 5793TIP3    H217344   0.734   5.348   4.744 -1.9054 -0.4579 -1.1951
 5794TIP3   OH217345   4.114   2.640   3.685 -0.5578  0.7240  0.0829
 5794TIP3    H117346   4.147   2.570   3.629 -1.4268  1.4494 -1.4105
 5794TIP3    H217347   4.019   2.633   3.680 -0.8446 -1.3938  4.4027
 5795TIP3   OH217348   2.193   5.039   1.418  0.6816  0.0616 -0.7508
 5795TIP3    H117349   2.255   5.007   1.483 -0.0185 -0.3237 -0.2496
 5795TIP3    H217350   2.247   5.061   1.342  1.3509 -1.0471 -0.6288
 5796TIP3   OH217351   1.047   5.900   0.244 -0.0336  0.5035  0.0173
 5796TIP3    H117352   1.079   5.942   0.164  0.5560  1.6384  0.8185
 5796TIP3    H217353   1.044   5.970   0.308  0.5005 -0.5995  1.2851
 5797TIP3   OH217354   6.206   0.288   3.129 -0.1609 -0.0265  0.1042
 5797TIP3    H117355   6.114   0.276   3.103 -0.2697 -0.4714  0.6905
 5797TIP3    H217356   6.202   0.315   3.221  0.1641  2.7807 -0.5982
 5798TIP3   OH217357   2.009   3.220   0.246 -0.0697 -0.2977  0.3859
 5798TIP3    H117358   2.078   3.254   0.303  0.2691  1.2759 -0.8928
 5798TIP3    H217359   2.055   3.175   0.176 -0.2637  1.1136 -0.6999
 5799TIP3   OH217360   5.900   3.878   1.883 -0.3845 -0.8765 -0.1341
 5799TIP3    H117361   5.902   3.819   1.958 -0.5946  0.0448  0.6197
 5799TIP3    H217362   5.962   3.948   1.906  0.0156 -0.8947 -1.0972
 5800TIP3   OH217363   1.162   2.564   1.633 -0.2825  0.0425  0.1730
 5800TIP3    H117364   1.173   2.590   1.724  0.0620 -2.1468  0.8264
 5800TIP3    H217365   1.177   2.644   1.582 -1.4745  1.5413  2.0491
 5801TIP3   OH217366   6.224   0.937   1.177 -0.5364 -0.3394 -0.1403
 5801TIP3    H117367   6.165   0.953   1.103 -0.1557 -0.7791 -0.5452
 5801TIP3    H217368   6.165   0.931   1.253 -0.9307  0.1108 -0.4014
 5802TIP3   OH217369   4.005   0.184   0.721  0.0659 -0.3638 -0.7214
 5802TIP3    H117370   4.038   0.134   0.796 -1.5089  1.9266  1.6799
 5802TIP3    H217371   4.084   0.214   0.676  1.2086  0.2549  1.5121
 5803TIP3   OH217372   5.411   3.085   4.609  0.2581 -0.6548 -0.1616
 5803TIP3    H117373   5.486   3.026   4.609  0.8916  0.1150  0.6188
 5803TIP3    H217374   5.449   3.173   4.608 -0.6023 -0.2391  0.7697
 5804TIP3   OH217375   2.643   0.722   1.979  0.0830 -0.4860  0.2636
 5804TIP3    H117376   2.727   0.688   1.947  0.0571 -0.2649 -0.0447
 5804TIP3    H217377   2.662   0.812   2.007 -0.1659 -0.2449 -0.3280
 5805TIP3   OH217378   6.074   4.871   5.140 -0.0550 -0.2511 -0.2758
 5805TIP3    H117379   6.048   4.859   5.048 -0.2821 -0.4437 -0.1882
 5805TIP3    H217380   6.045   4.960   5.162 -1.6352 -0.8260  0.1380
 5806TIP3   OH217381   2.822   5.604   4.443 -0.3084  0.5858  0.0646
 5806TIP3    H117382   2.766   5.528   4.461 -0.1116  0.3318 -0.3681
 5806TIP3    H217383   2.766   5.680   4.458 -0.6692  0.3405 -0.0342
 5807TIP3   OH217384   4.900   1.323   5.228 -0.1078  0.0542  0.0483
 5807TIP3    H117385   4.902   1.418   5.234  1.4830  0.0252  0.4447
 5807TIP3    H217386   4.927   1.293   5.315  0.2118 -0.7322 -0.3096
 5808TIP3   OH217387   2.372   2.350   5.319 -0.2868  0.6711  0.3889
 5808TIP3    H117388   2.352   2.293   5.244 -1.2049  0.1756  0.9998
 5808TIP3    H217389   2.436   2.413   5.284 -0.1459  0.0016 -0.6142
 5809TIP3   OH217390   5.927   0.883   3.767 -0.0840  0.0912 -0.0043
 5809TIP3    H117391   6.010   0.866   3.812 -1.1974 -1.9124  1.4527
 5809TIP3    H217392   5.953   0.911   3.679  2.1586 -2.3792 -0.2550
 5810TIP3   OH217393   6.189   6.293   2.643  0.0077  0.4220  0.1651
 5810TIP3    H117394   6.214   6.367   2.587  1.5548 -0.5450 -0.4877
 5810TIP3    H217395   6.141   6.234   2.585 -0.4799  0.5112  0.4726
 5811TIP3   OH217396   0.089   3.520   4.208 -0.2937 -0.1537  0.3331
 5811TIP3    H117397   0.070   3.572   4.286 -0.3696 -2.1194  1.6955
 5811TIP3    H217398   0.051   3.434   4.227 -0.5748 -0.6137 -2.0161
 5812TIP3   OH217399   5.415   6.408   3.362  0.4241 -0.2115  0.0220
 5812TIP3    H117400   5.320   6.417   3.367  0.5062  0.0597  1.7550
 5812TIP3    H217401   5.429   6.320   3.326 -0.5323 -1.0685  1.5958
 5813TIP3   OH217402   5.676   3.176   2.072 -0.5575  0.3530 -0.2260
 5813TIP3    H117403   5.664   3.182   1.977  0.1111 -0.2334 -0.3501
 5813TIP3    H217404   5.602   3.226   2.108 -0.5028  1.0590 -1.0542
 5814TIP3   OH217405   0.996   1.296   2.395 -0.1560 -0.0759 -0.0235
 5814TIP3    H117406   0.918   1.254   2.430 -0.8897 -0.1500 -1.6689
 5814TIP3    H217407   0.994   1.385   2.430 -0.1989 -0.5030  1.0815
 5815TIP3   OH217408   3.149   0.581   0.639 -0.1874 -0.0604 -0.2999
 5815TIP3    H117409   3.108   0.642   0.578  1.0891  2.5869  1.2739
 5815TIP3    H217410   3.090   0.577   0.713 -0.1251 -0.5217 -0.2728
 5816TIP3   OH217411   5.188   2.385   3.308  0.4229 -0.0866 -0.5652
 5816TIP3    H117412   5.200   2.307   3.254 -0.1575 -0.4041 -0.2419
 5816TIP3    H217413   5.123   2.438   3.261  0.2744 -0.1394 -0.4196
 5817TIP3   OH217414   3.076   4.248   1.802  0.0038  0.0312  0.1487
 5817TIP3    H117415   3.112   4.201   1.877  1.1961 -1.8611 -1.5144
 5817TIP3    H217416   3.109   4.338   1.812 -0.1716 -0.0774  2.0290
 5818TIP3   OH217417   6.768   6.143   2.019 -0.0788 -0.0085 -0.5154
 5818TIP3    H117418   6.817   6.137   2.101 -0.4862  1.1875 -0.1577
 5818TIP3    H217419   6.805   6.075   1.964  1.9379  0.7999 -0.2285
 5819TIP3   OH217420   4.396   5.350   0.979  0.0588  0.5615  0.4653
 5819TIP3    H117421   4.362   5.261   0.985 -0.0249  0.6197  0.9009
 5819TIP3    H217422   4.433   5.368   1.066  1.5652  0.3573 -0.1083
 5820TIP3   OH217423   6.781   0.210   3.828 -0.7280 -0.4599  0.4181
 5820TIP3    H117424   6.747   0.123   3.849 -2.4410  0.5783  2.3074
 5820TIP3    H217425   6.752   0.265   3.901  0.1889  1.7386 -0.7897
 5821TIP3   OH217426   1.247   4.501   0.773 -0.1849 -0.3956  0.3958
 5821TIP3    H117427   1.301   4.579   0.776 -0.3051 -0.3035  0.1591
 5821TIP3    H217428   1.157   4.534   0.770 -0.2391 -0.5424  0.3896
 5822TIP3   OH217429   4.751   1.440   5.485  0.0710  0.4638 -0.0815
 5822TIP3    H117430   4.798   1.481   5.413 -1.1795  1.1645 -0.5403
 5822TIP3    H217431   4.660   1.436   5.454 -0.2633 -0.3891  0.9585
 5823TIP3   OH217432   4.490   2.126   3.109  0.1256 -0.4197 -0.5823
 5823TIP3    H117433   4.516   2.189   3.176 -1.7396  0.4287 -0.6038
 5823TIP3    H217434   4.549   2.052   3.122  0.8285  0.3639  0.9638
 5824TIP3   OH217435   6.813   1.604   4.311  0.1325 -0.0617  0.1484
 5824TIP3    H117436   6.871   1.625   4.384  0.8851  0.0843 -0.4704
 5824TIP3    H217437   6.872   1.572   4.242 -0.6560 -1.1980 -0.0400
 5825TIP3   OH217438   6.437   2.808   0.538 -0.3565 -0.5112 -0.2407
 5825TIP3    H117439   6.372   2.877   0.548 -1.1629 -1.2363 -0.4183
 5825TIP3    H217440   6.498   2.822   0.611  2.1296  3.1502 -2.6708
 5826TIP3   OH217441   5.392   5.461   5.482  0.1920  0.1336  0.0129
 5826TIP3    H117442   5.306   5.420   5.475 -0.3808  1.1141  1.0445
 5826TIP3    H217443   5.448   5.394   5.521 -0.3842 -0.1481  0.3620
 5827TIP3   OH217444   0.833   3.301   4.743  0.0429 -0.0737  0.3841
 5827TIP3    H117445   0.867   3.220   4.783  2.2830  0.3904 -0.4182
 5827TIP3    H217446   0.793   3.349   4.816  0.3095 -1.0966  1.2221
 5828TIP3   OH217447   2.893   1.933   2.097 -0.1010  0.0104 -0.1141
 5828TIP3    H117448   2.870   1.903   2.185 -1.6581 -0.4865 -0.6640
 5828TIP3    H217449   2.861   2.023   2.093 -1.0347 -0.3293 -0.5234
 5829TIP3   OH217450   2.977   1.711   5.258 -0.5330  0.3833 -0.5159
 5829TIP3    H117451   2.992   1.728   5.351 -0.8723 -0.7895 -0.2388
 5829TIP3    H217452   2.903   1.767   5.234 -1.2927 -0.2777  0.2455
 5830TIP3   OH217453   0.455   3.198   4.183  0.4293  0.2080 -0.0668
 5830TIP3    H117454   0.499   3.236   4.259  1.7630 -0.6779 -0.3654
 5830TIP3    H217455   0.377   3.156   4.219  1.3305 -0.6809  0.9184
 5831TIP3   OH217456   0.115   6.440   0.688 -0.7836 -0.1981  0.1547
 5831TIP3    H117457   0.130   6.371   0.752 -0.3805  0.1523  0.4489
 5831TIP3    H217458   0.109   6.520   0.740 -0.4727  0.0905 -0.2453
 5832TIP3   OH217459   1.049   2.354   5.852  0.8308 -0.1627  0.1088
 5832TIP3    H117460   1.144   2.366   5.854  0.7065  1.6796 -1.7100
 5832TIP3    H217461   1.026   2.359   5.759 -0.9687 -1.4829  0.4351
 5833TIP3   OH217462   6.327   2.019   0.626  0.6572  0.4037 -1.0571
 5833TIP3    H117463   6.353   2.053   0.711  0.5710  0.8417 -1.2043
 5833TIP3    H217464   6.276   2.090   0.586 -1.1692 -0.5745 -0.5963
 5834TIP3   OH217465   4.129   6.704   3.530 -0.2599 -0.2586 -0.7722
 5834TIP3    H117466   4.215   6.667   3.508 -0.8973 -0.5482 -2.9815
 5834TIP3    H217467   4.120   6.781   3.474 -0.6774  0.9167  0.8364
 5835TIP3   OH217468   4.370   1.802   5.050  0.3479 -0.2885 -0.4544
 5835TIP3    H117469   4.289   1.802   5.101 -0.6376  1.1041 -1.9472
 5835TIP3    H217470   4.433   1.850   5.105 -0.4003  0.3281 -0.1302
 5836TIP3   OH217471   3.972   4.073   1.639  0.5485 -0.3215  0.0510
 5836TIP3    H117472   4.036   4.038   1.576  0.7639  0.1683 -0.0091
 5836TIP3    H217473   3.920   4.135   1.588 -3.5666 -4.3527 -1.4180
 5837TIP3   OH217474   5.378   2.373   5.530  0.1094 -0.4199 -0.7445
 5837TIP3    H117475   5.322   2.375   5.608 -1.2577 -3.8352 -1.4484
 5837TIP3    H217476   5.439   2.446   5.543 -0.9116  0.0204  2.8335
 5838TIP3   OH217477   2.582   2.709   5.139  0.4299  0.8264  0.0092
 5838TIP3    H117478   2.649   2.763   5.097  0.6781  1.2122  0.8730
 5838TIP3    H217479   2.605   2.711   5.232  1.4736 -2.1540 -0.0548
 5839TIP3   OH217480   0.155   3.497   5.172 -0.1066  0.1996  0.3156
 5839TIP3    H117481   0.199   3.579   5.193 -2.7433  1.5845  0.7627
 5839TIP3    H217482   0.152   3.495   5.076  0.3870  0.3452  0.2940
 5840TIP3   OH217483   5.506   1.414   3.836 -0.3467  0.5959  0.7207
 5840TIP3    H117484   5.416   1.384   3.823 -0.0206 -0.6766  1.2024
 5840TIP3    H217485   5.560   1.345   3.795  0.4274  0.7724  1.4274
 5841TIP3   OH217486   5.477   4.075   5.532  0.0820 -0.0451 -0.0668
 5841TIP3    H117487   5.539   4.088   5.460  0.1418 -0.8630 -0.1765
 5841TIP3    H217488   5.392   4.101   5.495  0.4037  1.5395  0.2344
 5842TIP3   OH217489   2.948   1.283   3.961  0.2709  0.5103  0.6064
 5842TIP3    H117490   2.853   1.277   3.959  0.3726 -1.9863  0.8282
 5842TIP3    H217491   2.975   1.264   3.871  0.6087 -1.8597  1.1338
 5843TIP3   OH217492   6.297   4.916   2.201 -0.2908  0.1693 -0.1855
 5843TIP3    H117493   6.253   4.846   2.248 -0.4370 -0.7383 -1.6162
 5843TIP3    H217494   6.251   4.922   2.117  1.4899  0.0346 -1.2251
 5844TIP3   OH217495   2.280   2.302   0.664  0.0280  0.2889  0.6215
 5844TIP3    H117496   2.223   2.378   0.658  0.7780  0.7402 -1.4299
 5844TIP3    H217497   2.230   2.231   0.623  0.5876  0.4979 -0.4624
 5845TIP3   OH217498   7.093   4.553   2.809 -0.4142  0.0728 -0.0707
 5845TIP3    H117499   7.028   4.483   2.812 -0.7302  0.3783  2.2563
 5845TIP3    H217500   7.169   4.514   2.767 -1.1184 -1.1820 -0.2236
 5846TIP3   OH217501   3.957   4.352   5.069  0.7644  0.6996 -0.1027
 5846TIP3    H117502   3.955   4.401   5.151  0.7576  0.0577  0.2885
 5846TIP3    H217503   3.891   4.283   5.081  1.3533  0.0913 -0.3136
 5847TIP3   OH217504   5.492   4.232   5.857  0.5294 -0.0027 -0.1587
 5847TIP3    H117505   5.584   4.227   5.831  1.2573  1.4810  1.9030
 5847TIP3    H217506   5.454   4.299   5.799  1.2444  0.7753  0.2628
 5848TIP3   OH217507   5.673   1.402   0.324 -0.3710  0.5324 -0.3156
 5848TIP3    H117508   5.633   1.445   0.399  1.2012  1.8677 -0.1854
 5848TIP3    H217509   5.662   1.464   0.252  2.9357  1.8685  0.1310
 5849TIP3   OH217510   0.639   3.003   2.861  0.0985 -0.1066 -0.0864
 5849TIP3    H117511   0.613   3.095   2.872 -0.0532 -0.2904  1.3450
 5849TIP3    H217512   0.568   2.953   2.901  1.1513 -0.7368  1.0987
 5850TIP3   OH217513   4.407   0.487   1.446 -0.1286  0.0965 -0.1462
 5850TIP3    H117514   4.446   0.450   1.367  0.4354  0.6096 -0.1105
 5850TIP3    H217515   4.474   0.474   1.514  0.0781  1.1759 -0.1318
 5851TIP3   OH217516   1.153   1.892   1.793 -0.2104  0.4469  0.0841
 5851TIP3    H117517   1.145   1.798   1.782 -1.4839  0.6590 -1.2086
 5851TIP3    H217518   1.241   1.913   1.761  0.7669 -0.4674  2.0254
 5852TIP3   OH217519   2.853   4.485   0.299 -0.0624  0.1154  0.2112
 5852TIP3    H117520   2.892   4.556   0.246 -0.2075  0.4194  0.5056
 5852TIP3    H217521   2.928   4.436   0.331 -0.0060 -0.9721 -1.4783
 5853TIP3   OH217522   5.879   0.979   5.627 -0.5181 -0.4687  0.1575
 5853TIP3    H117523   5.824   0.960   5.551 -1.1185 -1.2338  0.7599
 5853TIP3    H217524   5.945   0.910   5.628 -0.3157 -0.2775  0.1558
 5854TIP3   OH217525   2.165   6.726   5.210 -0.7460  0.2543  0.2961
 5854TIP3    H117526   2.093   6.667   5.234 -0.8432 -0.0465 -0.6838
 5854TIP3    H217527   2.134   6.771   5.132 -0.8672  2.0068  1.3212
 5855TIP3   OH217528   6.834   4.211   2.512 -0.2943 -0.0231 -0.1341
 5855TIP3    H117529   6.841   4.300   2.547  2.4719  0.8534 -2.5553
 5855TIP3    H217530   6.903   4.162   2.557  0.3748 -0.0402 -1.1526
 5856TIP3   OH217531   4.020   6.179   3.832 -0.1947 -0.0659 -0.1261
 5856TIP3    H117532   4.090   6.244   3.839 -0.8771  0.5509  1.3849
 5856TIP3    H217533   4.017   6.139   3.918 -1.1761 -0.6548 -0.4251
 5857TIP3   OH217534   6.723   4.160   4.399  0.0733 -0.6593  0.3704
 5857TIP3    H117535   6.785   4.108   4.450 -0.3420  0.3294  1.9534
 5857TIP3    H217536   6.640   4.151   4.446 -0.4563 -0.1879 -0.4629
 5858TIP3   OH217537   2.990   4.528   1.315  0.5494  0.1997 -0.2619
 5858TIP3    H117538   2.999   4.478   1.234  2.5672  0.3260 -0.1804
 5858TIP3    H217539   2.960   4.464   1.380 -0.7926  0.0351 -1.0113
 5859TIP3   OH217540   7.125   2.616   2.421 -0.1459 -0.4668  0.0895
 5859TIP3    H117541   7.207   2.583   2.457  0.2470 -1.6441 -1.7469
 5859TIP3    H217542   7.057   2.566   2.467  0.3134 -1.4747 -0.2863
 5860TIP3   OH217543   2.081   3.714   4.842  0.0430 -0.0274  0.3386
 5860TIP3    H117544   2.166   3.758   4.846 -0.5540  1.2938 -0.8020
 5860TIP3    H217545   2.017   3.785   4.846 -1.0368 -0.9930  1.1499
 5861TIP3   OH217546   3.704   3.622   5.184  0.4847 -0.1762 -0.1812
 5861TIP3    H117547   3.616   3.637   5.148  1.0770  0.3986 -1.4497
 5861TIP3    H217548   3.719   3.528   5.170  0.3530 -0.1353 -0.6375
 5862TIP3   OH217549   0.144   1.392   0.056 -0.1865 -0.3703 -0.2135
 5862TIP3    H117550   0.156   1.473   0.006  2.2766 -1.2856 -1.2858
 5862TIP3    H217551   0.111   1.329  -0.008  1.8678 -1.2375 -0.5251
 5863TIP3   OH217552   2.639   5.965   4.991  0.4799 -0.1291 -0.0362
 5863TIP3    H117553   2.562   5.911   5.007  0.5532 -0.2561 -0.1105
 5863TIP3    H217554   2.647   6.020   5.069 -0.2191  0.5333 -0.4111
 5864TIP3   OH217555   4.943   0.916   0.808 -0.1834  0.2002  0.1642
 5864TIP3    H117556   4.986   0.832   0.790 -0.3212  0.4799 -1.7779
 5864TIP3    H217557   4.969   0.971   0.734 -0.7810  1.6061  0.9713
 5865TIP3   OH217558   4.783   5.721   1.941 -0.3803  0.2330  0.1873
 5865TIP3    H117559   4.779   5.685   2.030  0.0250  0.2416  0.2082
 5865TIP3    H217560   4.693   5.747   1.922 -0.7421 -1.0030  0.0881
 5866TIP3   OH217561   4.208   4.362   0.166  0.1602  0.2579 -0.0170
 5866TIP3    H117562   4.192   4.270   0.144  3.3441 -0.3242 -0.3035
 5866TIP3    H217563   4.302   4.373   0.157  0.2439  2.9002  2.6778
 5867TIP3   OH217564   4.850   5.562   0.676  0.0095 -0.1919  0.0546
 5867TIP3    H117565   4.831   5.609   0.595  0.4929 -0.6300 -0.3295
 5867TIP3    H217566   4.807   5.612   0.745  1.0541  1.1881 -0.2507
 5868TIP3   OH217567   6.093   5.364   0.058 -0.1772  0.1370  0.0111
 5868TIP3    H117568   6.053   5.419  -0.010  0.4032 -0.9001 -1.2098
 5868TIP3    H217569   6.116   5.283   0.013 -1.5762 -1.3856  1.8967
 5869TIP3   OH217570   1.503   3.778   3.607 -0.6966 -0.0370  0.0425
 5869TIP3    H117571   1.489   3.695   3.562 -2.4452  0.5385 -0.5575
 5869TIP3    H217572   1.451   3.771   3.687 -0.8494  0.4694 -0.0092
 5870TIP3   OH217573   5.130   5.965   5.233 -0.3160  0.3088 -0.3175
 5870TIP3    H117574   5.140   6.029   5.304 -0.3149  1.4909 -1.3499
 5870TIP3    H217575   5.164   6.010   5.156  1.0510 -1.4913 -0.8119
 5871TIP3   OH217576   2.838   5.899   0.840  0.3707 -0.5534  0.2895
 5871TIP3    H117577   2.823   5.805   0.849  1.2600 -0.7552 -0.1570
 5871TIP3    H217578   2.934   5.907   0.834  0.3358  0.4229  0.7674
 5872TIP3   OH217579   5.265   6.284   0.450 -0.3393 -0.1202 -0.0723
 5872TIP3    H117580   5.357   6.261   0.442  0.6499  3.4547 -0.7898
 5872TIP3    H217581   5.246   6.277   0.543  1.8480  2.5843  0.7180
 5873TIP3   OH217582   2.363   3.526   0.081  0.4754  0.3998 -0.2446
 5873TIP3    H117583   2.269   3.542   0.091  0.5490  1.2391 -0.7691
 5873TIP3    H217584   2.405   3.606   0.114  1.0326 -0.1853  0.4834
 5874TIP3   OH217585   5.640   3.022   1.244  0.2673 -0.1456 -0.6548
 5874TIP3    H117586   5.602   2.945   1.203 -0.2540  0.1960 -0.8238
 5874TIP3    H217587   5.720   3.039   1.194  0.8760 -1.1114 -0.0335
 5875TIP3   OH217588   0.281   5.928   3.270 -0.6065  0.6005 -0.5640
 5875TIP3    H117589   0.306   5.948   3.180 -0.0806  0.9612 -0.3420
 5875TIP3    H217590   0.196   5.886   3.263 -1.6488  2.6550 -1.0868
 5876TIP3   OH217591   2.421   4.389   4.648 -0.1797  0.9216 -0.5771
 5876TIP3    H117592   2.414   4.391   4.553  1.2763  0.6126 -0.7186
 5876TIP3    H217593   2.333   4.411   4.680 -0.1480  3.4303 -1.9821
 5877TIP3   OH217594   2.035   3.883   1.352  0.1655  0.2743 -0.0647
 5877TIP3    H117595   1.941   3.872   1.363  0.3191  0.7059  1.9151
 5877TIP3    H217596   2.072   3.870   1.439  1.8003  1.4721 -0.5166
 5878TIP3   OH217597   0.632   5.528   0.252  0.4322 -0.2140 -0.0505
 5878TIP3    H117598   0.687   5.601   0.281 -0.9656  0.9003 -0.0488
 5878TIP3    H217599   0.674   5.450   0.288  2.2255  0.5360 -0.4276
 5879TIP3   OH217600   2.273   3.521   2.962 -0.1450  0.3830  0.8985
 5879TIP3    H117601   2.321   3.603   2.974 -1.2115  1.1209  0.1944
 5879TIP3    H217602   2.284   3.499   2.870  0.0598 -0.2393  1.0607
 5880TIP3   OH217603   5.902   0.469   1.824 -0.2723  0.0162  0.2717
 5880TIP3    H117604   5.890   0.375   1.812 -1.2312  0.1740 -0.0763
 5880TIP3    H217605   5.867   0.508   1.745 -1.8983  0.7796  1.3180
 5881TIP3   OH217606   2.392   4.021   4.463 -0.4408 -0.5220 -0.3747
 5881TIP3    H117607   2.304   3.984   4.466 -0.3630 -0.7045 -0.3649
 5881TIP3    H217608   2.417   4.029   4.555 -0.7428  0.2324 -0.3476
 5882TIP3   OH217609   4.944   2.086   3.702  0.3180 -0.8318  0.1187
 5882TIP3    H117610   4.914   2.064   3.614 -1.3551 -0.4936  0.5683
 5882TIP3    H217611   4.951   2.001   3.746 -1.2097 -0.8806  0.3443
 5883TIP3   OH217612   5.518   4.752   1.931 -0.4434  0.7926  0.0476
 5883TIP3    H117613   5.479   4.703   1.859 -0.3381 -1.1540  1.2351
 5883TIP3    H217614   5.601   4.785   1.896 -1.0531  1.1189 -1.1351
 5884TIP3   OH217615   2.373   5.471   5.843  0.1310 -0.7474  0.3946
 5884TIP3    H117616   2.312   5.481   5.916 -1.6805 -1.1401 -0.9998
 5884TIP3    H217617   2.326   5.505   5.767  1.8729 -0.5504 -0.6567
 5885TIP3   OH217618   2.606   5.412   4.813 -0.4898 -0.7417 -0.2024
 5885TIP3    H117619   2.696   5.383   4.795 -0.2991 -0.2466 -0.0761
 5885TIP3    H217620   2.552   5.336   4.794  0.0447 -1.3404  0.5926
 5886TIP3   OH217621   7.004   4.805   4.089  0.0157  0.0429 -0.2098
 5886TIP3    H117622   6.929   4.803   4.149 -1.2007 -1.7585 -1.6565
 5886TIP3    H217623   7.062   4.737   4.122  0.0891  0.1150 -0.1914
 5887TIP3   OH217624   3.081   0.980   5.048  0.1699  0.0092 -0.0066
 5887TIP3    H117625   3.056   0.932   5.128 -0.5927  1.3316  0.5793
 5887TIP3    H217626   3.152   0.929   5.011 -0.1483 -1.1998  0.9712
 5888TIP3   OH217627   6.455   0.349   3.644 -0.1165  0.5501  0.8349
 5888TIP3    H117628   6.390   0.335   3.575 -0.9437  0.8610  1.5242
 5888TIP3    H217629   6.528   0.292   3.621 -0.5931  0.2685 -0.0161
 5889TIP3   OH217630   5.344   4.460   3.022 -0.0375  0.2789 -0.1229
 5889TIP3    H117631   5.407   4.450   2.951  0.6111  0.7275  0.3760
 5889TIP3    H217632   5.398   4.463   3.101 -0.7666 -0.5070  0.4172
 5890TIP3   OH217633   3.357   3.877   2.624 -0.2789  0.2040  0.6267
 5890TIP3    H117634   3.267   3.868   2.655 -0.6632  0.2963 -0.4231
 5890TIP3    H217635   3.368   3.803   2.563  0.3162  0.2604  0.6643
 5891TIP3   OH217636   4.875   4.010   5.755  0.1149 -0.0486  0.1879
 5891TIP3    H117637   4.871   3.991   5.662  1.1845 -0.1671  0.1554
 5891TIP3    H217638   4.888   3.925   5.797  1.7890  0.2121  0.2685
 5892TIP3   OH217639   0.648   3.166   3.987  0.1975  0.0855  0.0431
 5892TIP3    H117640   0.643   3.246   3.936  0.6923 -0.9020 -1.6111
 5892TIP3    H217641   0.573   3.171   4.046 -1.6343  0.3637 -2.1668
 5893TIP3   OH217642   6.823   0.534   5.353  0.1303 -0.0636 -0.0095
 5893TIP3    H117643   6.806   0.612   5.405  1.9321  0.1979  0.2335
 5893TIP3    H217644   6.738   0.513   5.313 -0.2390  2.5045 -0.7600
 5894TIP3   OH217645   4.894   1.082   4.116 -0.1009  0.0775  0.0814
 5894TIP3    H117646   4.986   1.055   4.107 -0.2839 -0.4372 -0.2757
 5894TIP3    H217647   4.845   1.000   4.117 -0.4702  0.2948  1.4164
 5895TIP3   OH217648   5.535   4.110   2.666  0.0173  0.6835 -0.0790
 5895TIP3    H117649   5.627   4.098   2.643 -0.7269 -0.8741 -2.5759
 5895TIP3    H217650   5.503   4.021   2.683 -1.2436  1.0957 -0.2023
 5896TIP3   OH217651   2.744   4.408   4.565  0.3387 -0.2320 -0.3698
 5896TIP3    H117652   2.650   4.397   4.557  0.2442  0.6052 -0.5087
 5896TIP3    H217653   2.764   4.487   4.515  0.7929  0.8993  1.4801
 5897TIP3   OH217654   6.334   1.697   3.835 -0.2206  0.3876  0.3080
 5897TIP3    H117655   6.310   1.705   3.743  0.3988  0.8911  0.1821
 5897TIP3    H217656   6.255   1.662   3.878 -1.5015  2.7960  0.0706
 5898TIP3   OH217657   3.411   5.408   3.795 -0.0075  0.1871 -0.0939
 5898TIP3    H117658   3.395   5.407   3.700 -1.9380 -0.2852  0.1858
 5898TIP3    H217659   3.379   5.494   3.823 -0.9972 -0.3071  0.3332
 5899TIP3   OH217660   4.153   5.091   4.005 -0.1198  0.2085 -0.0973
 5899TIP3    H117661   4.139   5.000   4.030 -0.7508  0.1886 -0.4945
 5899TIP3    H217662   4.066   5.130   4.008  0.2679  1.0448  0.9688
 5900TIP3   OH217663   2.736   0.892   4.075  0.5149 -0.2861  0.1198
 5900TIP3    H117664   2.728   0.890   4.170  0.0159  0.8459  0.1257
 5900TIP3    H217665   2.826   0.865   4.057  0.2099 -1.9018  0.8110
 5901TIP3   OH217666   2.622   1.046   0.092  0.0689  0.3138 -0.1477
 5901TIP3    H117667   2.613   1.052  -0.003  2.5179  2.1857 -0.3558
 5901TIP3    H217668   2.636   1.136   0.121  3.1101 -0.5506  1.4657
 5902TIP3   OH217669   6.302   0.781   1.591  0.1587  0.2509  0.0284
 5902TIP3    H117670   6.237   0.733   1.642 -0.7062  0.6866 -0.6325
 5902TIP3    H217671   6.257   0.861   1.563  1.6203  1.5668  1.2547
 5903TIP3   OH217672   5.411   3.304   2.090  0.7946 -0.1135  0.3168
 5903TIP3    H117673   5.442   3.392   2.071  1.2993 -0.6583 -1.5272
 5903TIP3    H217674   5.430   3.253   2.012 -0.5543 -1.6010  0.8784
 5904TIP3   OH217675   6.448   0.973   1.973  0.2184  0.2191 -0.1672
 5904TIP3    H117676   6.369   0.929   1.940 -1.1825  1.1787  1.6727
 5904TIP3    H217677   6.518   0.910   1.959 -0.4824  0.0048 -3.5112
 5905TIP3   OH217678   1.050   2.874   3.423 -0.0300  0.1104  0.0611
 5905TIP3    H117679   1.061   2.801   3.363  0.1380  0.4186 -0.2839
 5905TIP3    H217680   1.130   2.925   3.415  0.6133 -0.5968  1.5924
 5906TIP3   OH217681   5.951   0.692   0.860  0.1708  0.1329 -0.4094
 5906TIP3    H117682   5.979   0.617   0.806 -1.0410  1.6633 -3.4461
 5906TIP3    H217683   5.912   0.652   0.937 -0.4723 -2.4076 -1.9140
 5907TIP3   OH217684   0.160   2.139   3.306  0.0935 -0.0047  0.1466
 5907TIP3    H117685   0.185   2.199   3.235  0.0792 -1.6877 -1.3532
 5907TIP3    H217686   0.216   2.164   3.379  1.7078  0.3753 -1.1650
 5908TIP3   OH217687   4.919   6.402   3.899 -0.0871  0.5907 -0.0547
 5908TIP3    H117688   4.833   6.422   3.862 -0.7575  0.5070  1.3651
 5908TIP3    H217689   4.919   6.306   3.909  0.6390  0.4714 -1.1056
 5909TIP3   OH217690   1.963   5.666   1.536  0.3925  0.1783  0.3414
 5909TIP3    H117691   2.012   5.613   1.473  0.7931  0.3513  0.4998
 5909TIP3    H217692   1.872   5.655   1.510  0.6275  1.3392 -1.1396
 5910TIP3   OH217693   5.576   1.584   5.177  0.3758  0.3469  0.1693
 5910TIP3    H117694   5.512   1.538   5.231  1.9613 -2.7578 -0.3523
 5910TIP3    H217695   5.541   1.673   5.167 -1.9138 -0.1204  2.9433
 5911TIP3   OH217696   2.151   4.138   5.275  0.9102  0.2324  0.2646
 5911TIP3    H117697   2.149   4.233   5.284  0.8402  0.1170  1.7171
 5911TIP3    H217698   2.060   4.114   5.256  0.4999  0.3158  1.9460
 5912TIP3   OH217699   4.559   4.080   5.701 -0.5015  0.0320  0.4596
 5912TIP3    H117700   4.557   4.095   5.796  1.5972 -1.4228  0.8178
 5912TIP3    H217701   4.641   4.033   5.687 -0.5598  0.5834 -2.1601
 5913TIP3   OH217702   2.119   4.024   2.416 -0.5338 -0.0579  0.3849
 5913TIP3    H117703   2.155   4.057   2.499 -2.5825  1.1524  0.8565
 5913TIP3    H217704   2.075   4.099   2.377 -2.2002 -1.3524 -0.3231
 5914TIP3   OH217705   5.368   2.953   5.027 -0.2166 -0.1141 -0.0859
 5914TIP3    H117706   5.359   2.982   5.118 -2.6547  0.6211 -0.4900
 5914TIP3    H217707   5.303   3.003   4.979 -0.9830 -2.5044 -1.7598
 5915TIP3   OH217708   5.020   3.809   1.439 -0.1105 -0.2303  0.3355
 5915TIP3    H117709   4.964   3.879   1.474  0.3123  0.6376 -0.6433
 5915TIP3    H217710   5.091   3.856   1.394  0.9429 -1.3018  0.8219
 5916TIP3   OH217711   3.756   3.420   4.095 -0.0439  0.1460  0.6758
 5916TIP3    H117712   3.733   3.362   4.022  1.4698  0.7508 -0.3497
 5916TIP3    H217713   3.727   3.373   4.173 -3.3614  0.2658 -0.3259
 5917TIP3   OH217714   3.682   1.447   3.347  0.5705 -0.1776  0.2252
 5917TIP3    H117715   3.712   1.449   3.257  1.2854 -0.4229  0.4566
 5917TIP3    H217716   3.679   1.539   3.373  1.0289 -0.1453  0.1703
 5918TIP3   OH217717   3.646   2.787   1.886  0.0734  0.1413 -0.0285
 5918TIP3    H117718   3.698   2.799   1.966  0.0327 -1.9160  0.3473
 5918TIP3    H217719   3.576   2.852   1.894 -0.3349 -0.4676  1.9747
 5919TIP3   OH217720   0.458   1.225   4.404 -0.1626 -0.4866 -0.4012
 5919TIP3    H117721   0.551   1.226   4.424 -0.1927 -1.6441 -0.1321
 5919TIP3    H217722   0.423   1.153   4.456 -1.1196 -0.3926 -0.8945
 5920TIP3   OH217723   6.016   6.410   0.907  0.2080  0.1775  0.5231
 5920TIP3    H117724   5.959   6.414   0.830 -0.2028 -0.4403  0.7886
 5920TIP3    H217725   6.101   6.383   0.872 -0.4591 -2.0752  0.5035
 5921TIP3   OH217726   3.131   2.606   5.082 -0.7802  0.4320 -0.2327
 5921TIP3    H117727   3.069   2.663   5.035 -0.4176  0.1708 -1.0490
 5921TIP3    H217728   3.194   2.579   5.015 -1.2410 -1.3548 -0.0021
 5922TIP3   OH217729   2.953   3.706   2.534  0.8089  0.2296  0.1796
 5922TIP3    H117730   2.895   3.664   2.597 -0.1137  0.9666 -0.1526
 5922TIP3    H217731   2.910   3.696   2.450  1.3800  0.4026 -0.1426
 5923TIP3   OH217732   5.960   4.406   4.670  0.1953  0.1884  0.1911
 5923TIP3    H117733   5.889   4.383   4.730  0.1446  0.5479  0.2731
 5923TIP3    H217734   5.945   4.498   4.649 -1.4466 -0.5940 -2.6252
 5924TIP3   OH217735   6.535   1.294   0.986  0.1269  0.4710  0.2401
 5924TIP3    H117736   6.548   1.200   0.975 -0.7159  0.4317 -0.5470
 5924TIP3    H217737   6.608   1.322   1.041  1.9773 -0.1487 -1.7833
 5925TIP3   OH217738   6.828   2.287   3.901  0.5899 -0.6314  0.0588
 5925TIP3    H117739   6.895   2.220   3.903  0.5960 -0.6130  0.7765
 5925TIP3    H217740   6.876   2.369   3.885  0.9378 -0.4107  2.0370
 5926TIP3   OH217741   5.409   0.016   1.100 -0.2227 -0.2629 -0.1705
 5926TIP3    H117742   5.365   0.004   1.184  2.7121  1.4708  1.8101
 5926TIP3    H217743   5.344   0.060   1.045 -2.2275 -1.4136  1.1372
 5927TIP3   OH217744   5.834   5.646   2.909 -0.1504 -0.5039 -0.2261
 5927TIP3    H117745   5.800   5.588   2.841  1.3916 -1.8751  0.1099
 5927TIP3    H217746   5.787   5.621   2.988 -1.9160  1.0657 -0.6959
 5928TIP3   OH217747   5.295   5.749   5.614  0.0947  0.0524 -0.0723
 5928TIP3    H117748   5.285   5.681   5.681 -0.9596  1.3408  1.1518
 5928TIP3    H217749   5.292   5.702   5.531  0.1406 -1.4639  0.7480
 5929TIP3   OH217750   1.730   6.426   3.470  0.0011  0.1976  0.8951
 5929TIP3    H117751   1.811   6.379   3.490  0.1824  0.4054  0.6523
 5929TIP3    H217752   1.697   6.385   3.390  0.1508  0.4699  0.6925
 5930TIP3   OH217753   4.423   1.957   0.629 -0.1937  0.0017 -0.6730
 5930TIP3    H117754   4.492   1.967   0.695 -1.2766  0.4898  0.4307
 5930TIP3    H217755   4.420   2.041   0.584  0.0469 -0.0769 -0.8354
 5931TIP3   OH217756   3.179   1.832   5.435  0.2829 -0.6313  0.4123
 5931TIP3    H117757   3.122   1.776   5.487 -0.0532 -0.1607  0.5591
 5931TIP3    H217758   3.159   1.921   5.464  0.3241 -0.3820 -0.2815
 5932TIP3   OH217759   4.317   5.679   2.604 -0.2731 -0.1946  0.2414
 5932TIP3    H117760   4.347   5.632   2.526  0.5675  1.2957 -0.3757
 5932TIP3    H217761   4.328   5.616   2.676 -1.0922 -1.6048 -0.8247
 5933TIP3   OH217762   1.370   1.918   3.702 -0.1027  0.0985 -0.2104
 5933TIP3    H117763   1.304   1.910   3.770  1.3895 -1.9207  1.1117
 5933TIP3    H217764   1.328   1.882   3.623 -0.2376 -2.4544  0.9281
 5934TIP3   OH217765   0.115   3.220   4.552 -0.2449  0.2601  0.0260
 5934TIP3    H117766   0.162   3.181   4.626  0.1608  1.4925  0.4397
 5934TIP3    H217767   0.032   3.251   4.590  0.0433  1.0633  0.0112
 5935TIP3   OH217768   2.076   0.208   4.718  0.0592  0.1096 -0.4094
 5935TIP3    H117769   2.134   0.133   4.723  1.3495  1.0815 -0.3157
 5935TIP3    H217770   2.112   0.271   4.781 -0.9349  0.8510 -0.5436
 5936TIP3   OH217771   5.357   3.952   1.753 -0.5228 -0.3598  0.0608
 5936TIP3    H117772   5.365   3.936   1.847  3.0833 -1.8092 -0.3356
 5936TIP3    H217773   5.373   4.046   1.743  1.5063 -0.5780  0.7972
 5937TIP3   OH217774   4.753   4.584   1.888 -0.2944  0.3124 -0.1531
 5937TIP3    H117775   4.822   4.538   1.840 -0.0055  0.7444 -0.1539
 5937TIP3    H217776   4.699   4.623   1.820 -0.7813 -0.3606 -0.1657
 5938TIP3   OH217777   1.038   1.412   3.710  0.0622  0.1602 -0.1676
 5938TIP3    H117778   1.034   1.387   3.802  0.5010  0.1222 -0.1596
 5938TIP3    H217779   0.991   1.341   3.664  0.0195  0.0777  0.0032
 5939TIP3   OH217780   3.602   5.744   3.007 -0.1906  0.7447 -0.3119
 5939TIP3    H117781   3.628   5.691   2.932  0.2107  1.5913 -0.7937
 5939TIP3    H217782   3.526   5.794   2.976  0.2721  1.4543 -0.3315
 5940TIP3   OH217783   2.313   1.800   3.592  0.1628 -0.0243  0.7477
 5940TIP3    H117784   2.354   1.716   3.611  1.7999  0.9350  1.7358
 5940TIP3    H217785   2.382   1.852   3.552 -0.9429  0.7342 -0.2511
 5941TIP3   OH217786   5.077   0.726   1.289 -0.1804 -0.1276  0.1366
 5941TIP3    H117787   4.989   0.697   1.312 -1.0311  0.4120 -2.1502
 5941TIP3    H217788   5.078   0.820   1.308 -0.5069  0.0940 -0.8900
 5942TIP3   OH217789   2.142   1.455   4.004 -0.2957  0.5005  0.0306
 5942TIP3    H117790   2.068   1.497   4.049 -0.9388 -1.7076  1.2116
 5942TIP3    H217791   2.219   1.485   4.052 -0.6048  1.2749  0.0566
 5943TIP3   OH217792   2.166   6.365   2.293 -0.4316 -0.1088  0.0933
 5943TIP3    H117793   2.229   6.430   2.325  0.6342  0.8006 -3.3417
 5943TIP3    H217794   2.116   6.412   2.226 -2.9135 -1.6250  0.7322
 5944TIP3   OH217795   3.036   2.272   4.838 -0.5957  0.0970  0.2471
 5944TIP3    H117796   3.009   2.195   4.788  0.4071 -0.5740  0.7128
 5944TIP3    H217797   2.960   2.292   4.893 -0.8551 -0.5729  0.1461
 5945TIP3   OH217798   2.268   0.409   1.686 -0.4353  0.0504  0.0966
 5945TIP3    H117799   2.285   0.327   1.732  0.2072  0.2286  0.1863
 5945TIP3    H217800   2.329   0.471   1.725 -1.0015  0.6008  0.1092
 5946TIP3   OH217801   2.926   5.128   4.696  0.2351  0.5687 -0.0401
 5946TIP3    H117802   2.900   5.207   4.744  0.3540  0.4526  0.2180
 5946TIP3    H217803   3.022   5.136   4.689  0.3395  0.0314  0.7234
 5947TIP3   OH217804   4.493   3.705   4.243  0.0217  0.2188 -0.4241
 5947TIP3    H117805   4.435   3.757   4.298  0.9646  1.4301 -0.5222
 5947TIP3    H217806   4.579   3.711   4.285  0.3013 -0.6676 -0.8340
 5948TIP3   OH217807   4.772   0.870   5.571 -0.1617 -0.2145 -0.2942
 5948TIP3    H117808   4.756   0.789   5.523 -2.1883 -0.7884  1.2027
 5948TIP3    H217809   4.685   0.905   5.589  0.6201  1.4487  0.4870
 5949TIP3   OH217810   2.190   5.254   4.759 -0.9893  0.3290 -0.3331
 5949TIP3    H117811   2.164   5.346   4.750 -1.6735  0.1315 -0.4281
 5949TIP3    H217812   2.176   5.234   4.851 -0.9642  0.2791 -0.3406
 5950TIP3   OH217813   2.012   0.859   4.800  0.3080 -0.2029 -0.1964
 5950TIP3    H117814   2.080   0.864   4.733  0.2724  1.2905 -0.1374
 5950TIP3    H217815   2.053   0.892   4.879  0.2782 -1.7479  0.5007
 5951TIP3   OH217816   3.752   0.948   2.238  0.0289 -0.2387  0.2934
 5951TIP3    H117817   3.730   0.942   2.145  0.7012 -0.4019  0.1418
 5951TIP3    H217818   3.835   0.994   2.241  0.7287 -1.4819  0.7148
 5952TIP3   OH217819   1.062   5.155   5.037  0.3631  0.6571 -0.4737
 5952TIP3    H117820   1.144   5.150   4.988  1.6185 -0.0636  1.5692
 5952TIP3    H217821   1.089   5.166   5.128 -1.8597  1.7698  0.1341
 5953TIP3   OH217822   6.931   5.641   3.646  0.8205  0.1526 -0.3272
 5953TIP3    H117823   7.020   5.674   3.655  0.6792  0.9531 -1.6441
 5953TIP3    H217824   6.924   5.616   3.554 -1.1243  2.6154 -0.9278
 5954TIP3   OH217825   0.143   1.415   1.196  0.0862  0.4518  0.1035
 5954TIP3    H117826   0.215   1.363   1.230 -0.3263  1.1880  2.2564
 5954TIP3    H217827   0.161   1.504   1.227  0.1594  1.4117 -2.4731
 5955TIP3   OH217828   4.218   5.475   3.592  0.0207  0.2479 -0.3800
 5955TIP3    H117829   4.209   5.414   3.518  1.9983 -0.1242 -0.3911
 5955TIP3    H217830   4.312   5.495   3.594  0.0573  0.1556  2.1079
 5956TIP3   OH217831   4.284   1.829   5.612 -0.3431 -0.2179  0.2088
 5956TIP3    H117832   4.349   1.802   5.676 -0.4530  0.0522  0.4368
 5956TIP3    H217833   4.281   1.757   5.548 -0.4858 -0.6448  0.6909
 5957TIP3   OH217834   1.994   2.036   4.548  0.1594 -0.6279 -0.3796
 5957TIP3    H117835   2.079   2.041   4.593 -0.3599 -0.6430  0.6185
 5957TIP3    H217836   1.966   1.945   4.563  0.4776 -0.9615 -1.6795
 5958TIP3   OH217837   6.855   2.258   1.338  0.1293 -0.6759 -0.0329
 5958TIP3    H117838   6.924   2.194   1.320 -0.1691 -0.7685 -0.8996
 5958TIP3    H217839   6.778   2.225   1.292 -0.3056 -0.2124  0.3428
 5959TIP3   OH217840   0.839   4.865   0.155 -0.1662  0.2809 -0.2764
 5959TIP3    H117841   0.831   4.915   0.073 -0.8696  0.1703 -0.2847
 5959TIP3    H217842   0.818   4.775   0.130 -2.2748  0.5431  0.3434
 5960TIP3   OH217843   0.818   0.968   1.047  0.2146  0.0993 -0.3002
 5960TIP3    H117844   0.743   0.917   1.016 -0.0265  0.0308  0.3952
 5960TIP3    H217845   0.846   1.018   0.970  0.3857 -0.9851 -0.9634
 5961TIP3   OH217846   6.571   3.111   3.820 -0.0517  0.1805  0.6697
 5961TIP3    H117847   6.613   3.102   3.734  0.4728 -0.6725  0.9974
 5961TIP3    H217848   6.611   3.189   3.858  2.8796 -1.6992  1.8093
 5962TIP3   OH217849   6.059   1.899   5.550  0.0951  0.2032  0.4133
 5962TIP3    H117850   6.067   1.812   5.510 -1.3423  0.5298 -0.6783
 5962TIP3    H217851   6.114   1.894   5.628  1.8362 -0.9337 -0.8056
 5963TIP3   OH217852   3.003   4.186   0.045  0.2423  0.0540 -0.4447
 5963TIP3    H117853   2.913   4.212   0.064  0.2322 -0.4157  0.2047
 5963TIP3    H217854   3.055   4.232   0.111  0.3212 -0.7915  0.1048
 5964TIP3   OH217855   2.310   3.958   0.256  0.2283 -0.4364 -0.2201
 5964TIP3    H117856   2.352   4.022   0.199 -1.5727 -0.1915 -1.3712
 5964TIP3    H217857   2.227   4.000   0.281  0.3474 -1.1253  1.4642
 5965TIP3   OH217858   3.090   3.919   1.545  0.1087 -0.3527  0.1112
 5965TIP3    H117859   3.025   3.979   1.583  0.8299 -1.1676  2.8369
 5965TIP3    H217860   3.135   3.972   1.479 -1.4844  1.0655  0.0874
 5966TIP3   OH217861   4.359   2.653   4.842 -0.1694 -0.0342  0.3985
 5966TIP3    H117862   4.372   2.566   4.880  0.2303 -0.5517 -0.8739
 5966TIP3    H217863   4.415   2.654   4.765 -1.1746  0.8614 -0.3534
 5967TIP3   OH217864   4.497   1.212   4.694 -0.0918  0.1489  0.4005
 5967TIP3    H117865   4.406   1.227   4.718  0.0193  1.3279  0.1571
 5967TIP3    H217866   4.545   1.221   4.776 -0.2132 -0.7481  0.5779
 5968TIP3   OH217867   3.250   3.511   3.766 -0.0853  0.2582  0.2937
 5968TIP3    H117868   3.260   3.512   3.671  0.1411  1.0311  0.3145
 5968TIP3    H217869   3.337   3.489   3.799 -0.2617 -0.4185  0.3169
 5969TIP3   OH217870   5.373   0.428   1.782  0.4900 -0.6574  0.1170
 5969TIP3    H117871   5.462   0.464   1.789  0.5709 -0.7261 -0.4765
 5969TIP3    H217872   5.316   0.502   1.804  0.6617 -0.2035 -0.8840
 5970TIP3   OH217873   4.151   1.120   0.947 -0.2457  0.0250  0.0807
 5970TIP3    H117874   4.172   1.045   1.001  0.0874  0.1715  0.1581
 5970TIP3    H217875   4.212   1.188   0.975 -0.1490  0.1376 -0.3951
 5971TIP3   OH217876   6.052   5.102   2.636  0.7480  0.3016 -0.4400
 5971TIP3    H117877   5.986   5.082   2.702 -0.5497  2.0135 -1.1726
 5971TIP3    H217878   6.102   5.175   2.672 -0.2865  1.5802 -1.5180
 5972TIP3   OH217879   6.004   3.877   1.613 -0.5178 -1.2638 -0.2896
 5972TIP3    H117880   5.996   3.874   1.708  0.5501  0.3135 -0.1066
 5972TIP3    H217881   5.948   3.950   1.587  0.8417 -0.3050 -0.6152
 5973TIP3   OH217882   6.323   6.416   0.793  0.0773  0.3396  0.1295
 5973TIP3    H117883   6.401   6.465   0.769 -0.4900  0.6990 -1.0831
 5973TIP3    H217884   6.337   6.391   0.884  1.0005  1.5537  0.3484
 5974TIP3   OH217885   0.936   4.063   3.363  0.2030 -0.3866 -0.2567
 5974TIP3    H117886   1.019   4.102   3.391  0.2101  0.2228 -1.0844
 5974TIP3    H217887   0.869   4.124   3.393  0.1628 -0.1117 -0.8854
 5975TIP3   OH217888   4.263   3.979   5.260  0.1762  0.1306  0.4819
 5975TIP3    H117889   4.332   3.954   5.198  0.1302  1.3234 -0.0612
 5975TIP3    H217890   4.293   3.943   5.344  1.3575  0.4462  0.2185
 5976TIP3   OH217891   5.256   6.631   3.632  0.4305  1.0793  0.9614
 5976TIP3    H117892   5.217   6.691   3.695 -1.1196  1.7004 -0.5043
 5976TIP3    H217893   5.185   6.571   3.608  0.5814  1.6451 -1.0882
 5977TIP3   OH217894   4.456   2.701   0.257 -0.6464 -0.5312 -0.2613
 5977TIP3    H117895   4.424   2.702   0.347  0.0710 -0.2516 -0.0059
 5977TIP3    H217896   4.442   2.791   0.226  0.4525 -0.2294  0.0637
 5978TIP3   OH217897   6.693   6.796   1.824 -0.2902 -0.0377  1.0309
 5978TIP3    H117898   6.682   6.763   1.913 -0.5069 -0.2161  0.9386
 5978TIP3    H217899   6.613   6.771   1.779 -0.2761  0.2493  0.8448
 5979TIP3   OH217900   6.565   5.280   3.572  0.4548 -0.3052 -0.0851
 5979TIP3    H117901   6.646   5.301   3.618  0.6231 -0.8795 -0.1051
 5979TIP3    H217902   6.512   5.359   3.578  1.4785  0.4966 -1.0986
 5980TIP3   OH217903   0.338   6.153   4.054  0.6100 -0.0175  0.2605
 5980TIP3    H117904   0.256   6.174   4.099  1.5217  0.4615  1.7544
 5980TIP3    H217905   0.313   6.086   3.990 -1.2584  1.3602 -0.5421
 5981TIP3   OH217906   2.595   5.362   4.485 -0.0000  0.3108  0.7473
 5981TIP3    H117907   2.544   5.330   4.410  2.3547 -1.3161 -0.2685
 5981TIP3    H217908   2.537   5.348   4.560 -1.1643 -1.2734 -0.3689
 5982TIP3   OH217909   7.086   5.920   5.064 -0.2050  0.1605  0.0140
 5982TIP3    H117910   7.115   5.831   5.082  0.0885 -0.2450 -2.1919
 5982TIP3    H217911   7.119   5.971   5.137  1.9428 -1.1122  0.0292
 5983TIP3   OH217912   1.186   6.556   1.200 -0.3535 -0.0528 -0.4603
 5983TIP3    H117913   1.163   6.505   1.122 -1.5190  0.5358 -0.5256
 5983TIP3    H217914   1.136   6.637   1.190  1.3974  1.0850 -0.3266
 5984TIP3   OH217915   0.656   1.643   0.977 -0.0446  0.1546 -0.0152
 5984TIP3    H117916   0.670   1.722   1.029 -0.6217 -0.9513  1.9072
 5984TIP3    H217917   0.561   1.635   0.971  0.0159 -0.2927 -0.3857
 5985TIP3   OH217918   3.907   6.258   4.794 -0.3561  0.0797 -0.0399
 5985TIP3    H117919   3.952   6.321   4.738 -0.8011 -0.4569 -1.0113
 5985TIP3    H217920   3.866   6.196   4.734 -1.2898 -0.2059  0.8544
 5986TIP3   OH217921   4.768   2.237   1.823 -0.2691  0.3969 -0.4453
 5986TIP3    H117922   4.772   2.143   1.840  2.1908  0.5900  0.4009
 5986TIP3    H217923   4.833   2.252   1.755 -1.2771  1.3927 -1.2249
 5987TIP3   OH217924   4.440   1.346   5.758 -0.0854 -0.2120 -0.0808
 5987TIP3    H117925   4.468   1.295   5.682  0.7308 -0.7643  0.5837
 5987TIP3    H217926   4.423   1.281   5.826  0.8412  0.3836  0.7387
 5988TIP3   OH217927   1.454   2.407   3.368 -0.1482  0.1954  0.4870
 5988TIP3    H117928   1.519   2.437   3.431  3.9192 -3.0851 -1.6651
 5988TIP3    H217929   1.439   2.315   3.389  0.0483 -0.5382 -2.1505
 5989TIP3   OH217930   5.575   3.313   3.028  0.9748 -0.1974  0.1287
 5989TIP3    H117931   5.543   3.275   3.110  0.2434 -0.2564 -0.1785
 5989TIP3    H217932   5.671   3.310   3.036  0.9127 -0.3208  0.9213
 5990TIP3   OH217933   4.160   1.796   5.901 -0.1837 -0.4991 -0.2251
 5990TIP3    H117934   4.085   1.809   5.843 -0.7496 -0.8909  0.3975
 5990TIP3    H217935   4.221   1.867   5.879 -1.9821  1.6388  1.2159
 5991TIP3   OH217936   5.495   1.820   1.572 -0.5401 -0.3535 -0.0789
 5991TIP3    H117937   5.556   1.837   1.501 -2.3953  0.5682 -1.5530
 5991TIP3    H217938   5.430   1.761   1.534 -1.7626  0.4321  0.7246
 5992TIP3   OH217939   4.676   5.242   0.135 -0.0815  0.2192  0.1902
 5992TIP3    H117940   4.623   5.286   0.069 -1.0698  1.0342  1.4735
 5992TIP3    H217941   4.762   5.284   0.129 -0.8076  1.8951  0.9033
 5993TIP3   OH217942   1.912   1.790   4.686 -0.0992  0.3996  0.1460
 5993TIP3    H117943   1.925   1.714   4.743 -0.3757  0.2531  0.0137
 5993TIP3    H217944   1.839   1.837   4.726 -1.1910 -0.4159 -0.8236
 5994TIP3   OH217945   2.453   0.642   0.937 -0.4904 -0.2887  0.2045
 5994TIP3    H117946   2.370   0.639   0.983 -0.1513  0.3645  0.8874
 5994TIP3    H217947   2.519   0.628   1.005 -0.0663 -2.0531 -0.5151
 5995TIP3   OH217948   3.167   4.930   2.797  0.0008  0.1988  0.0849
 5995TIP3    H117949   3.253   4.901   2.828  0.5983  0.0938 -1.5497
 5995TIP3    H217950   3.186   4.982   2.719 -1.4500 -0.0597 -0.4771
 5996TIP3   OH217951   1.037   4.514   1.963  0.0385 -0.0879 -0.0112
 5996TIP3    H117952   1.121   4.555   1.984 -0.6279  0.6644  1.3068
 5996TIP3    H217953   0.975   4.587   1.961 -0.4118 -0.4568 -2.2419
 5997TIP3   OH217954   5.846   5.557   0.501 -0.3166 -0.1202  0.5281
 5997TIP3    H117955   5.882   5.611   0.431 -0.9219  0.9655  1.0297
 5997TIP3    H217956   5.895   5.476   0.496  0.5967  0.4594 -0.2713
 5998TIP3   OH217957   1.553   4.038   1.548  0.4369  0.2326  0.1917
 5998TIP3    H117958   1.459   4.047   1.534  0.3655 -1.7229 -0.9072
 5998TIP3    H217959   1.562   4.022   1.642 -0.3517  0.0584  0.2381
 5999TIP3   OH217960   2.910   1.344   4.544  0.1370 -0.3578  0.3681
 5999TIP3    H117961   3.003   1.324   4.541  0.3176  0.4664  0.2877
 5999TIP3    H217962   2.883   1.324   4.634  0.8460  1.3211  0.9892
 6000TIP3   OH217963   2.779   2.985   1.407 -0.1122 -0.1512 -0.2809
 6000TIP3    H117964   2.822   2.981   1.322  0.7436  1.5949  0.0056
 6000TIP3    H217965   2.792   3.076   1.435 -1.8592 -0.2459  0.9533
 6001TIP3   OH217966   2.054   6.224   0.225  0.1614 -0.0490 -0.1949
 6001TIP3    H117967   2.149   6.207   0.225  0.2729  0.5727  0.0027
 6001TIP3    H217968   2.023   6.182   0.306  0.7213  2.1763  1.2588
 6002TIP3   OH217969   5.147   3.154   4.938 -0.1394 -0.0898 -0.2700
 6002TIP3    H117970   5.183   3.230   4.983 -1.5525 -1.1386  2.8840
 6002TIP3    H217971   5.053   3.166   4.940 -0.3590 -1.5258 -0.4394
 6003TIP3   OH217972   1.741   0.381   2.737  0.3715  0.5202  0.1589
 6003TIP3    H117973   1.825   0.337   2.727  1.4555  2.2315  1.2176
 6003TIP3    H217974   1.701   0.339   2.813  0.3724 -0.1095 -0.1807
 6004TIP3   OH217975   4.151   4.583   1.614  0.0010  0.1046 -0.4693
 6004TIP3    H117976   4.149   4.533   1.695 -0.6191 -0.0078 -0.5575
 6004TIP3    H217977   4.060   4.588   1.585 -0.0671  1.8393 -0.1108
 6005TIP3   OH217978   4.132   6.311   5.244 -0.5438 -0.1027 -0.0769
 6005TIP3    H117979   4.065   6.268   5.191  1.4122 -2.5949 -0.6919
 6005TIP3    H217980   4.110   6.286   5.334 -1.0646  0.0584 -0.1527
 6006TIP3   OH217981   4.042   5.843   5.363  0.1679 -0.5942  0.1183
 6006TIP3    H117982   4.123   5.885   5.333 -1.1209  0.7532 -1.7585
 6006TIP3    H217983   4.024   5.883   5.448  2.1610 -1.9825  1.2806
 6007TIP3   OH217984   1.088   0.093   3.280 -0.3718 -0.1624  0.5402
 6007TIP3    H117985   1.160   0.156   3.277 -1.5066  1.1740  0.4252
 6007TIP3    H217986   1.093   0.056   3.369 -0.3992  0.9733  1.0349
 6008TIP3   OH217987   3.134   5.259   4.439 -0.1897 -0.5142  0.1723
 6008TIP3    H117988   3.126   5.338   4.492  2.8276  0.9984 -1.3346
 6008TIP3    H217989   3.162   5.192   4.501  1.6226  0.7914  0.8610
 6009TIP3   OH217990   6.174   1.782   1.156 -0.1810  0.2535 -0.8577
 6009TIP3    H117991   6.175   1.712   1.221  0.1019  0.0853 -1.0392
 6009TIP3    H217992   6.096   1.764   1.103 -1.2402  1.2288  0.3250
 6010TIP3   OH217993   2.422   6.592   0.765  0.1243 -0.4060  0.1399
 6010TIP3    H117994   2.475   6.518   0.794  0.9242  0.7324  1.7211
 6010TIP3    H217995   2.376   6.621   0.843 -0.3225  0.6507 -0.4909
 6011TIP3   OH217996   3.314   6.414   2.213  0.0164  0.1223 -0.3403
 6011TIP3    H117997   3.380   6.457   2.159 -1.0409  0.7910 -1.1257
 6011TIP3    H217998   3.249   6.482   2.231 -0.7920 -0.6844 -0.1326
 6012TIP3   OH217999   3.967   1.241   4.792 -0.0940 -0.1981  0.0744
 6012TIP3    H118000   3.968   1.337   4.788  0.6357 -0.1328  1.3757
 6012TIP3    H218001   3.982   1.213   4.702 -2.3699  0.8718 -0.7171
 6013TIP3   OH218002   3.528   1.142   4.175  0.2159  0.0160  0.0756
 6013TIP3    H118003   3.464   1.123   4.243 -1.2504 -1.6340 -1.6474
 6013TIP3    H218004   3.514   1.234   4.154 -3.4104 -0.8102 -1.8817
 6014TIP3   OH218005   1.702   5.222   2.271 -0.4537  0.5519  0.1643
 6014TIP3    H118006   1.737   5.305   2.302 -0.0459  0.2179  0.6304
 6014TIP3    H218007   1.780   5.169   2.252 -0.7011  0.6103 -1.0811
 6015TIP3   OH218008   3.128   6.014   1.355  0.2136 -0.1398  0.2342
 6015TIP3    H118009   3.103   5.950   1.422  1.1268 -0.6042  0.1511
 6015TIP3    H218010   3.173   5.962   1.288  1.2082  0.6170  0.2895
 6016TIP3   OH218011   2.227   4.703   3.159  0.4560 -0.2188 -0.1238
 6016TIP3    H118012   2.151   4.691   3.215  0.8554  0.4286  0.5670
 6016TIP3    H218013   2.236   4.798   3.150 -1.0543 -0.2205 -3.2931
 6017TIP3   OH218014   2.060   3.641   0.771  0.3284 -0.1631  0.2493
 6017TIP3    H118015   2.027   3.721   0.811  2.8831  1.0315  0.1677
 6017TIP3    H218016   2.111   3.599   0.840  0.2987 -0.9014 -0.1709
 6018TIP3   OH218017   4.195   6.539   0.947  0.5264 -0.4994 -0.1798
 6018TIP3    H118018   4.208   6.543   0.852  1.1951 -1.2261 -0.1320
 6018TIP3    H218019   4.209   6.629   0.976 -2.3482  0.3211 -1.0554
 6019TIP3   OH218020   4.678   2.450   1.030  0.3081  0.3943 -0.3245
 6019TIP3    H118021   4.755   2.411   1.071 -0.9178 -0.7807  0.9657
 6019TIP3    H218022   4.707   2.473   0.942  1.8131 -1.1349 -0.2777
 6020TIP3   OH218023   6.207   5.772   4.537 -0.1248  0.2027  0.0372
 6020TIP3    H118024   6.202   5.753   4.631  0.3117  3.3403  0.8056
 6020TIP3    H218025   6.119   5.798   4.512 -0.3284 -0.9827 -0.5700
 6021TIP3   OH218026   1.592   6.250   0.192 -0.5184  0.4493 -0.1757
 6021TIP3    H118027   1.602   6.163   0.229 -0.8921  0.2790 -0.4617
 6021TIP3    H218028   1.656   6.253   0.120 -0.6288  0.3425 -0.2799
 6022TIP3   OH218029   2.512   6.396   2.456  0.4348  0.2501 -0.2209
 6022TIP3    H118030   2.465   6.470   2.416  0.4217  0.2656 -0.1766
 6022TIP3    H218031   2.584   6.379   2.395  0.4480  0.3107 -0.2227
 6023TIP3   OH218032   5.566   4.831   1.413 -0.5613  0.0993 -1.1937
 6023TIP3    H118033   5.543   4.907   1.465 -1.2732  0.0532 -1.4268
 6023TIP3    H218034   5.483   4.788   1.395 -0.4997  0.7543 -3.3482
 6024TIP3   OH218035   3.794   1.612   2.239 -0.3392  0.0951  0.2734
 6024TIP3    H118036   3.875   1.661   2.255 -0.8804  1.1436 -0.1306
 6024TIP3    H218037   3.802   1.534   2.295  0.6088  0.5614  0.8149
 6025TIP3   OH218038   4.620   0.982   4.539 -0.2735  0.5354 -0.3245
 6025TIP3    H118039   4.575   1.061   4.569 -1.0516  0.4736 -1.2543
 6025TIP3    H218040   4.648   0.938   4.619  0.7296  2.0456  0.1977
 6026TIP3   OH218041   2.545   4.288   4.314  0.0885  0.0859 -0.8034
 6026TIP3    H118042   2.626   4.254   4.275 -0.4333 -1.4018 -0.6531
 6026TIP3    H218043   2.480   4.220   4.296 -0.3273 -0.3798  2.0534
 6027TIP3   OH218044   2.888   5.759   4.202 -0.1144  0.7201  0.2401
 6027TIP3    H118045   2.860   5.837   4.251 -1.7673  0.0678  0.3918
 6027TIP3    H218046   2.889   5.689   4.268  0.5805  0.4394 -0.0608
 6028TIP3   OH218047   1.173   6.545   4.104  0.0080  0.2066 -0.4059
 6028TIP3    H118048   1.131   6.482   4.164  0.5735  0.1367 -0.0725
 6028TIP3    H218049   1.153   6.512   4.017 -1.3443  0.6446 -0.2814
 6029TIP3   OH218050   5.162   6.526   1.041 -0.1286 -0.1303 -0.2943
 6029TIP3    H118051   5.113   6.530   1.123 -0.4423 -0.9743 -0.4366
 6029TIP3    H218052   5.104   6.568   0.976  0.6788  1.8125  0.1505
 6030TIP3   OH218053   5.753   6.329   1.390  0.5805  0.1860  0.1161
 6030TIP3    H118054   5.787   6.341   1.301 -1.0282 -0.5561 -0.6289
 6030TIP3    H218055   5.689   6.258   1.383 -0.6622  1.0955  1.5769
 6031TIP3   OH218056   1.999   3.474   4.948  0.6173  0.2066  0.1265
 6031TIP3    H118057   2.018   3.549   4.892 -0.3963 -0.4100 -1.0758
 6031TIP3    H218058   1.968   3.406   4.888 -0.9364 -0.3349  1.4726
 6032TIP3   OH218059   3.107   3.227   2.616 -0.4254  0.6789 -0.1084
 6032TIP3    H118060   3.157   3.150   2.645  0.7480  0.9288 -1.3418
 6032TIP3    H218061   3.018   3.194   2.604 -0.1200 -0.3071  0.1712
 6033TIP3   OH218062   4.196   6.394   3.881  0.6189  0.0647 -0.3820
 6033TIP3    H118063   4.284   6.432   3.879  0.2412  0.9476 -0.5709
 6033TIP3    H218064   4.150   6.442   3.949  0.0225  0.2111 -0.8727
 6034TIP3   OH218065   3.437   2.897   5.424 -0.1333  0.0079 -0.1369
 6034TIP3    H118066   3.390   2.876   5.344  0.7142  0.1742 -0.6854
 6034TIP3    H218067   3.429   2.992   5.433 -0.0424  0.0160 -0.1421
 6035TIP3   OH218068   4.586   3.685   0.058 -0.0233  0.0308  0.6789
 6035TIP3    H118069   4.617   3.595   0.074  0.5123 -0.0676 -0.7616
 6035TIP3    H218070   4.663   3.731   0.024 -0.6826  0.6213 -0.0451
 6036TIP3   OH218071   1.305   6.356   2.933 -0.0627  0.2938  0.2093
 6036TIP3    H118072   1.400   6.351   2.929 -0.1056  0.1799 -2.6848
 6036TIP3    H218073   1.283   6.437   2.886 -1.4294 -0.1099  0.1104
 6037TIP3   OH218074   6.060   2.554   0.422 -0.1239 -0.0982  0.4182
 6037TIP3    H118075   6.001   2.479   0.416 -1.1954  0.8239 -1.2150
 6037TIP3    H218076   6.137   2.529   0.372 -0.0860 -0.4317  0.6382
 6038TIP3   OH218077   1.098   0.474   3.392  0.1468  0.7738 -0.5917
 6038TIP3    H118078   1.090   0.434   3.479  0.5831  0.7689 -0.5537
 6038TIP3    H218079   1.170   0.427   3.350 -0.2602  0.5775 -1.0681
 6039TIP3   OH218080   6.971   6.545   4.772 -0.6766 -0.4245  0.1257
 6039TIP3    H118081   7.009   6.469   4.727  0.2307 -0.0653  0.2680
 6039TIP3    H218082   6.953   6.608   4.702 -0.9435 -0.5642  0.0674
 6040TIP3   OH218083   5.943   1.642   0.812  0.0294  0.0352  0.3872
 6040TIP3    H118084   5.877   1.616   0.748  1.8429 -2.3522 -0.6866
 6040TIP3    H218085   5.948   1.568   0.873  1.4038  0.3565  0.6940
 6041TIP3   OH218086   5.603   0.033   2.566  0.1927  0.0460 -0.0186
 6041TIP3    H118087   5.576   0.111   2.517  2.1234  0.5896 -0.2910
 6041TIP3    H218088   5.521  -0.007   2.594 -0.8671  1.9226 -0.2668
 6042TIP3   OH218089   2.444   3.679   3.781 -0.2125  0.2531  0.8924
 6042TIP3    H118090   2.478   3.765   3.756 -1.1377  0.6978  1.1396
 6042TIP3    H218091   2.424   3.687   3.874  0.6956 -0.5694  1.1751
 6043TIP3   OH218092   6.197   6.310   5.038 -0.1412 -0.1987  0.1970
 6043TIP3    H118093   6.110   6.296   5.001  0.2437 -0.1327 -0.7772
 6043TIP3    H218094   6.241   6.367   4.974  1.0441 -1.2808 -0.0095
 6044TIP3   OH218095   6.746   2.039   1.215  0.2111  0.0543 -0.1304
 6044TIP3    H118096   6.799   1.973   1.170 -0.2453  0.3292 -1.1121
 6044TIP3    H218097   6.702   1.990   1.285 -1.0246 -0.9780 -1.5607
 6045TIP3   OH218098   0.105   0.795   2.725  0.2176  1.1103 -0.7544
 6045TIP3    H118099   0.075   0.879   2.760 -1.2748  1.0087 -1.6991
 6045TIP3    H218100   0.041   0.732   2.756  0.3478  0.6005 -1.5066
 6046TIP3   OH218101   1.248   6.626   2.881  0.7230 -0.6579  0.1429
 6046TIP3    H118102   1.153   6.643   2.882  0.6103 -1.1849 -0.6815
 6046TIP3    H218103   1.286   6.703   2.839  1.0346  1.0952  3.3206
 6047TIP3   OH218104   3.839   2.769   4.016 -0.2339 -0.2772 -0.2602
 6047TIP3    H118105   3.881   2.855   4.012 -0.3009 -0.1971  0.7019
 6047TIP3    H218106   3.840   2.745   4.108 -4.6282  0.9045  0.3368
 6048TIP3   OH218107   1.814   0.849   2.408  0.0450  0.0933  0.3832
 6048TIP3    H118108   1.849   0.909   2.474 -1.0201  0.9742  0.1876
 6048TIP3    H218109   1.785   0.772   2.457 -5.1848  2.5376  1.8889
 6049TIP3   OH218110   2.801   0.004   2.651 -1.0244 -0.0069  0.3953
 6049TIP3    H118111   2.775   0.088   2.690 -2.3697 -0.4167  0.4019
 6049TIP3    H218112   2.846  -0.042   2.722 -0.5498  0.5772  0.4835
 6050TIP3   OH218113   2.063   1.229   1.083  0.4950 -0.0735  0.3586
 6050TIP3    H118114   2.040   1.248   0.992  0.5649 -1.7936 -0.0544
 6050TIP3    H218115   1.982   1.195   1.121 -0.0046  2.1859  1.4547
 6051TIP3   OH218116   0.462   0.199   3.405 -0.1303  0.2005 -0.1645
 6051TIP3    H118117   0.380   0.151   3.400  0.6586 -1.3488  0.8686
 6051TIP3    H218118   0.529   0.132   3.418  1.5657  1.2261 -2.6230
 6052TIP3   OH218119   1.365   2.891   0.068  0.1763 -0.3735 -0.2683
 6052TIP3    H118120   1.348   2.960   0.131 -0.0639 -2.2926  1.9208
 6052TIP3    H218121   1.283   2.883   0.019 -0.6765 -0.7057  1.1437
 6053TIP3   OH218122   2.492   2.406   1.406  0.3723 -0.4711 -0.4373
 6053TIP3    H118123   2.548   2.425   1.331  1.1323  0.0546  0.2450
 6053TIP3    H218124   2.551   2.408   1.481 -0.2780 -1.5191  0.1253
 6054TIP3   OH218125   6.360   5.962   3.252  0.2322  0.0901  0.1588
 6054TIP3    H118126   6.281   5.952   3.305  2.4230 -1.9766  3.4297
 6054TIP3    H218127   6.353   5.893   3.186 -1.0736  0.5354 -0.1922
 6055TIP3   OH218128   6.622   5.432   2.891  0.2398 -0.0875 -0.1493
 6055TIP3    H118129   6.681   5.507   2.897 -2.4859  2.0824  2.9823
 6055TIP3    H218130   6.673   5.359   2.926  1.3833  1.4873  1.6528
 6056TIP3   OH218131   0.469   5.519   5.074 -0.4101 -0.1300  0.1584
 6056TIP3    H118132   0.470   5.605   5.115 -0.5234  0.5128 -1.1376
 6056TIP3    H218133   0.379   5.508   5.042 -0.3087 -0.5786  0.0141
 6057TIP3   OH218134   3.582   4.011   1.293  0.2424 -0.1930 -0.0294
 6057TIP3    H118135   3.668   4.027   1.333  0.6230  0.5502 -1.0855
 6057TIP3    H218136   3.552   4.099   1.268 -2.4859  0.0921  3.5123
 6058TIP3   OH218137   0.313   2.812   0.157 -0.1374 -0.0353  0.3826
 6058TIP3    H118138   0.252   2.847   0.092 -2.6473  0.1421  2.6920
 6058TIP3    H218139   0.311   2.717   0.143 -1.1167 -0.0483  0.5424
 6059TIP3   OH218140   0.180   6.221   0.298  0.1514 -0.3068 -0.2595
 6059TIP3    H118141   0.127   6.272   0.237  0.5030  0.5518  0.1410
 6059TIP3    H218142   0.120   6.196   0.368  0.2553  0.6649  0.1946
 6060TIP3   OH218143   2.679   0.985   2.416  0.0087 -0.4132 -0.4073
 6060TIP3    H118144   2.740   1.057   2.424 -0.4020 -0.1487  0.4633
 6060TIP3    H218145   2.670   0.951   2.505  1.9632 -3.0392 -1.0912
 6061TIP3   OH218146   2.601   0.054   3.877 -0.4908  0.1815  0.2250
 6061TIP3    H118147   2.617   0.140   3.916 -0.1856  1.2155 -2.0351
 6061TIP3    H218148   2.506   0.051   3.864 -0.3445  0.9096 -1.1876
 6062TIP3   OH218149   3.416   4.996   2.634  0.0385 -0.0654 -0.0421
 6062TIP3    H118150   3.508   4.981   2.612  0.2817  1.4887 -0.1785
 6062TIP3    H218151   3.403   4.946   2.715  1.4782  0.9598  0.8899
 6063TIP3   OH218152   3.944   5.833   4.630  0.0837 -0.0725 -0.6854
 6063TIP3    H118153   3.960   5.745   4.596  0.7176 -0.3327  0.2459
 6063TIP3    H218154   4.028   5.878   4.619 -0.0222  0.1788 -0.4554
 6064TIP3   OH218155   3.322   1.696   2.468 -0.5093 -0.0002  0.0408
 6064TIP3    H118156   3.411   1.690   2.432  0.1396  0.4179  1.5051
 6064TIP3    H218157   3.265   1.692   2.391  0.8492  1.9071 -1.1466
 6065TIP3   OH218158   3.769   4.971   1.258  0.1871  0.9350  0.2777
 6065TIP3    H118159   3.844   4.925   1.297  0.1078  0.9929  0.5046
 6065TIP3    H218160   3.732   5.021   1.331 -0.0725  0.9058  0.1656
 6066TIP3   OH218161   3.565   6.545   2.222  0.6311 -0.2535 -0.0708
 6066TIP3    H118162   3.622   6.533   2.298  0.1915 -0.5173  0.2207
 6066TIP3    H218163   3.542   6.638   2.223  0.9281 -0.1784 -0.0994
 6067TIP3   OH218164   1.433   0.914   3.791  0.2694  0.0743 -0.6638
 6067TIP3    H118165   1.492   0.909   3.866  1.2991 -1.1275 -1.5145
 6067TIP3    H218166   1.354   0.957   3.826  1.8034  2.2588  0.3633
 6068TIP3   OH218167   0.840   5.126   1.998  0.5711  0.0683 -0.7466
 6068TIP3    H118168   0.808   5.064   1.933 -1.1339  0.2887 -0.1437
 6068TIP3    H218169   0.807   5.211   1.969 -1.1544  0.0336  0.9401
 6069TIP3   OH218170   1.584   4.946   4.363  0.4789 -0.1995  0.0014
 6069TIP3    H118171   1.620   5.032   4.341  0.3668 -0.2794 -0.5074
 6069TIP3    H218172   1.525   4.925   4.291  3.4907 -2.4817 -2.0520
 6070TIP3   OH218173   6.072   6.348   0.443 -0.7456  0.6534 -0.2557
 6070TIP3    H118174   6.040   6.303   0.521  0.7170  1.4408  0.8469
 6070TIP3    H218175   6.081   6.279   0.378 -0.6805 -0.2652  0.6993
 6071TIP3   OH218176   1.429   5.272   2.481  0.3882  0.3493 -0.2139
 6071TIP3    H118177   1.459   5.182   2.492 -1.1395 -0.5537 -2.6559
 6071TIP3    H218178   1.348   5.277   2.533 -0.5090 -0.2939 -1.5054
 6072TIP3   OH218179   5.067   2.156   5.006 -0.3958 -0.1839 -0.2938
 6072TIP3    H118180   5.037   2.126   4.920 -0.8555 -1.6147  0.3551
 6072TIP3    H218181   5.142   2.212   4.986  1.3085 -2.7358 -1.5260
 6073TIP3   OH218182   4.379   3.753   1.670  0.0171  0.0943  0.3978
 6073TIP3    H118183   4.340   3.759   1.583  0.0342  1.0326  0.4375
 6073TIP3    H218184   4.436   3.676   1.666  1.1849  0.9633 -0.9018
 6074TIP3   OH218185   4.777   2.331   3.162  0.4880  0.2278  0.4867
 6074TIP3    H118186   4.706   2.380   3.121 -0.3402  0.8295  2.5321
 6074TIP3    H218187   4.845   2.396   3.180  0.3174  0.2200  1.1870
 6075TIP3   OH218188   2.591   5.708   2.806  0.2898 -0.2312 -0.5062
 6075TIP3    H118189   2.582   5.780   2.869 -0.4975 -0.8685  0.1277
 6075TIP3    H218190   2.651   5.647   2.849 -0.4119 -0.7655 -0.2884
 6076TIP3   OH218191   0.609   0.174   3.682  0.0317  0.2120 -0.0228
 6076TIP3    H118192   0.518   0.166   3.651 -0.1475 -0.2926  0.6177
 6076TIP3    H218193   0.656   0.105   3.636  0.1743  0.7157 -0.6418
 6077TIP3   OH218194   0.907   1.952   1.609 -0.1995  0.0195 -0.0430
 6077TIP3    H118195   0.871   1.863   1.611 -0.0837 -0.0319 -0.2803
 6077TIP3    H218196   0.970   1.954   1.682  2.0838 -1.0626 -1.8751
 6078TIP3   OH218197   4.476   2.327   3.295 -0.1087  0.3854  0.2693
 6078TIP3    H118198   4.483   2.336   3.390  1.8670  1.9980  0.0333
 6078TIP3    H218199   4.430   2.406   3.266  0.0558  0.3214 -0.1874
 6079TIP3   OH218200   0.483   4.505   1.894  0.6192 -0.3364  0.3580
 6079TIP3    H118201   0.487   4.590   1.939 -2.5742 -0.5928  1.4092
 6079TIP3    H218202   0.496   4.527   1.802  3.5191  0.7236  0.9143
 6080TIP3   OH218203   3.066   2.421   2.093 -0.2558 -0.3073 -0.0437
 6080TIP3    H118204   3.160   2.406   2.088 -0.4507 -1.1955 -1.0823
 6080TIP3    H218205   3.035   2.417   2.003 -1.1410  1.0615  0.1623
 6081TIP3   OH218206   5.409   4.359   0.985 -0.0952 -0.2105 -0.0199
 6081TIP3    H118207   5.387   4.306   0.909 -2.1148  1.0072 -0.3533
 6081TIP3    H218208   5.505   4.368   0.981  0.6127 -4.8656  0.8691
 6082TIP3   OH218209   3.735   4.107   5.638 -0.8834 -0.2980 -0.5766
 6082TIP3    H118210   3.770   4.019   5.650 -1.4443 -0.3492  0.8972
 6082TIP3    H218211   3.643   4.100   5.664 -0.8271  0.8130 -0.0350
 6083TIP3   OH218212   6.201   4.920   0.637 -0.4364  0.5826  0.2363
 6083TIP3    H118213   6.224   5.006   0.672  1.5773  0.5899 -0.9632
 6083TIP3    H218214   6.273   4.863   0.664  0.2384  0.1695 -2.1947
 6084TIP3   OH218215   2.501   0.923   3.599 -0.4180  0.5822 -0.0477
 6084TIP3    H118216   2.534   0.989   3.660 -1.2077 -0.3131  1.4080
 6084TIP3    H218217   2.490   0.844   3.653  2.8715 -1.5696 -2.1739
 6085TIP3   OH218218   5.282   0.560   1.139  0.2767  0.2215 -0.1522
 6085TIP3    H118219   5.215   0.621   1.171 -1.5639 -0.2536 -2.7591
 6085TIP3    H218220   5.280   0.488   1.203 -2.4664 -0.2055 -0.5616
 6086TIP3   OH218221   2.680   0.258   0.763  0.2223 -0.1534 -0.1804
 6086TIP3    H118222   2.669   0.165   0.784 -1.1307  0.1624  0.6228
 6086TIP3    H218223   2.598   0.282   0.720  0.7114  0.5815 -0.7007
 6087TIP3   OH218224   4.097   0.395   2.097  0.1553  0.1279 -0.1345
 6087TIP3    H118225   4.083   0.305   2.126  0.9407  0.4954  1.4773
 6087TIP3    H218226   4.010   0.426   2.072  0.0473 -1.4618 -1.9851
 6088TIP3   OH218227   3.297   2.508   4.576  0.1791  0.2732 -0.2622
 6088TIP3    H118228   3.337   2.445   4.516 -1.5147  0.1973 -1.3584
 6088TIP3    H218229   3.309   2.593   4.534 -0.9223  0.2303 -0.7054
 6089TIP3   OH218230   5.969   5.875   4.910 -0.2046 -0.2854 -0.7202
 6089TIP3    H118231   5.978   5.853   5.002  2.3618 -0.8863 -1.0365
 6089TIP3    H218232   5.875   5.888   4.897 -0.6106  0.0863  2.0072
 6090TIP3   OH218233   0.111   3.394   1.870  0.1197  0.0540 -0.2891
 6090TIP3    H118234   0.152   3.380   1.784 -0.1655  1.6335 -0.7234
 6090TIP3    H218235   0.041   3.329   1.874  0.7536 -0.6834 -0.8332
 6091TIP3   OH218236   3.960   6.697   2.863 -0.1651 -0.2169 -0.3399
 6091TIP3    H118237   4.025   6.627   2.855 -0.2854 -0.2617 -1.0645
 6091TIP3    H218238   3.908   6.690   2.783 -0.2815  0.6018 -0.3487
 6092TIP3   OH218239   4.619   3.643   1.050 -0.3254 -0.4686  0.1708
 6092TIP3    H118240   4.622   3.549   1.072 -2.7992 -0.8596 -0.8069
 6092TIP3    H218241   4.529   3.658   1.022  0.2614  2.0241 -0.6487
 6093TIP3   OH218242   3.877   0.812   4.229  0.2332 -0.7190  0.1358
 6093TIP3    H118243   3.850   0.889   4.179 -0.2903 -0.3655  0.9377
 6093TIP3    H218244   3.969   0.827   4.249  0.7157 -1.3082 -1.5035
 6094TIP3   OH218245   3.250   4.060   1.373 -0.6375  0.6057 -0.0202
 6094TIP3    H118246   3.332   4.046   1.325 -0.3949  0.8293  0.3277
 6094TIP3    H218247   3.192   4.103   1.310 -1.1659 -1.2919 -0.9043
 6095TIP3   OH218248   0.194   2.865   2.694 -0.0041 -0.2659  0.1558
 6095TIP3    H118249   0.114   2.813   2.692 -0.8485  1.0005 -1.0404
 6095TIP3    H218250   0.257   2.814   2.643 -0.6149 -0.4491 -0.4287
 6096TIP3   OH218251   0.821   4.492   2.624 -0.1908 -0.1185 -0.8702
 6096TIP3    H118252   0.803   4.400   2.601 -2.1034 -0.2799  0.9336
 6096TIP3    H218253   0.775   4.543   2.558 -2.3238 -0.5425  0.1975
 6097TIP3   OH218254   2.487   3.354   5.308 -0.1104  0.2123  0.0508
 6097TIP3    H118255   2.458   3.275   5.264  0.9299  0.7495 -1.6920
 6097TIP3    H218256   2.428   3.423   5.277 -1.1568  0.1438  1.7280
 6098TIP3   OH218257   5.142   0.606   5.493 -0.3123  0.2610  0.0998
 6098TIP3    H118258   5.221   0.643   5.534 -0.3383  0.5239 -0.0863
 6098TIP3    H218259   5.176   0.546   5.427 -0.2475 -1.5972  1.7268
 6099TIP3   OH218260   0.834   5.724   1.367  0.5509 -0.3606  0.1077
 6099TIP3    H118261   0.817   5.818   1.374  1.5069 -0.1841  0.2773
 6099TIP3    H218262   0.817   5.690   1.456  1.0577 -0.1942  0.2692
 6100TIP3   OH218263   7.062   1.168   5.335 -0.8304  0.3375 -0.2091
 6100TIP3    H118264   7.132   1.104   5.342 -1.6187 -1.0052 -3.1228
 6100TIP3    H218265   6.983   1.121   5.362 -1.0559  0.8936  0.1289
 6101TIP3   OH218266   3.490   6.052   3.029  0.3412 -0.4195  0.0528
 6101TIP3    H118267   3.399   6.075   3.049 -0.0270 -1.7125 -0.0505
 6101TIP3    H218268   3.522   6.013   3.111  0.6355 -0.4687 -0.0871
 6102TIP3   OH218269   1.648   1.594   0.894  0.2492  0.0405 -0.5879
 6102TIP3    H118270   1.580   1.526   0.889  0.0937  0.0583  0.7543
 6102TIP3    H218271   1.641   1.628   0.984  2.4926 -0.4286 -0.1815
 6103TIP3   OH218272   0.935   3.862   1.097 -0.8961  0.1135  0.5186
 6103TIP3    H118273   1.008   3.815   1.139  0.0968  0.1540 -1.0655
 6103TIP3    H218274   0.857   3.819   1.130 -0.0932 -0.8649  1.2128
 6104TIP3   OH218275   0.683   1.051   0.601  0.6092  0.5723 -0.5641
 6104TIP3    H118276   0.651   1.132   0.641 -0.2587  0.1372 -0.3724
 6104TIP3    H218277   0.745   1.081   0.534  1.5287  1.3323  0.5836
 6105TIP3   OH218278   6.091   0.349   2.385 -0.0718  0.2055 -0.2628
 6105TIP3    H118279   6.040   0.425   2.416 -1.5260 -0.5659 -0.6542
 6105TIP3    H218280   6.142   0.383   2.311 -0.7712  0.7889 -0.4949
 6106TIP3   OH218281   1.280   2.149   2.016  0.4270 -0.2046  0.4348
 6106TIP3    H118282   1.207   2.208   2.001  1.3235  1.2286  1.4133
 6106TIP3    H218283   1.335   2.158   1.939  0.8842  0.7695  0.8604
 6107TIP3   OH218284   3.256   4.678   4.467  0.1637  0.3904  0.1197
 6107TIP3    H118285   3.191   4.658   4.534  1.2015 -3.2563  0.2596
 6107TIP3    H218286   3.340   4.662   4.510  0.9498  0.2585 -1.4104
 6108TIP3   OH218287   2.855   4.501   1.663  0.2175 -0.6632 -0.0915
 6108TIP3    H118288   2.949   4.512   1.649  0.5493 -0.9989  1.6740
 6108TIP3    H218289   2.815   4.574   1.616  1.3428 -0.5792 -0.9501
 6109TIP3   OH218290   2.601   0.323   0.151  0.1749  0.1919 -0.0678
 6109TIP3    H118291   2.693   0.313   0.126 -0.5825  0.0895 -3.1919
 6109TIP3    H218292   2.568   0.233   0.156  0.6109  0.0982  3.0672
 6110TIP3   OH218293   5.102   2.681   5.091  0.1187  0.5794  0.0841
 6110TIP3    H118294   5.127   2.635   5.171  2.1902  0.0411 -0.8218
 6110TIP3    H218295   5.015   2.717   5.110 -0.5853 -1.7261  1.6495
 6111TIP3   OH218296   4.313   1.429   0.779  0.1292 -0.3628 -0.2904
 6111TIP3    H118297   4.236   1.476   0.810  0.1629 -0.6282  0.2070
 6111TIP3    H218298   4.386   1.489   0.793  0.3510 -0.9878  1.4890
 6112TIP3   OH218299   3.779   0.172   0.404 -0.3023 -0.1021 -0.2014
 6112TIP3    H118300   3.861   0.123   0.404 -0.6843 -0.7813 -1.0785
 6112TIP3    H218301   3.775   0.215   0.489 -0.1166 -1.8758  0.7315
 6113TIP3   OH218302   4.980   5.941   3.696  0.3608 -0.0108 -0.0347
 6113TIP3    H118303   4.953   5.898   3.615  0.8267 -0.0848 -0.1531
 6113TIP3    H218304   5.046   5.882   3.733  1.7347  1.0472 -0.6858
 6114TIP3   OH218305   5.839   5.870   0.966 -0.5846 -0.3457  0.0951
 6114TIP3    H118306   5.798   5.826   0.892 -1.2098 -0.8716  0.7347
 6114TIP3    H218307   5.925   5.897   0.933 -0.8583 -0.5545 -0.8191
 6115TIP3   OH218308   2.843   5.541   0.393  0.3081  0.6026 -0.3034
 6115TIP3    H118309   2.825   5.449   0.374  1.9268  0.0206  0.7419
 6115TIP3    H218310   2.921   5.561   0.342  1.6160  0.5290  1.5561
 6116TIP3   OH218311   0.543   4.679   3.791  0.7753 -0.6975  0.1944
 6116TIP3    H118312   0.496   4.723   3.720  1.2714  0.8200  0.7867
 6116TIP3    H218313   0.634   4.705   3.781  1.7023 -3.9038 -1.1643
 6117TIP3   OH218314   1.470   0.724   1.501  0.2066  0.0863 -0.7777
 6117TIP3    H118315   1.513   0.655   1.551 -0.9074  0.7724  1.2185
 6117TIP3    H218316   1.431   0.678   1.426 -0.5048 -1.4580  0.4893
 6118TIP3   OH218317   6.143   0.919   4.640 -0.5956 -0.6125 -0.2026
 6118TIP3    H118318   6.054   0.949   4.661  0.5803  2.3351  1.0388
 6118TIP3    H218319   6.144   0.917   4.544 -1.2381  2.1586 -0.3514
 6119TIP3   OH218320   6.987   2.106   0.168  0.3396  0.7543  0.3976
 6119TIP3    H118321   6.913   2.156   0.136  0.0579  0.3402  0.3915
 6119TIP3    H218322   6.988   2.122   0.262  0.7624  1.4388  0.2796
 6120TIP3   OH218323   6.263   1.520   0.246  0.7129 -0.4101  0.5023
 6120TIP3    H118324   6.171   1.492   0.252  0.4843  0.5178  1.6074
 6120TIP3    H218325   6.301   1.496   0.330  1.3466 -0.2432  0.2726
 6121TIP3   OH218326   4.498   4.170   1.276 -0.0340  0.0050  0.7599
 6121TIP3    H118327   4.585   4.150   1.310  0.7450 -0.5140 -1.3976
 6121TIP3    H218328   4.474   4.093   1.225 -1.3844  0.5292  0.5603
 6122TIP3   OH218329   3.464   3.629   1.158 -0.0124  0.2986 -0.2164
 6122TIP3    H118330   3.497   3.607   1.071 -0.0429  1.6817 -0.6128
 6122TIP3    H218331   3.435   3.720   1.149  1.8096  1.1527  1.7246
 6123TIP3   OH218332   2.313   4.050   4.027 -0.1043 -0.2437  0.5782
 6123TIP3    H118333   2.222   4.056   4.058 -0.4375 -2.1050  0.0704
 6123TIP3    H218334   2.312   3.979   3.963  1.3236  1.0708 -0.9947
 6124TIP3   OH218335   0.721   2.193   3.895 -0.0397 -0.4248  0.1183
 6124TIP3    H118336   0.793   2.253   3.914 -0.9507  0.1248  2.2844
 6124TIP3    H218337   0.642   2.243   3.918 -1.1092 -1.1721 -1.6988
 6125TIP3   OH218338   1.597   5.617   2.650 -0.3023 -0.1548 -0.2913
 6125TIP3    H118339   1.638   5.531   2.653 -1.5901 -0.7746  0.0295
 6125TIP3    H218340   1.519   5.605   2.595 -0.0246  1.0188 -0.9837
 6126TIP3   OH218341   0.696   3.467   1.851  0.2351 -0.3116  0.6907
 6126TIP3    H118342   0.763   3.520   1.809 -0.0241  0.3046  1.0496
 6126TIP3    H218343   0.654   3.420   1.779  0.2004  0.2738  0.3220
 6127TIP3   OH218344   3.118   4.267   2.503 -0.5458  0.1165 -0.3725
 6127TIP3    H118345   3.201   4.248   2.458 -1.1972  0.2252 -1.6731
 6127TIP3    H218346   3.070   4.184   2.498 -1.2673  0.5715 -1.3417
 6128TIP3   OH218347   6.668   3.693   3.254  0.0329 -0.0424 -0.1500
 6128TIP3    H118348   6.592   3.634   3.248 -0.1448  0.1725 -0.0491
 6128TIP3    H218349   6.744   3.635   3.251 -0.1546 -0.4139  1.4394
 6129TIP3   OH218350   6.919   1.848   0.087  0.1858  0.6784 -0.5819
 6129TIP3    H118351   6.920   1.937   0.124  0.9860  0.6395 -0.4962
 6129TIP3    H218352   6.980   1.799   0.142 -0.4665 -0.0011 -0.4519
 6130TIP3   OH218353   1.582   2.515   1.120  0.2482  0.1135  0.4154
 6130TIP3    H118354   1.535   2.599   1.112 -1.0047 -0.6809 -1.0493
 6130TIP3    H218355   1.656   2.523   1.060  1.3326  0.8971  1.7960
 6131TIP3   OH218356   4.272   6.741   3.804 -0.4035 -0.2893 -0.5103
 6131TIP3    H118357   4.217   6.740   3.726 -1.3768 -3.3948  0.0904
 6131TIP3    H218358   4.214   6.717   3.876  1.3980 -2.5592  0.3291
 6132TIP3   OH218359   3.288   1.627   5.673  0.7084  0.1414  0.0404
 6132TIP3    H118360   3.285   1.722   5.683 -1.2754  0.1595 -0.2247
 6132TIP3    H218361   3.249   1.594   5.754 -0.1801 -0.3503 -0.5708
 6133TIP3   OH218362   3.455   1.679   1.596 -0.8942 -0.5355 -0.4230
 6133TIP3    H118363   3.378   1.682   1.652 -0.0592  0.1158  0.7590
 6133TIP3    H218364   3.512   1.613   1.637 -0.9076 -1.1667 -1.3997
 6134TIP3   OH218365   1.215   1.080   5.074  0.3388  0.5856 -0.4247
 6134TIP3    H118366   1.213   1.125   5.159  2.3119  0.3019 -0.1784
 6134TIP3    H218367   1.198   0.988   5.094  1.0045  0.4865 -0.2974
 6135TIP3   OH218368   4.798   1.431   3.831 -0.1827  0.2437  0.5710
 6135TIP3    H118369   4.864   1.493   3.799  0.5124 -0.7292  0.0424
 6135TIP3    H218370   4.715   1.478   3.823  0.3748  1.2558  0.6063
 6136TIP3   OH218371   6.170   3.473   2.362  0.1086 -0.3255 -0.1970
 6136TIP3    H118372   6.167   3.421   2.282 -1.6210 -0.5161 -0.0562
 6136TIP3    H218373   6.085   3.518   2.365  1.0149  1.4205  0.4051
 6137TIP3   OH218374   0.606   2.084   4.867  0.1470  0.3116 -0.0928
 6137TIP3    H118375   0.608   1.997   4.906 -2.9148  0.4753  0.7293
 6137TIP3    H218376   0.519   2.118   4.891  1.4948  3.8856  0.2808
 6138TIP3   OH218377   0.609   3.143   1.239 -0.1295  0.1159 -0.2108
 6138TIP3    H118378   0.549   3.135   1.313 -0.5952  1.2700 -0.4505
 6138TIP3    H218379   0.605   3.235   1.214  0.8115 -0.0455 -1.0186
 6139TIP3   OH218380   6.510   3.713   1.836  0.0852 -0.7394 -0.6826
 6139TIP3    H118381   6.526   3.718   1.741 -3.2664 -0.2331 -1.3727
 6139TIP3    H218382   6.479   3.801   1.859  0.8863 -0.8489  0.9207
 6140TIP3   OH218383   6.683   4.440   3.252 -0.7637  0.0587 -0.0570
 6140TIP3    H118384   6.626   4.502   3.297  1.9217  1.5537  1.5800
 6140TIP3    H218385   6.644   4.354   3.269 -0.3532  0.5464  4.8411
 6141TIP3   OH218386   2.879   0.936   4.876  0.3184  0.0542  0.2554
 6141TIP3    H118387   2.794   0.951   4.918 -0.4483 -0.7591 -0.9542
 6141TIP3    H218388   2.942   0.944   4.948 -0.9713 -1.7765  1.7288
 6142TIP3   OH218389   7.086   3.507   1.787  0.4806 -0.3821  0.8426
 6142TIP3    H118390   7.112   3.509   1.695  0.3584  0.5020  0.8178
 6142TIP3    H218391   7.168   3.501   1.836  0.5128 -1.6752  0.6707
 6143TIP3   OH218392   4.690   3.883   0.896  0.4519  0.4976  0.4919
 6143TIP3    H118393   4.674   3.897   0.803  1.0811  1.1673  0.4654
 6143TIP3    H218394   4.666   3.792   0.912 -1.2120  0.8235  0.0311
 6144TIP3   OH218395   1.371   0.196   4.475 -0.4581  0.1492 -0.0746
 6144TIP3    H118396   1.455   0.151   4.463 -0.9911 -0.6739 -0.8917
 6144TIP3    H218397   1.390   0.266   4.538  0.9510  0.2959 -0.6210
 6145TIP3   OH218398   4.323   0.876   0.087  0.1170  0.2136  0.8575
 6145TIP3    H118399   4.236   0.896   0.051 -0.5759 -2.1670  1.0779
 6145TIP3    H218400   4.325   0.921   0.171 -0.3626  1.3787  0.2697
 6146TIP3   OH218401   2.907   3.015   4.410 -0.6572  0.2108  0.1074
 6146TIP3    H118402   2.998   3.000   4.436 -0.4100  0.9880 -0.2851
 6146TIP3    H218403   2.914   3.053   4.322 -1.4201 -1.0683 -0.5419
 6147TIP3   OH218404   6.757   4.134   4.830  0.2122  0.2069 -0.3907
 6147TIP3    H118405   6.752   4.044   4.862  1.6741  0.6301  1.1894
 6147TIP3    H218406   6.666   4.159   4.813 -0.3390 -1.1142  0.4627
 6148TIP3   OH218407   4.548   1.128   3.145  0.4099 -0.5602 -0.3539
 6148TIP3    H118408   4.508   1.043   3.129  0.0593 -0.3044 -0.8576
 6148TIP3    H218409   4.576   1.158   3.059  0.7515 -0.2715 -0.1448
 6149TIP3   OH218410   0.689   0.134   1.508  0.6596 -0.1057  0.0578
 6149TIP3    H118411   0.763   0.152   1.567 -0.2146  1.7079  0.6769
 6149TIP3    H218412   0.614   0.124   1.567  0.4424 -2.5490 -0.5163
 6150TIP3   OH218413   2.001   1.208   4.017  0.6604  0.3221 -0.1133
 6150TIP3    H118414   2.060   1.283   4.019  0.3747  0.6967 -2.6031
 6150TIP3    H218415   1.913   1.246   4.021  0.5392 -0.0220  0.5754
 6151TIP3   OH218416   3.838   5.422   3.511 -0.4039 -0.2638  0.5599
 6151TIP3    H118417   3.873   5.356   3.571 -1.6451 -0.7831  0.7319
 6151TIP3    H218418   3.859   5.506   3.552 -0.5920 -0.6016  1.3520
 6152TIP3   OH218419   2.284   4.318   4.019 -0.1822  0.4481  0.2145
 6152TIP3    H118420   2.363   4.361   3.986 -0.0981  0.7271  0.7623
 6152TIP3    H218421   2.307   4.225   4.022  0.2524  0.5687  0.7141
 6153TIP3   OH218422   2.798   5.124   0.807  0.0056 -0.0979  0.3369
 6153TIP3    H118423   2.848   5.042   0.802 -0.0803 -0.1285  0.0098
 6153TIP3    H218424   2.712   5.097   0.839 -0.0501 -0.1465  0.1460
 6154TIP3   OH218425   2.546   5.684   4.740  0.0299 -0.0097  0.2854
 6154TIP3    H118426   2.587   5.599   4.749  1.9882  0.6141 -1.7935
 6154TIP3    H218427   2.570   5.713   4.652 -3.6961  1.0919 -0.5565
 6155TIP3   OH218428   2.519   5.589   0.318  0.1249  0.0005 -0.1333
 6155TIP3    H118429   2.459   5.602   0.245  1.0316 -0.1598 -0.9266
 6155TIP3    H218430   2.541   5.678   0.346  0.1835  0.0721 -0.3982
 6156TIP3   OH218431   5.897   1.262   0.826 -0.6286  0.3891  0.1055
 6156TIP3    H118432   5.914   1.339   0.881  0.2003  0.3143 -0.0250
 6156TIP3    H218433   5.959   1.271   0.753 -0.8922 -0.1267 -0.1856
 6157TIP3   OH218434   4.750   5.143   5.480 -0.3444  0.0347 -0.6455
 6157TIP3    H118435   4.764   5.238   5.474 -0.6998  0.1416  0.0621
 6157TIP3    H218436   4.803   5.106   5.410 -1.1925  0.8589 -1.7471
 6158TIP3   OH218437   5.968   1.836   2.371 -0.3750  0.9784 -0.0299
 6158TIP3    H118438   5.975   1.756   2.320  0.5336  0.5096  0.7962
 6158TIP3    H218439   6.004   1.813   2.457  0.5672  2.4488  0.0054
 6159TIP3   OH218440   5.057   0.456   2.795  0.1912  0.3907  0.1633
 6159TIP3    H118441   5.120   0.385   2.803  1.6733  1.5145 -0.9366
 6159TIP3    H218442   5.096   0.529   2.843 -0.5392  0.9388 -0.0478
 6160TIP3   OH218443   0.793   0.347   0.635  0.1066  0.1642 -0.3438
 6160TIP3    H118444   0.725   0.286   0.606 -0.8152  1.7852 -1.7503
 6160TIP3    H218445   0.874   0.296   0.633 -0.8693 -1.4943  0.2792
 6161TIP3   OH218446   3.291   1.279   5.106 -0.4397 -0.0505 -0.2643
 6161TIP3    H118447   3.334   1.317   5.183  0.7134  0.1385 -0.9710
 6161TIP3    H218448   3.325   1.190   5.102 -2.7687 -1.0944  1.1099
 6162TIP3   OH218449   4.294   5.932   5.250  0.3448 -0.1230 -0.6105
 6162TIP3    H118450   4.321   5.965   5.164 -0.5430  0.2427 -0.7568
 6162TIP3    H218451   4.312   6.005   5.310 -0.4163  0.1682 -0.7282
 6163TIP3   OH218452   3.920   3.402   1.265  0.1005  0.2882 -0.3512
 6163TIP3    H118453   4.007   3.425   1.233  0.5146  0.2034  0.6551
 6163TIP3    H218454   3.906   3.460   1.340 -0.6159  0.1526 -0.3728
 6164TIP3   OH218455   0.835   2.494   4.327 -0.0844  0.2343 -0.2147
 6164TIP3    H118456   0.830   2.400   4.346 -0.7285  0.3492  0.2235
 6164TIP3    H218457   0.800   2.536   4.406  1.0314  0.8800 -0.0477
 6165TIP3   OH218458   3.382   1.996   4.437  0.2227 -1.3588 -0.4932
 6165TIP3    H118459   3.342   1.945   4.507  1.3569 -1.7759 -0.1191
 6165TIP3    H218460   3.475   1.998   4.460  0.4299 -0.4818 -1.3593
 6166TIP3   OH218461   6.355   1.657   0.993  0.5638  0.2920 -0.1696
 6166TIP3    H118462   6.294   1.684   0.925 -0.4814 -1.4890 -0.0014
 6166TIP3    H218463   6.332   1.712   1.068  0.8308  1.3332 -0.8229
 6167TIP3   OH218464   0.853   3.662   5.124  0.1206  0.4544  0.6347
 6167TIP3    H118465   0.850   3.684   5.031 -0.2151 -1.6636  0.0715
 6167TIP3    H218466   0.762   3.642   5.146  0.2614  0.5443  1.3144
 6168TIP3   OH218467   4.946   3.732   5.692  0.1863  0.2655 -0.5540
 6168TIP3    H118468   4.890   3.659   5.719  1.0673  0.0820  0.8861
 6168TIP3    H218469   4.953   3.722   5.597 -2.4196  0.4715 -0.8447
 6169TIP3   OH218470   2.940   2.171   5.213  0.2748 -0.1838 -0.3195
 6169TIP3    H118471   2.872   2.117   5.253 -0.6048  1.0347 -0.1026
 6169TIP3    H218472   3.012   2.110   5.195 -0.6383 -1.3911 -0.0152
 6170TIP3   OH218473   2.249   1.063   3.740  0.0957  0.3790 -0.1819
 6170TIP3    H118474   2.190   1.117   3.688  1.0683  0.2882 -1.4034
 6170TIP3    H218475   2.245   0.977   3.700  0.6819  0.2446  0.0379
 6171TIP3   OH218476   6.719   0.986   2.407 -0.6938  1.2117 -0.2848
 6171TIP3    H118477   6.755   0.981   2.319 -0.8321  2.3696 -0.4119
 6171TIP3    H218478   6.782   1.039   2.456 -1.5387  2.1164 -0.1645
 6172TIP3   OH218479   5.128   6.087   3.931 -0.1083  0.6112  0.5325
 6172TIP3    H118480   5.054   6.114   3.877  0.3521  0.0470 -0.4191
 6172TIP3    H218481   5.204   6.131   3.892  0.3982 -0.6946 -0.0135
 6173TIP3   OH218482   0.767   2.573   2.679 -0.0312 -0.2769  0.1647
 6173TIP3    H118483   0.714   2.652   2.688 -1.8456 -1.4075 -0.1449
 6173TIP3    H218484   0.771   2.558   2.584  0.7866 -0.2560  0.1897
 6174TIP3   OH218485   4.237   1.926   1.756  0.0841 -0.1182 -0.1743
 6174TIP3    H118486   4.175   1.853   1.759  0.8913 -0.8252 -0.2301
 6174TIP3    H218487   4.185   2.003   1.779 -0.7185 -0.7568  0.1958
 6175TIP3   OH218488   4.949   3.221   3.860  0.2284  0.4814 -0.3444
 6175TIP3    H118489   4.921   3.211   3.769  0.4852 -0.6910 -0.3124
 6175TIP3    H218490   4.877   3.184   3.911  0.6900 -0.1505 -0.1435
 6176TIP3   OH218491   1.428   4.754   0.801 -0.2568 -0.1164  0.3598
 6176TIP3    H118492   1.513   4.723   0.770  0.8623  1.4460  1.7290
 6176TIP3    H218493   1.402   4.821   0.739 -0.4149 -0.4678  0.0425
 6177TIP3   OH218494   3.318   5.736   1.092  0.8341  0.4353  0.0026
 6177TIP3    H118495   3.340   5.681   1.167  0.0218 -0.1308 -0.1550
 6177TIP3    H218496   3.388   5.720   1.028  1.0888  0.2899  0.3187
 6178TIP3   OH218497   5.857   6.341   2.689 -0.2171  0.1449  0.0752
 6178TIP3    H118498   5.766   6.344   2.659 -0.3710 -1.3823  0.2769
 6178TIP3    H218499   5.860   6.265   2.748  1.3068 -0.1970 -0.3928
 6179TIP3   OH218500   5.715   0.679   4.804 -0.5007  0.2800  0.0274
 6179TIP3    H118501   5.623   0.704   4.794 -0.1714  1.2590 -0.6382
 6179TIP3    H218502   5.753   0.747   4.859 -0.7544 -1.5586  2.6579
 6180TIP3   OH218503   2.903   5.250   1.532 -0.2067  0.3087  0.0733
 6180TIP3    H118504   2.999   5.257   1.524 -0.2913  3.6034  0.5572
 6180TIP3    H218505   2.869   5.313   1.469 -2.1709 -1.4560 -0.7479
 6181TIP3   OH218506   4.739   1.630   4.983 -0.7454 -0.1718 -0.1832
 6181TIP3    H118507   4.742   1.721   5.013  1.1920  0.2108 -1.3435
 6181TIP3    H218508   4.798   1.628   4.908 -1.9750 -2.0611 -1.1617
 6182TIP3   OH218509   0.870   4.892   0.425  0.0398 -0.0897 -0.1085
 6182TIP3    H118510   0.908   4.811   0.460 -1.4990 -1.3095 -1.1461
 6182TIP3    H218511   0.894   4.891   0.332  1.3841  1.5047  0.1756
 6183TIP3   OH218512   3.103   3.511   4.893  0.0230 -0.4156 -0.1685
 6183TIP3    H118513   3.025   3.524   4.947 -0.6336 -2.0927 -0.6713
 6183TIP3    H218514   3.078   3.443   4.831  1.4903 -0.0779 -1.1698
 6184TIP3   OH218515   3.576   2.837   1.352 -0.4075  0.1169 -0.5658
 6184TIP3    H118516   3.483   2.822   1.338 -0.1811  0.0632 -2.1006
 6184TIP3    H218517   3.592   2.802   1.440 -1.5587 -1.1002 -0.8045
 6185TIP3   OH218518   6.371   2.772   1.907  0.1058 -0.0002 -0.1042
 6185TIP3    H118519   6.385   2.707   1.976  0.6697 -0.3763 -0.5660
 6185TIP3    H218520   6.459   2.801   1.883 -0.0227 -0.5906 -1.3393
 6186TIP3   OH218521   6.685   3.540   0.574 -0.7046 -0.0360  0.6438
 6186TIP3    H118522   6.656   3.459   0.533 -0.8616 -1.2251  2.9330
 6186TIP3    H218523   6.675   3.524   0.668  1.5480  1.7551  1.2766
 6187TIP3   OH218524   5.356   3.684   3.685  0.4760  0.1090 -0.0489
 6187TIP3    H118525   5.316   3.611   3.733  0.6384 -1.4454 -2.1769
 6187TIP3    H218526   5.449   3.677   3.706  0.2111  1.3850  1.8344
 6188TIP3   OH218527   7.135   5.203   2.164  0.1352 -0.0470  0.8935
 6188TIP3    H118528   7.066   5.143   2.193 -0.0914 -0.0238  0.4121
 6188TIP3    H218529   7.126   5.279   2.222 -0.7383  0.2735  0.3646
 6189TIP3   OH218530   6.387   6.648   0.987 -0.0448 -0.3901 -0.4812
 6189TIP3    H118531   6.461   6.668   1.045 -0.3592  0.7277 -0.4353
 6189TIP3    H218532   6.351   6.567   1.022  1.5423 -1.3247 -0.8947
 6190TIP3   OH218533   4.641   2.680   1.417  0.3760  0.0909 -0.4790
 6190TIP3    H118534   4.572   2.745   1.432  1.1326  0.7180  0.4511
 6190TIP3    H218535   4.630   2.618   1.489 -0.4383 -0.9411 -1.4478
 6191TIP3   OH218536   4.002   0.052   0.302  0.0309 -0.4012  0.3129
 6191TIP3    H118537   3.978   0.093   0.219 -0.5755  0.5921  0.9669
 6191TIP3    H218538   3.971  -0.038   0.295 -0.7020 -0.1060 -0.2353
 6192TIP3   OH218539   0.491   5.161   2.754 -0.8882  0.2727  0.0568
 6192TIP3    H118540   0.479   5.154   2.659  0.5383  0.7266 -0.1844
 6192TIP3    H218541   0.469   5.252   2.774 -2.6136 -0.1928  0.4208
 6193TIP3   OH218542   2.816   3.806   4.867 -0.0517 -0.1042 -0.2168
 6193TIP3    H118543   2.825   3.793   4.962 -1.8767 -0.3964 -0.0529
 6193TIP3    H218544   2.722   3.810   4.852  0.1474 -1.6422 -2.2467
 6194TIP3   OH218545   5.174   6.762   3.839  0.0547 -0.0530  0.3893
 6194TIP3    H118546   5.115   6.772   3.913  1.1743  0.2615  1.2742
 6194TIP3    H218547   5.260   6.789   3.873  0.7107 -0.5046 -0.8411
 6195TIP3   OH218548   3.807   0.486   1.548 -0.1076  0.6080  0.3897
 6195TIP3    H118549   3.885   0.437   1.576  0.7380  2.0817  0.7686
 6195TIP3    H218550   3.752   0.421   1.505  0.9223 -0.6746  0.9130
 6196TIP3   OH218551   4.568   1.525   3.003  0.0913 -0.3342  0.7087
 6196TIP3    H118552   4.659   1.552   3.014  0.3448 -1.3676  1.2700
 6196TIP3    H218553   4.557   1.515   2.909  0.6495 -0.5083  0.6616
 6197TIP3   OH218554   1.242   3.765   5.069  0.3653  0.3987  0.0142
 6197TIP3    H118555   1.189   3.690   5.098  0.2922  0.5351  0.2396
 6197TIP3    H218556   1.223   3.833   5.134 -1.1467  1.2905 -1.2975
 6198TIP3   OH218557   5.826   5.758   3.582  0.7443 -0.2219  0.7541
 6198TIP3    H118558   5.741   5.744   3.540  1.0880  1.1400 -0.5175
 6198TIP3    H218559   5.806   5.798   3.666  0.1101  0.3955  0.3219
 6199TIP3   OH218560   6.650   6.248   0.683 -0.1697 -0.6502 -0.2013
 6199TIP3    H118561   6.640   6.309   0.757  0.5135  0.5116 -1.0341
 6199TIP3    H218562   6.639   6.303   0.606  0.3478 -1.6241 -0.9806
 6200TIP3   OH218563   6.724   5.655   0.258  0.2210  0.1793  0.3179
 6200TIP3    H118564   6.651   5.593   0.267 -0.8488  1.5610  1.9145
 6200TIP3    H218565   6.801   5.600   0.248 -0.9051 -1.3653 -0.1998
 6201TIP3   OH218566   3.052   0.984   2.339 -0.4894  0.0669  0.2586
 6201TIP3    H118567   3.043   1.053   2.273 -1.0835 -1.4560 -1.3406
 6201TIP3    H218568   2.994   0.914   2.308  0.9347 -1.6019  1.1801
 6202TIP3   OH218569   6.633   2.926   4.462 -0.4043  0.5295 -0.1980
 6202TIP3    H118570   6.643   2.916   4.367 -1.8618 -0.9180 -0.2435
 6202TIP3    H218571   6.712   2.885   4.498 -0.2381  0.3226 -0.7687
 6203TIP3   OH218572   2.382   1.203   1.697 -0.1689 -0.2926 -0.4644
 6203TIP3    H118573   2.445   1.275   1.689  0.4559 -0.7819 -0.0530
 6203TIP3    H218574   2.431   1.125   1.672 -0.6860 -0.6505 -0.3858
 6204TIP3   OH218575   3.359   6.624   1.989 -0.4571  0.8012 -0.1931
 6204TIP3    H118576   3.427   6.601   1.926 -1.7027 -1.7285 -0.7586
 6204TIP3    H218577   3.403   6.679   2.053  2.2585 -1.1277 -0.2566
 6205TIP3   OH218578   2.425   2.937   4.042 -0.0931 -0.1302 -0.0353
 6205TIP3    H118579   2.457   3.025   4.021 -0.3503 -0.2053 -0.7657
 6205TIP3    H218580   2.461   2.881   3.974  1.0263 -0.8096  1.0820
 6206TIP3   OH218581   3.154   5.506   5.622  0.1806  0.2672 -0.3496
 6206TIP3    H118582   3.127   5.447   5.552 -1.0970  0.4952 -0.0659
 6206TIP3    H218583   3.125   5.463   5.703  2.2285 -0.3253  0.1310
 6207TIP3   OH218584   6.092   2.759   1.260  0.5656  0.4260 -0.5637
 6207TIP3    H118585   6.038   2.795   1.331 -0.3125 -1.8108 -0.0221
 6207TIP3    H218586   6.176   2.739   1.302 -0.6390 -2.9669  0.5791
 6208TIP3   OH218587   6.513   2.262   3.504 -0.2871 -0.1491 -0.5689
 6208TIP3    H118588   6.505   2.352   3.536  2.6561  0.9651 -2.5464
 6208TIP3    H218589   6.579   2.222   3.561 -2.1890 -1.4399  0.8478
 6209TIP3   OH218590   3.656   3.770   0.770 -0.6114 -0.3645  0.3917
 6209TIP3    H118591   3.649   3.677   0.791 -2.3935 -0.5710 -0.8158
 6209TIP3    H218592   3.656   3.814   0.855 -0.4351 -1.4337  0.9598
 6210TIP3   OH218593   5.832   4.511   0.586 -0.3456 -0.6091 -0.1385
 6210TIP3    H118594   5.760   4.492   0.647 -0.7203 -2.7070 -1.1581
 6210TIP3    H218595   5.814   4.600   0.556 -3.0687 -1.3428 -1.0013
 6211TIP3   OH218596   3.818   0.035   2.634  0.2374  0.8648 -0.0168
 6211TIP3    H118597   3.847  -0.055   2.649 -0.5437  0.7561  1.0135
 6211TIP3    H218598   3.874   0.067   2.564  0.6121 -0.3854 -0.3198
 6212TIP3   OH218599   6.715   1.899   1.443 -0.2177  0.1527  0.3557
 6212TIP3    H118600   6.809   1.885   1.428 -0.2057  0.9503 -0.4353
 6212TIP3    H218601   6.693   1.843   1.517  0.9610  0.2123  0.7642
 6213TIP3   OH218602   6.974   0.815   4.052  0.1218 -0.6377  0.1692
 6213TIP3    H118603   6.933   0.767   3.980 -0.1336  0.3661 -0.3743
 6213TIP3    H218604   6.907   0.877   4.080  0.0787 -1.2865  1.5539
 6214TIP3   OH218605   1.074   0.571   5.815  0.5829  0.1498  0.2389
 6214TIP3    H118606   1.113   0.561   5.729 -0.6311  0.0031 -0.3098
 6214TIP3    H218607   0.996   0.516   5.814  0.6921 -0.0768  1.5275
 6215TIP3   OH218608   6.388   3.176   2.391 -0.4318 -0.2939  0.3483
 6215TIP3    H118609   6.322   3.112   2.415 -1.0745  0.7871  1.6475
 6215TIP3    H218610   6.381   3.184   2.296 -0.7188 -1.7114  0.2363
 6216TIP3   OH218611   5.068   3.621   5.030  0.1579  0.0110 -0.3652
 6216TIP3    H118612   5.155   3.631   5.070 -0.4218  0.9712  0.7247
 6216TIP3    H218613   5.038   3.535   5.057  0.0826  0.3583  0.6864
 6217TIP3   OH218614   5.234   1.447   4.742 -0.3542  0.3404  0.0326
 6217TIP3    H118615   5.218   1.520   4.682 -1.3556  1.2991  1.4111
 6217TIP3    H218616   5.150   1.433   4.785  0.1718 -0.7902  0.7281
 6218TIP3   OH218617   6.803   0.557   1.729  0.1034 -0.1418 -0.1881
 6218TIP3    H118618   6.828   0.644   1.695  0.7395  0.0251  0.6811
 6218TIP3    H218619   6.886   0.513   1.746 -0.2110 -0.4535  0.5622
 6219TIP3   OH218620   5.434   1.735   1.890  0.1420 -0.3424 -0.1518
 6219TIP3    H118621   5.420   1.684   1.810  1.4592  1.6248 -1.7000
 6219TIP3    H218622   5.529   1.738   1.900  0.0040 -0.5740  1.5603
 6220TIP3   OH218623   3.449   0.320   4.482 -0.1127 -0.1901  0.0340
 6220TIP3    H118624   3.509   0.338   4.410  0.1262 -0.0186  0.2731
 6220TIP3    H218625   3.434   0.405   4.523 -1.8561  0.0667 -1.0424
 6221TIP3   OH218626   0.174   5.794   0.914 -0.2858 -0.3106  0.0665
 6221TIP3    H118627   0.155   5.771   0.823 -1.6125 -2.5853  0.8196
 6221TIP3    H218628   0.270   5.799   0.917 -0.1644 -1.0815 -1.2881
 6222TIP3   OH218629   0.561   2.223   5.782  0.3133 -0.1429  0.3576
 6222TIP3    H118630   0.652   2.217   5.812  0.3385  0.4800  0.4275
 6222TIP3    H218631   0.516   2.269   5.853 -0.2701 -1.2989  0.7590
 6223TIP3   OH218632   2.980   1.698   2.991 -0.1725  0.1692 -0.5560
 6223TIP3    H118633   2.913   1.694   3.060  0.6704  0.3979  0.2945
 6223TIP3    H218634   3.017   1.786   2.999 -0.1588  0.2471 -1.4059
 6224TIP3   OH218635   0.842   5.490   2.054 -0.2802 -0.0654 -0.0078
 6224TIP3    H118636   0.811   5.438   1.979  0.0234  0.6835 -0.6753
 6224TIP3    H218637   0.794   5.572   2.048  0.2428  0.2645  0.2177
 6225TIP3   OH218638   2.444   6.270   3.485 -0.4751 -0.1703 -0.3440
 6225TIP3    H118639   2.501   6.347   3.497 -0.8399  0.4732 -2.3261
 6225TIP3    H218640   2.497   6.210   3.433 -0.5472 -0.8736  0.3792
 6226TIP3   OH218641   4.132   4.541   0.794  0.3401  0.6197  0.3013
 6226TIP3    H118642   4.096   4.483   0.728  0.6185 -0.9640  1.4664
 6226TIP3    H218643   4.220   4.507   0.810  1.1053  2.3323 -0.0694
 6227TIP3   OH218644   3.866   6.011   3.317 -0.0044 -0.0924  0.1445
 6227TIP3    H118645   3.848   5.990   3.408 -0.6551  0.8268  0.2439
 6227TIP3    H218646   3.960   5.996   3.308 -0.2816 -2.2902  0.3598
 6228TIP3   OH218647   6.777   1.168   3.323  0.1192 -0.2374 -0.4421
 6228TIP3    H118648   6.797   1.096   3.382 -1.2555 -1.3738 -1.3014
 6228TIP3    H218649   6.727   1.230   3.376 -0.2253 -0.7616 -0.1478
 6229TIP3   OH218650   1.806   2.606   0.439 -0.3351  0.1207 -0.1184
 6229TIP3    H118651   1.858   2.630   0.516 -1.4272  0.0084  0.6737
 6229TIP3    H218652   1.723   2.651   0.451 -0.6797 -0.2489 -1.0319
 6230TIP3   OH218653   0.736   4.260   5.177 -0.0513  0.5328  0.6615
 6230TIP3    H118654   0.758   4.322   5.108  1.0015 -0.1258  0.3865
 6230TIP3    H218655   0.819   4.240   5.219 -0.7986  2.0403  3.1311
 6231TIP3   OH218656   1.354   1.464   1.848  0.2243  0.4885  0.2530
 6231TIP3    H118657   1.406   1.446   1.770  0.1893  1.1356  0.0743
 6231TIP3    H218658   1.284   1.521   1.817  0.3408  0.9355  0.7952
 6232TIP3   OH218659   2.600   4.666   0.820 -1.1514  0.4919  0.5089
 6232TIP3    H118660   2.680   4.657   0.768 -1.5151  1.3625 -0.2320
 6232TIP3    H218661   2.569   4.576   0.831 -1.7088  0.3370 -1.8450
 6233TIP3   OH218662   4.102   3.602   5.804  0.3969  0.1065 -0.7007
 6233TIP3    H118663   4.113   3.673   5.741  1.8656 -0.4513 -1.1324
 6233TIP3    H218664   4.189   3.591   5.843 -0.4539  0.4005  1.4213
 6234TIP3   OH218665   3.415   0.386   0.885  0.0395  0.0218  0.4582
 6234TIP3    H118666   3.423   0.318   0.818 -1.1124  0.3212 -0.0200
 6234TIP3    H218667   3.483   0.449   0.863  1.9678 -1.5427  1.6577
 6235TIP3   OH218668   5.610   4.627   1.217  0.5979 -0.1192 -0.5972
 6235TIP3    H118669   5.604   4.679   1.298  1.0178 -2.5931  1.1162
 6235TIP3    H218670   5.531   4.574   1.217  0.8451 -0.5047 -1.5935
 6236TIP3   OH218671   5.282   1.829   0.246 -0.6132 -0.2202 -0.0073
 6236TIP3    H118672   5.268   1.892   0.175 -1.3861 -0.5767 -0.1824
 6236TIP3    H218673   5.305   1.883   0.322 -0.5532  0.2207 -0.3375
 6237TIP3   OH218674   5.567   6.445   5.399 -0.4726  0.1671  0.4725
 6237TIP3    H118675   5.501   6.484   5.341 -0.0590  1.5571  0.8911
 6237TIP3    H218676   5.617   6.385   5.343 -1.9640 -0.7967  0.1130
 6238TIP3   OH218677   3.282   1.971   4.187 -0.1633 -0.0389 -0.5271
 6238TIP3    H118678   3.297   1.992   4.279  0.7129  1.5097 -0.9918
 6238TIP3    H218679   3.365   1.932   4.158 -1.2070 -2.7549 -0.1138
 6239TIP3   OH218680   2.938   4.592   2.140  0.6623  0.3981  0.0272
 6239TIP3    H118681   3.012   4.646   2.167  0.0609  1.3787 -0.2197
 6239TIP3    H218682   2.901   4.561   2.223  0.4820  1.1213  0.2333
 6240TIP3   OH218683   2.812   4.541   2.759  0.4345 -0.5276 -0.5508
 6240TIP3    H118684   2.844   4.583   2.679  1.4928  0.7018  0.4647
 6240TIP3    H218685   2.891   4.526   2.811 -0.4716  2.9908  2.2419
 6241TIP3   OH218686   6.231   3.552   3.431 -0.1470 -0.0665 -0.4668
 6241TIP3    H118687   6.311   3.596   3.460 -0.5265  1.0292 -1.0255
 6241TIP3    H218688   6.263   3.474   3.385  0.6583  0.8032 -1.4363
 6242TIP3   OH218689   4.458   5.015   0.407  0.1772  0.0192  0.2126
 6242TIP3    H118690   4.405   5.029   0.485 -1.5003  2.1585 -1.2118
 6242TIP3    H218691   4.438   4.925   0.381 -0.8455 -0.0314  1.0829
 6243TIP3   OH218692   3.495   1.737   5.027 -0.8110  0.1893  0.0308
 6243TIP3    H118693   3.572   1.782   5.061 -1.4489  0.3423  1.3427
 6243TIP3    H218694   3.441   1.718   5.105 -1.3890 -1.2724 -0.6754
 6244TIP3   OH218695   4.252   2.118   1.103 -0.2797 -0.0089 -0.4700
 6244TIP3    H118696   4.177   2.177   1.104  0.8126  1.4333  0.0786
 6244TIP3    H218697   4.256   2.086   1.013 -1.1429  0.4135 -0.6733
 6245TIP3   OH218698   4.533   4.764   5.843 -0.3335  0.0590  0.3222
 6245TIP3    H118699   4.599   4.817   5.800  0.0371  0.7719  1.6968
 6245TIP3    H218700   4.525   4.802   5.931 -1.2616 -1.1250  0.7867
 6246TIP3   OH218701   3.398   4.230   3.859  0.0983  0.3123 -0.2576
 6246TIP3    H118702   3.414   4.163   3.925 -1.1134  0.4638  0.2135
 6246TIP3    H218703   3.479   4.281   3.856  1.2491 -1.4759 -1.0302
 6247TIP3   OH218704   6.715   4.218   3.592 -0.0224  0.2798 -0.1034
 6247TIP3    H118705   6.707   4.296   3.647  0.1860  0.9909 -1.0579
 6247TIP3    H218706   6.666   4.150   3.640  1.1878  0.5177  1.5691
 6248TIP3   OH218707   0.682   5.114   5.537 -0.0388  0.1533  0.4185
 6248TIP3    H118708   0.649   5.048   5.599 -0.1364  0.2848  0.5069
 6248TIP3    H218709   0.639   5.195   5.563  0.6679  0.4205  0.8019
 6249TIP3   OH218710   6.122   3.583   2.783  0.5953 -0.6192  0.5662
 6249TIP3    H118711   6.028   3.583   2.769  0.5800 -0.2824  0.6547
 6249TIP3    H218712   6.157   3.528   2.713  0.3172 -0.9104  0.6542
 6250TIP3   OH218713   2.198   0.815   0.157 -0.3194  0.7868  0.1345
 6250TIP3    H118714   2.252   0.847   0.084 -2.9755  2.3049 -1.3108
 6250TIP3    H218715   2.187   0.892   0.214 -1.2310  0.6020  0.2190
 6251TIP3   OH218716   1.654   6.746   3.834 -0.0181  0.3242  0.1333
 6251TIP3    H118717   1.643   6.665   3.882  2.9331 -0.2670  0.0293
 6251TIP3    H218718   1.622   6.727   3.746 -1.1575 -0.0558  0.6121
 6252TIP3   OH218719   6.258   1.373   1.031 -0.9061  0.0759  0.3833
 6252TIP3    H118720   6.327   1.335   0.977  0.6276  0.3881  2.0243
 6252TIP3    H218721   6.289   1.462   1.051 -2.7075  0.9324 -0.4036
 6253TIP3   OH218722   0.276   1.463   4.302  0.0969  0.6387  0.3805
 6253TIP3    H118723   0.330   1.488   4.226 -1.2967  0.7373 -0.6243
 6253TIP3    H218724   0.280   1.367   4.304  0.6480  0.6645  0.5759
 6254TIP3   OH218725   2.521   2.318   5.563  0.2303  0.1327  0.0022
 6254TIP3    H118726   2.442   2.307   5.510 -0.6716 -2.4069  1.6797
 6254TIP3    H218727   2.500   2.389   5.623  1.2751  3.0696 -2.8205
 6255TIP3   OH218728   2.305   1.399   0.205  0.2365 -0.6221 -0.3498
 6255TIP3    H118729   2.346   1.390   0.291  1.8439 -2.4901 -1.2198
 6255TIP3    H218730   2.227   1.452   0.221  2.7320  2.9474  1.4662
 6256TIP3   OH218731   1.441   0.416   2.205  0.8625 -0.0269 -0.2339
 6256TIP3    H118732   1.368   0.356   2.186  0.0736  1.0794 -0.8128
 6256TIP3    H218733   1.501   0.404   2.132 -0.2757  1.3234 -1.4700
 6257TIP3   OH218734   1.255   3.203   5.348 -0.9900  0.0847 -0.3062
 6257TIP3    H118735   1.211   3.169   5.270 -2.0446 -0.8902  0.6618
 6257TIP3    H218736   1.192   3.265   5.385 -1.4591 -1.0750  0.9139
 6258TIP3   OH218737   2.957   6.379   2.091 -0.0022 -0.2916 -0.0857
 6258TIP3    H118738   3.006   6.305   2.054  0.4700  0.3697 -0.8126
 6258TIP3    H218739   2.974   6.451   2.031 -0.2749  0.4744  0.7423
 6259TIP3   OH218740   3.586   4.792   3.565 -0.1643 -0.0009  0.6657
 6259TIP3    H118741   3.644   4.779   3.490 -1.8292  0.2886 -0.7325
 6259TIP3    H218742   3.580   4.887   3.575 -1.9349  0.0519 -0.5098
 6260TIP3   OH218743   0.405   2.505   0.964  0.0841 -0.0738  0.7010
 6260TIP3    H118744   0.480   2.559   0.937  0.5429 -0.7997  0.4966
 6260TIP3    H218745   0.443   2.419   0.983 -0.8079 -0.7052 -0.2740
 6261TIP3   OH218746   1.099   1.965   2.999  0.3033  0.0430  0.1420
 6261TIP3    H118747   1.183   1.943   3.041 -0.0172 -0.8893  0.3308
 6261TIP3    H218748   1.037   1.969   3.072 -0.0446 -0.4918 -0.1131
 6262TIP3   OH218749   4.598   1.694   4.333  0.5184  0.3363 -0.0441
 6262TIP3    H118750   4.658   1.681   4.407 -0.4462  0.0572  0.7077
 6262TIP3    H218751   4.612   1.785   4.308  0.4826  0.5981  0.8377
 6263TIP3   OH218752   3.867   5.918   1.850 -0.1261  0.5115  0.3990
 6263TIP3    H118753   3.789   5.864   1.837 -1.3210  1.8483  1.6979
 6263TIP3    H218754   3.864   5.982   1.779  1.5057 -1.2493 -1.3820
 6264TIP3   OH218755   6.840   6.413   3.791 -0.0165 -0.0297  0.4349
 6264TIP3    H118756   6.845   6.338   3.849 -0.5927 -0.3570  0.0693
 6264TIP3    H218757   6.801   6.379   3.710 -0.4064  0.6871  0.3113
 6265TIP3   OH218758   2.784   0.409   3.310 -0.5647  0.1673 -0.3743
 6265TIP3    H118759   2.837   0.476   3.268  0.0503  0.6805  1.1399
 6265TIP3    H218760   2.725   0.457   3.368 -0.2669 -0.5687  0.5705
 6266TIP3   OH218761   3.277   6.696   5.807 -0.1887  0.3629  0.4893
 6266TIP3    H118762   3.195   6.652   5.833 -0.5138 -0.1538 -1.2675
 6266TIP3    H218763   3.277   6.691   5.712  2.4093 -0.5421  0.4846
 6267TIP3   OH218764   2.580   2.038   5.570 -0.4718 -0.0263 -0.0688
 6267TIP3    H118765   2.598   2.132   5.569 -0.1807 -0.0803 -0.5684
 6267TIP3    H218766   2.485   2.031   5.580 -0.9382  0.4313 -3.0602
 6268TIP3   OH218767   0.540   2.311   5.504  0.5227  0.1489 -0.1003
 6268TIP3    H118768   0.502   2.394   5.535 -2.9708 -0.6040 -1.8802
 6268TIP3    H218769   0.556   2.261   5.584 -3.0022  0.3389  0.9138
 6269TIP3   OH218770   6.637   3.518   5.009 -0.0896 -0.1487  0.3215
 6269TIP3    H118771   6.545   3.518   5.034 -0.4880 -2.4965 -0.8482
 6269TIP3    H218772   6.683   3.486   5.086 -0.4669 -0.6188  0.3573
 6270TIP3   OH218773   3.758   3.408   4.567 -0.2381 -0.4306 -0.1868
 6270TIP3    H118774   3.757   3.462   4.646 -1.6084 -0.0940 -0.4203
 6270TIP3    H218775   3.773   3.319   4.600  0.6757 -0.1136  0.3089
 6271TIP3   OH218776   2.334   3.256   0.655  0.1142  0.4556  0.5619
 6271TIP3    H118777   2.255   3.257   0.708  0.1930  0.7532  0.6812
 6271TIP3    H218778   2.323   3.331   0.595 -0.0683 -0.0013  0.0171
 6272TIP3   OH218779   1.672   1.227   1.496 -0.0556 -0.2521  0.1104
 6272TIP3    H118780   1.613   1.153   1.489 -1.0530  0.5451 -0.1533
 6272TIP3    H218781   1.691   1.253   1.406 -0.9019  0.7120  0.1867
 6273TIP3   OH218782   7.117   5.247   4.853  0.1617 -0.2449 -0.0310
 6273TIP3    H118783   7.204   5.231   4.816  0.1075 -1.2809  0.2504
 6273TIP3    H218784   7.131   5.253   4.947  0.2395  1.9694 -0.1443
 6274TIP3   OH218785   1.406   1.785   0.827 -0.2314 -0.4071  0.3772
 6274TIP3    H118786   1.420   1.788   0.922 -1.7895  0.4218  0.6047
 6274TIP3    H218787   1.433   1.696   0.802  0.1728 -0.6472  1.5853
 6275TIP3   OH218788   2.110   1.079   1.760  0.3618 -0.3310  0.3471
 6275TIP3    H118789   2.060   1.144   1.711 -0.6533 -0.1817  1.5330
 6275TIP3    H218790   2.196   1.120   1.774  0.2569  0.1068 -0.2644
 6276TIP3   OH218791   3.703   2.364   1.211 -0.4103  0.0425 -0.0152
 6276TIP3    H118792   3.756   2.293   1.245  0.4453 -0.3451 -1.9984
 6276TIP3    H218793   3.613   2.330   1.210 -0.2716 -0.3525  0.6589
 6277TIP3   OH218794   0.185   1.638   4.654 -0.0870  0.0569 -0.2553
 6277TIP3    H118795   0.180   1.626   4.749  3.3224  2.1171  0.3875
 6277TIP3    H218796   0.237   1.564   4.624  2.0152  1.2700  0.1841
 6278TIP3   OH218797   0.786   3.946   2.375  0.1245  0.2097 -0.1694
 6278TIP3    H118798   0.715   3.883   2.390 -1.0380  1.6346  0.5819
 6278TIP3    H218799   0.783   3.962   2.280 -1.3702  1.1005 -0.0118
 6279TIP3   OH218800   6.086   1.644   3.980 -0.3234  0.4003 -0.0277
 6279TIP3    H118801   6.030   1.695   4.038 -1.9114 -2.6551  1.3750
 6279TIP3    H218802   6.039   1.643   3.896 -1.4456 -0.5036  0.5776
 6280TIP3   OH218803   6.946   4.311   3.099  0.0063  0.4929 -0.6664
 6280TIP3    H118804   6.877   4.297   3.164  2.7998 -0.6132  2.3293
 6280TIP3    H218805   7.004   4.375   3.139  2.3607 -0.9543 -1.5846
 6281TIP3   OH218806   1.594   1.760   2.690 -0.0860  0.2037 -0.5448
 6281TIP3    H118807   1.585   1.720   2.777  1.2769  0.2099 -0.3908
 6281TIP3    H218808   1.600   1.685   2.631 -0.0900  0.1998 -0.5405
 6282TIP3   OH218809   2.662   4.950   1.309  0.4640  0.1992 -0.1447
 6282TIP3    H118810   2.701   4.864   1.321 -1.2159 -0.4100  1.2942
 6282TIP3    H218811   2.698   4.982   1.226 -0.1473 -2.5755 -1.5716
 6283TIP3   OH218812   4.987   0.618   5.126 -0.1614  0.2852 -0.3264
 6283TIP3    H118813   4.900   0.657   5.133  0.0366  0.6439  0.2403
 6283TIP3    H218814   5.039   0.684   5.079  0.3189  0.9815  1.1220
 6284TIP3   OH218815   6.269   6.519   2.065  0.3793  0.1094  0.4908
 6284TIP3    H118816   6.347   6.572   2.082  0.4038  0.5102 -0.7203
 6284TIP3    H218817   6.201   6.582   2.041  0.8615 -0.3803 -2.6482
 6285TIP3   OH218818   6.462   5.387   2.039  0.2721 -0.3795  0.4925
 6285TIP3    H118819   6.449   5.348   1.952  1.2041  0.4129 -0.0269
 6285TIP3    H218820   6.373   5.398   2.074 -0.2065  0.3878 -0.8711
 6286TIP3   OH218821   1.629   0.919   3.997  0.6434 -0.0438 -0.0659
 6286TIP3    H118822   1.632   0.877   4.082  1.4646  0.3730  0.1166
 6286TIP3    H218823   1.720   0.931   3.972  0.4194  1.1372 -0.3614
 6287TIP3   OH218824   3.288   2.378   0.689 -0.0168 -0.7239 -0.1688
 6287TIP3    H118825   3.192   2.382   0.689  0.0156  1.0062  0.0066
 6287TIP3    H218826   3.315   2.462   0.726  1.5750 -1.1703 -0.2499
 6288TIP3   OH218827   6.765   5.919   4.670  0.1117  0.4791  0.3210
 6288TIP3    H118828   6.819   5.950   4.742 -1.2981 -0.8869  2.0642
 6288TIP3    H218829   6.721   5.997   4.636  0.9892  1.1765  0.7641
 6289TIP3   OH218830   2.091   1.065   5.355 -0.5478 -0.4220 -0.8276
 6289TIP3    H118831   2.180   1.067   5.319  1.7280 -2.0053  3.9046
 6289TIP3    H218832   2.070   1.157   5.372  1.9589 -0.1506  1.4130
 6290TIP3   OH218833   5.995   3.817   4.291  0.3095  0.3845 -0.0420
 6290TIP3    H118834   5.903   3.833   4.271 -0.2524 -0.1003  1.9621
 6290TIP3    H218835   6.023   3.895   4.339  1.0520  0.6514 -0.8729
 6291TIP3   OH218836   4.231   5.069   0.054 -0.0522  0.1126  0.3088
 6291TIP3    H118837   4.280   5.127  -0.005 -1.8398  0.7065 -0.6629
 6291TIP3    H218838   4.158   5.038   0.001  0.3983 -2.4469  1.0485
 6292TIP3   OH218839   7.106   2.627   3.915 -0.0109  0.3923 -0.3268
 6292TIP3    H118840   7.091   2.541   3.956  0.3904 -0.6028 -2.1662
 6292TIP3    H218841   7.074   2.617   3.826  1.1660  1.7637 -0.9433
 6293TIP3   OH218842   5.144   4.828   2.109 -0.1016  0.1079  0.4235
 6293TIP3    H118843   5.238   4.836   2.129 -0.2576  0.5158  1.0203
 6293TIP3    H218844   5.101   4.876   2.179 -0.7214  0.6991 -0.3539
 6294TIP3   OH218845   6.436   6.232   3.234 -0.3622  0.0401  0.5354
 6294TIP3    H118846   6.345   6.261   3.225 -0.4982  0.2028  2.1775
 6294TIP3    H218847   6.429   6.141   3.263 -0.0016  0.0923  0.7845
 6295TIP3   OH218848   6.855   3.159   4.333  0.1289  0.4682  0.3371
 6295TIP3    H118849   6.819   3.096   4.271  2.5981  0.3287 -1.0580
 6295TIP3    H218850   6.807   3.240   4.317 -2.3303 -0.6853  1.3993
 6296TIP3   OH218851   6.326   2.002   3.105  0.1860 -0.2205 -0.1538
 6296TIP3    H118852   6.286   2.089   3.096  1.2187  0.3312  0.4169
 6296TIP3    H218853   6.359   1.983   3.017  0.8178  0.4087 -0.0617
 6297TIP3   OH218854   4.694   6.253   2.994  0.4059 -0.6159 -0.3960
 6297TIP3    H118855   4.761   6.204   2.947  0.7240 -0.2724 -0.3123
 6297TIP3    H218856   4.612   6.227   2.954  0.4933 -1.7325  0.0999
 6298TIP3   OH218857   1.862   2.189   1.055  0.0201 -0.2860 -0.1645
 6298TIP3    H118858   1.768   2.200   1.036 -0.0871 -0.9064  0.0045
 6298TIP3    H218859   1.869   2.203   1.149  0.4394  1.9953 -0.4732
 6299TIP3   OH218860   6.510   5.228   4.855 -0.0101  0.6901 -0.0571
 6299TIP3    H118861   6.565   5.192   4.925  0.9244 -0.7584 -1.4452
 6299TIP3    H218862   6.425   5.186   4.868  0.0566  0.6921  0.4097
 6300TIP3   OH218863   3.648   3.308   2.263 -0.0860  0.4133  0.2734
 6300TIP3    H118864   3.656   3.218   2.231 -3.2622  0.0230  0.2777
 6300TIP3    H218865   3.659   3.301   2.357  0.8293  0.2450  0.1645
 6301TIP3   OH218866   0.369   0.444   1.610  0.1011  0.1609 -0.1063
 6301TIP3    H118867   0.406   0.530   1.587  0.4697 -0.0609 -0.3671
 6301TIP3    H218868   0.398   0.386   1.538  0.7859 -0.4231  0.6186
 6302TIP3   OH218869   1.273   1.286   2.745  0.1796  0.1282 -0.0714
 6302TIP3    H118870   1.215   1.345   2.697 -0.9103 -2.0845 -1.6905
 6302TIP3    H218871   1.325   1.343   2.801 -0.7430  2.5853 -1.5558
 6303TIP3   OH218872   2.767   2.624   2.145  0.2005  0.3823  0.0102
 6303TIP3    H118873   2.711   2.686   2.099  0.7281  0.1411 -0.9833
 6303TIP3    H218874   2.856   2.650   2.122  0.4293 -0.9037 -0.6871
 6304TIP3   OH218875   1.550   1.042   5.483 -0.2926 -0.4882  0.1548
 6304TIP3    H118876   1.528   1.131   5.456 -1.2542 -0.6486  0.3535
 6304TIP3    H218877   1.467   0.994   5.480 -0.2189 -0.8530  2.0340
 6305TIP3   OH218878   1.123   2.894   3.816 -0.2566 -0.4961  0.2509
 6305TIP3    H118879   1.192   2.830   3.796 -0.3906 -0.9175  1.1264
 6305TIP3    H218880   1.041   2.844   3.810 -0.3174 -0.5883  1.6074
 6306TIP3   OH218881   0.605   5.972   5.277  0.0560  0.0240  0.8240
 6306TIP3    H118882   0.678   5.912   5.262  0.6805  0.5660  1.6606
 6306TIP3    H218883   0.560   5.976   5.192  1.2724  0.0476  0.1560
 6307TIP3   OH218884   2.990   4.880   4.553  0.3961  0.6415 -0.2315
 6307TIP3    H118885   3.053   4.838   4.611  1.4474 -0.0842 -1.8358
 6307TIP3    H218886   2.984   4.970   4.585  1.9408  0.6184  0.2152
 6308TIP3   OH218887   4.116   2.933   1.003  0.1071  0.3568 -0.3941
 6308TIP3    H118888   4.158   3.012   0.969  0.1827  0.8902  0.8824
 6308TIP3    H218889   4.023   2.947   0.987  0.0689  0.9607  0.3198
 6309TIP3   OH218890   3.037   0.137   0.512  0.7662  0.0497 -0.1531
 6309TIP3    H118891   3.071   0.211   0.563  0.6918 -0.7484  1.1189
 6309TIP3    H218892   2.970   0.099   0.569  0.5416 -0.7680 -0.9550
 6310TIP3   OH218893   0.973   1.279   3.963 -0.2823 -0.1958 -0.5440
 6310TIP3    H118894   1.040   1.236   4.016 -1.2390  0.5290  1.3295
 6310TIP3    H218895   0.906   1.211   3.949  0.0356 -0.4276 -0.9378
 6311TIP3   OH218896   6.825   0.941   3.478 -0.2866 -0.5083  0.4507
 6311TIP3    H118897   6.911   0.900   3.483 -0.3460 -0.4500  2.3980
 6311TIP3    H218898   6.767   0.871   3.447 -0.0388 -1.3762  1.8722
 6312TIP3   OH218899   3.296   0.315   3.102  0.4374  0.2006 -0.1899
 6312TIP3    H118900   3.215   0.348   3.063  0.1449 -1.4139 -1.0709
 6312TIP3    H218901   3.354   0.391   3.106 -0.6308  1.0846 -0.8606
 6313TIP3   OH218902   0.980   1.097   3.230 -0.5053  0.1565 -0.3307
 6313TIP3    H118903   1.068   1.069   3.253 -0.7703 -0.1263  0.3729
 6313TIP3    H218904   0.989   1.191   3.211 -0.2714  0.4258  1.0036
 6314TIP3   OH218905   6.432   3.722   2.575  0.3306  0.4297 -0.1203
 6314TIP3    H118906   6.450   3.768   2.657  1.0397 -0.7555  0.4214
 6314TIP3    H218907   6.348   3.756   2.546  0.9501  2.2504  0.0978
 6315TIP3   OH218908   2.412   1.046   2.350 -0.1006 -0.1882 -0.2249
 6315TIP3    H118909   2.498   1.004   2.347  0.4612  0.9641 -2.4292
 6315TIP3    H218910   2.352   0.980   2.315 -0.3660 -1.2968  2.0545
 6316TIP3   OH218911   3.690   0.490   4.572  0.5785  0.1227 -0.1242
 6316TIP3    H118912   3.617   0.512   4.631  0.8539 -0.2818  0.3771
 6316TIP3    H218913   3.758   0.554   4.592  0.3562  0.5194 -0.6140
 6317TIP3   OH218914   4.624   1.950   0.824 -0.5766 -0.0422 -0.1971
 6317TIP3    H118915   4.618   1.911   0.911  1.2411 -1.3160 -0.5890
 6317TIP3    H218916   4.717   1.944   0.802 -0.9254  0.7369 -2.0183
 6318TIP3   OH218917   6.716   4.247   1.098 -0.4861 -0.0741 -0.3210
 6318TIP3    H118918   6.659   4.277   1.027 -1.1301  1.5671  0.8267
 6318TIP3    H218919   6.746   4.327   1.140 -0.6600 -0.9925  1.6812
 6319TIP3   OH218920   3.977   2.792   2.232  0.2425 -0.1808  0.3890
 6319TIP3    H118921   4.062   2.828   2.204 -0.4282  0.3877 -1.0097
 6319TIP3    H218922   3.987   2.779   2.327  1.4669  1.0413  0.4645
 6320TIP3   OH218923   0.552   3.924   2.803  0.1705  0.3923  0.1794
 6320TIP3    H118924   0.551   3.863   2.729 -2.8029 -0.8222  1.1063
 6320TIP3    H218925   0.545   4.010   2.763 -0.6971 -0.1996 -1.0089
 6321TIP3   OH218926   7.144   1.736   2.519  0.1902 -0.1621  0.0796
 6321TIP3    H118927   7.160   1.792   2.442 -0.8390  0.7269  0.4784
 6321TIP3    H218928   7.150   1.796   2.593 -0.8962 -0.5805  0.5253
 6322TIP3   OH218929   0.699   2.635   4.139 -0.5417  1.0377  0.1242
 6322TIP3    H118930   0.730   2.585   4.214  0.3476 -0.6185 -1.2689
 6322TIP3    H218931   0.779   2.674   4.102 -0.8361  1.0681 -0.4898
 6323TIP3   OH218932   0.280   4.914   5.529  0.6390  0.5461  0.0031
 6323TIP3    H118933   0.314   4.906   5.440 -1.6567  1.1567 -0.9735
 6323TIP3    H218934   0.237   4.999   5.531  1.9544  1.2420  2.2175
 6324TIP3   OH218935   3.326   2.471   1.145  0.1073  0.2127  0.0250
 6324TIP3    H118936   3.284   2.557   1.146 -1.1689 -0.3638 -0.7616
 6324TIP3    H218937   3.253   2.409   1.146  0.8763 -0.8323 -2.1211
 6325TIP3   OH218938   3.752   0.556   5.636  0.1532 -0.0695 -0.0393
 6325TIP3    H118939   3.710   0.616   5.697  1.8487 -0.0866  1.2391
 6325TIP3    H218940   3.681   0.505   5.598 -0.9972  0.1548  1.7151
 6326TIP3   OH218941   2.714   1.932   4.292  0.7286  0.2471  0.0037
 6326TIP3    H118942   2.758   1.986   4.358  0.7585  0.4754 -0.1989
 6326TIP3    H218943   2.773   1.859   4.276  0.9145  0.4160 -0.0785
 6327TIP3   OH218944   7.080   5.136   0.468  0.1686 -0.1400  0.5287
 6327TIP3    H118945   7.030   5.055   0.475  0.4100 -0.1914  1.8386
 6327TIP3    H218946   7.015   5.206   0.482  0.3122 -0.1847  1.4877
 6328TIP3   OH218947   2.190   4.511   4.755  0.1639 -0.2912 -0.2685
 6328TIP3    H118948   2.148   4.466   4.829  2.1507 -0.8195  0.5963
 6328TIP3    H218949   2.196   4.602   4.783  2.3654 -0.7486  1.0192
 6329TIP3   OH218950   2.505   3.540   0.645 -0.2400  0.6141  0.1626
 6329TIP3    H118951   2.558   3.556   0.567  0.2015 -0.7409  0.1648
 6329TIP3    H218952   2.416   3.526   0.611  0.1969 -1.4198 -0.2894
 6330TIP3   OH218953   1.700   0.019   3.602  0.2721  0.3000  0.0200
 6330TIP3    H118954   1.779   0.066   3.576  1.4563 -2.2962 -1.5254
 6330TIP3    H218955   1.721  -0.017   3.689  0.3353  0.5866  0.1226
 6331TIP3   OH218956   6.030   2.958   5.647 -0.4649 -0.3688 -0.2267
 6331TIP3    H118957   6.089   2.955   5.722  0.6625 -0.5133 -1.0811
 6331TIP3    H218958   6.001   2.867   5.635 -0.9587 -0.2779  0.2652
 6332TIP3   OH218959   0.782   5.295   0.229 -0.0811 -0.4248 -0.1726
 6332TIP3    H118960   0.858   5.243   0.257  0.0048 -0.6685 -0.8315
 6332TIP3    H218961   0.810   5.336   0.148  0.3943  1.9293  1.0958
 6333TIP3   OH218962   6.958   5.013   0.151  0.0631 -0.7093  0.1410
 6333TIP3    H118963   7.047   5.005   0.185  0.3725  0.2752 -0.4023
 6333TIP3    H218964   6.936   5.105   0.164 -0.7461 -0.8690 -0.0675
 6334TIP3   OH218965   5.915   0.880   1.115 -0.1231 -0.0017  0.4161
 6334TIP3    H118966   5.911   0.786   1.096  0.4651  0.4549 -2.3852
 6334TIP3    H218967   5.857   0.892   1.189 -1.1345 -2.4198  0.1007
 6335TIP3   OH218968   2.123   2.542   0.260  0.2589  0.0016 -0.4462
 6335TIP3    H118969   2.161   2.498   0.184  1.0375 -0.3273  0.1196
 6335TIP3    H218970   2.047   2.489   0.283  0.9017 -0.7775 -0.0762
 6336TIP3   OH218971   2.802   6.053   4.513 -0.3178 -0.1876  0.2471
 6336TIP3    H118972   2.719   6.099   4.526  0.6027  1.2236  1.3989
 6336TIP3    H218973   2.834   6.035   4.602  0.8586 -0.2445 -0.1631
 6337TIP3   OH218974   5.253   0.071   5.351 -0.2864  0.1854  0.0972
 6337TIP3    H118975   5.283   0.032   5.433  1.6643  1.3760  0.0079
 6337TIP3    H218976   5.176   0.122   5.376 -0.3545 -0.3267  0.9753
 6338TIP3   OH218977   4.856   5.460   4.038  0.1528 -0.1869  0.3427
 6338TIP3    H118978   4.870   5.482   4.130  0.4246 -0.0130  0.2612
 6338TIP3    H218979   4.786   5.395   4.039  0.1700 -0.2008  0.6743
 6339TIP3   OH218980   4.510   5.697   4.667 -0.2452  0.2265  0.2079
 6339TIP3    H118981   4.596   5.719   4.630 -0.2925  0.3322  0.1592
 6339TIP3    H218982   4.530   5.651   4.749 -0.1080  2.5363  1.5676
 6340TIP3   OH218983   5.610   1.672   2.268 -0.3719 -0.2536 -0.3570
 6340TIP3    H118984   5.670   1.628   2.208  1.8083  1.4693  0.4253
 6340TIP3    H218985   5.580   1.749   2.220  1.7543  1.3989  0.7509
 6341TIP3   OH218986   1.009   0.187   4.988  0.6304  0.0047 -0.8846
 6341TIP3    H118987   0.982   0.279   4.995  0.7579  0.0830 -1.3979
 6341TIP3    H218988   1.019   0.158   5.079 -0.9769  0.0215 -0.6850
 6342TIP3   OH218989   3.150   1.542   0.451 -0.3744 -0.3587 -0.7234
 6342TIP3    H118990   3.220   1.479   0.436  1.4695  1.2091  0.6497
 6342TIP3    H218991   3.109   1.514   0.533  0.9033  0.5127  0.2650
 6343TIP3   OH218992   4.345   1.719   0.377  0.1925  0.3279  0.1546
 6343TIP3    H118993   4.382   1.797   0.418  1.4154  0.4111 -1.0543
 6343TIP3    H218994   4.321   1.663   0.451  1.4273  0.8902  1.0116
 6344TIP3   OH218995   3.080   2.950   3.388  0.1343 -0.7941  0.1509
 6344TIP3    H118996   3.159   2.973   3.435  0.0398 -2.1872  1.0403
 6344TIP3    H218997   3.014   2.935   3.456 -1.2741  1.4791 -0.5835
 6345TIP3   OH218998   3.510   5.729   3.280 -0.5644  0.3842  0.0580
 6345TIP3    H118999   3.518   5.713   3.186 -1.4463  1.3076 -0.1985
 6345TIP3    H219000   3.548   5.816   3.292 -1.8481  0.9450  0.2746
 6346TIP3   OH219001   0.999   3.239   1.616  0.5074 -0.0494 -0.1051
 6346TIP3    H119002   1.074   3.269   1.564 -0.2548  1.5821 -0.3283
 6346TIP3    H219003   1.013   3.277   1.702 -0.0890  0.3077 -0.1634
 6347TIP3   OH219004   3.971   4.577   3.754  0.0734  0.8675  0.9319
 6347TIP3    H119005   3.906   4.526   3.705 -0.9902 -0.1040  3.2173
 6347TIP3    H219006   4.056   4.541   3.726 -0.5438 -0.3444  0.5617
 6348TIP3   OH219007   1.139   2.762  -0.008 -0.1989 -0.4164  0.3217
 6348TIP3    H119008   1.093   2.790   0.071 -0.4085 -0.4001  0.1947
 6348TIP3    H219009   1.099   2.678  -0.031 -0.0009 -0.5189  0.3460
 6349TIP3   OH219010   2.970   2.482   5.584  0.3871  0.3758  0.2134
 6349TIP3    H119011   3.022   2.476   5.504  0.1114  1.0429 -0.0198
 6349TIP3    H219012   3.031   2.515   5.650  0.3260  0.9234 -0.0002
 6350TIP3   OH219013   0.909   0.967   5.103  0.1435  0.0217  0.5575
 6350TIP3    H119014   0.837   1.024   5.131 -1.1782 -1.6038  0.6641
 6350TIP3    H219015   0.945   1.009   5.025 -0.9066  0.8939  0.5259
 6351TIP3   OH219016   6.545   5.694   2.024  0.1767  0.6839  0.5881
 6351TIP3    H119017   6.520   5.673   1.934  0.2737  0.2991  0.6520
 6351TIP3    H219018   6.462   5.697   2.072  0.1407  0.7141  0.5247
 6352TIP3   OH219019   4.669   3.683   0.481 -0.2338 -0.0506  0.5720
 6352TIP3    H119020   4.764   3.695   0.486  0.1468 -0.8916 -2.5834
 6352TIP3    H219021   4.658   3.591   0.457 -1.6398  0.6728 -1.8705
 6353TIP3   OH219022   4.541   2.945   2.637  0.3854 -0.3204  0.1866
 6353TIP3    H119023   4.562   3.016   2.577  1.9438  0.4481  1.5537
 6353TIP3    H219024   4.588   2.967   2.717  0.1031 -2.4076  0.9812
 6354TIP3   OH219025   5.751   6.257   4.164 -1.0393  1.0114  0.0736
 6354TIP3    H119026   5.783   6.273   4.075 -0.2331  0.7801  0.3153
 6354TIP3    H219027   5.721   6.343   4.194  0.8436  1.6039  0.4113
 6355TIP3   OH219028   6.335   1.170   1.392  0.2480 -0.4665 -0.2452
 6355TIP3    H119029   6.371   1.149   1.478  1.3252 -0.2176 -0.6162
 6355TIP3    H219030   6.334   1.087   1.345 -1.2355 -0.7873  0.2999
 6356TIP3   OH219031   6.830   2.259   2.712 -0.6387  0.0394  0.5437
 6356TIP3    H119032   6.887   2.279   2.787 -0.2051  1.2497 -0.0796
 6356TIP3    H219033   6.760   2.205   2.748  0.2081 -0.3929  1.5852
 6357TIP3   OH219034   5.411   4.727   0.243  0.8522 -0.1867  0.1217
 6357TIP3    H119035   5.488   4.748   0.296  1.3815  3.3169 -1.7942
 6357TIP3    H219036   5.339   4.773   0.286  0.5045 -0.5563 -0.0569
 6358TIP3   OH219037   6.237   0.486   2.137  0.7310 -0.0725 -0.1749
 6358TIP3    H119038   6.245   0.444   2.051 -0.0872 -0.0452 -0.2733
 6358TIP3    H219039   6.158   0.539   2.130  1.6886  1.4112 -0.0167
 6359TIP3   OH219040   3.791   2.307   3.740  0.2570  0.2848 -1.1354
 6359TIP3    H119041   3.822   2.393   3.712 -0.1234  0.5584 -0.7356
 6359TIP3    H219042   3.746   2.272   3.663 -0.2462  0.7686 -1.0722
 6360TIP3   OH219043   5.084   4.713   0.665  0.3987 -0.4802 -0.6373
 6360TIP3    H119044   5.102   4.807   0.673  2.7542 -0.5739 -3.3256
 6360TIP3    H219045   5.009   4.707   0.607 -0.0204 -0.2839 -0.1258
 6361TIP3   OH219046   1.914   4.922   3.628 -0.1053  0.2781 -0.0023
 6361TIP3    H119047   1.832   4.934   3.580 -0.0469  0.2609 -0.1079
 6361TIP3    H219048   1.977   4.975   3.580  0.5386 -1.6647 -1.4457
 6362TIP3   OH219049   3.452   0.241   2.288 -0.0142 -0.8498  0.4086
 6362TIP3    H119050   3.492   0.247   2.202 -0.1497  0.2939  0.4096
 6362TIP3    H219051   3.479   0.156   2.321  3.5543  0.3287  0.9544
 6363TIP3   OH219052   1.038   1.610   2.348 -0.0364 -0.5375 -0.2889
 6363TIP3    H119053   1.040   1.702   2.375 -2.5973 -0.1305 -1.2793
 6363TIP3    H219054   1.113   1.601   2.289 -0.0935  1.0526 -0.6419
 6364TIP3   OH219055   4.974   1.762   4.788 -0.3597 -0.0610  0.1103
 6364TIP3    H119056   4.976   1.668   4.770  5.2073 -0.2364  0.1012
 6364TIP3    H219057   4.985   1.803   4.703 -0.5690  0.5338  0.3646
 6365TIP3   OH219058   1.363   4.692   1.701 -0.1912 -0.3956  0.2709
 6365TIP3    H119059   1.328   4.752   1.636 -1.0425  0.1492  1.1992
 6365TIP3    H219060   1.373   4.609   1.654  1.3066  0.5296 -1.0978
 6366TIP3   OH219061   4.639   2.122   3.545  0.4575 -0.6577  0.5004
 6366TIP3    H119062   4.640   2.183   3.619 -2.3734  0.3528 -0.1642
 6366TIP3    H219063   4.557   2.074   3.554 -0.7290  0.5201 -2.6690
 6367TIP3   OH219064   4.303   4.029   2.329 -0.1413 -0.0949 -0.1189
 6367TIP3    H119065   4.374   4.029   2.264  0.3292  0.4953  0.3919
 6367TIP3    H219066   4.259   3.945   2.316  1.1178 -0.7994  0.0575
 6368TIP3   OH219067   5.721   6.506   3.216  0.0129 -0.7778  0.4326
 6368TIP3    H119068   5.634   6.518   3.180  0.2000 -0.9700 -0.1049
 6368TIP3    H219069   5.774   6.479   3.140  0.4957 -0.8237  0.7842
 6369TIP3   OH219070   3.289   0.924   2.736 -0.4025  0.0902 -0.5352
 6369TIP3    H119071   3.331   0.970   2.663  0.1727 -1.0003 -0.9141
 6369TIP3    H219072   3.205   0.895   2.700 -0.6848  0.6616 -0.3529
 6370TIP3   OH219073   3.047   3.104   0.669 -0.6221  0.6379  0.0243
 6370TIP3    H119074   3.024   3.133   0.757 -2.3447  1.8338 -0.7778
 6370TIP3    H219075   3.032   3.010   0.670  0.3576  0.4585  1.2632
 6371TIP3   OH219076   3.891   0.611   0.990  0.0381 -0.1068  0.0748
 6371TIP3    H119077   3.866   0.545   1.055  1.6605  0.0280  0.9056
 6371TIP3    H219078   3.814   0.666   0.981 -1.3129 -2.0229 -0.5484
 6372TIP3   OH219079   3.812   1.755   4.038 -0.5939  0.0098  0.1509
 6372TIP3    H119080   3.728   1.727   4.002 -0.1268 -0.6296 -0.4664
 6372TIP3    H219081   3.876   1.731   3.971  0.3678 -1.6079  1.5878
 6373TIP3   OH219082   2.932   2.003   2.783 -0.1040  0.8005  0.3975
 6373TIP3    H119083   2.942   2.047   2.699 -1.4399  0.9842  0.3090
 6373TIP3    H219084   2.838   1.989   2.792  0.1742 -1.1589  0.8814
 6374TIP3   OH219085   1.949   2.365   4.312  0.3360 -0.1425  0.1253
 6374TIP3    H119086   1.922   2.412   4.391  1.0522 -0.4962  0.5979
 6374TIP3    H219087   1.902   2.281   4.317  0.6371 -0.3021  0.3633
 6375TIP3   OH219088   3.455   1.628   3.268 -0.5534  0.7416  0.3402
 6375TIP3    H119089   3.471   1.695   3.201 -0.0425  1.1042  0.8148
 6375TIP3    H219090   3.475   1.545   3.224 -0.8731  0.9221 -0.1564
 6376TIP3   OH219091   6.181   3.392   3.104 -0.2711 -0.4336 -0.0188
 6376TIP3    H119092   6.238   3.459   3.065  0.9421 -0.6383  1.3216
 6376TIP3    H219093   6.190   3.317   3.046  2.6244 -1.2183  1.2476
 6377TIP3   OH219094   5.509   0.145   2.087 -0.4587 -0.3382 -0.7586
 6377TIP3    H119095   5.472   0.134   2.175 -0.9931  1.1743 -0.7706
 6377TIP3    H219096   5.533   0.056   2.060 -1.4373 -0.9837  0.4020
 6378TIP3   OH219097   3.621   0.870   3.900 -0.3228  0.1471 -0.3538
 6378TIP3    H119098   3.606   0.778   3.920  1.7642 -0.5694 -1.7633
 6378TIP3    H219099   3.666   0.904   3.978 -2.6449  0.5183  0.9221
 6379TIP3   OH219100   6.642   4.774   5.774  0.1346  0.2154  0.1191
 6379TIP3    H119101   6.555   4.738   5.755 -0.8673  1.0426  2.6800
 6379TIP3    H219102   6.699   4.697   5.778 -0.1210 -0.2291 -2.9087
 6380TIP3   OH219103   5.185   2.939   5.575 -0.3040  0.5505  0.0019
 6380TIP3    H119104   5.224   2.858   5.606  0.7538 -0.1665 -2.8696
 6380TIP3    H219105   5.161   2.921   5.484 -0.3568  3.3311 -0.6291
 6381TIP3   OH219106   5.268   3.538   3.283 -0.2959  0.2328  0.6661
 6381TIP3    H119107   5.315   3.619   3.302 -1.6983  1.2643 -0.0734
 6381TIP3    H219108   5.247   3.544   3.190  0.9758 -1.7673  0.1844
 6382TIP3   OH219109   0.106   2.881   5.033 -0.1144  0.1443 -0.6298
 6382TIP3    H119110   0.125   2.890   4.940 -3.5141 -0.5859 -1.5493
 6382TIP3    H219111   0.153   2.802   5.060  0.3232 -0.0519 -1.8979
 6383TIP3   OH219112   5.688   1.990   1.773 -0.1975 -0.5645  0.4768
 6383TIP3    H119113   5.644   1.923   1.721 -1.5471  0.7187 -0.0779
 6383TIP3    H219114   5.769   1.948   1.801 -0.1949 -1.8652 -1.2810
 6384TIP3   OH219115   0.696   5.287   1.544  0.1854  0.0369  0.1419
 6384TIP3    H119116   0.744   5.218   1.497  1.0380  0.1376  0.8259
 6384TIP3    H219117   0.617   5.301   1.493  1.9135  1.4469 -2.3392
 6385TIP3   OH219118   2.409   5.803   5.117  0.6017  0.2019 -0.2654
 6385TIP3    H119119   2.477   5.750   5.076  0.4242 -0.6158  0.4672
 6385TIP3    H219120   2.343   5.740   5.145 -0.1402  0.9213 -0.3497
 6386TIP3   OH219121   1.309   1.863   5.335 -0.2270 -0.6582 -0.2226
 6386TIP3    H119122   1.392   1.829   5.302 -0.2656 -0.6747 -0.3020
 6386TIP3    H219123   1.252   1.786   5.338 -1.6675 -0.0027 -4.3815
 6387TIP3   OH219124   6.394   6.801   4.537 -0.1557 -0.0704 -0.3740
 6387TIP3    H119125   6.360   6.736   4.598 -0.4067 -0.8354 -1.3140
 6387TIP3    H219126   6.483   6.819   4.569 -0.1032 -0.8214 -0.0706
 6388TIP3   OH219127   0.640   5.308   5.154  0.2824  0.1437  0.0328
 6388TIP3    H119128   0.563   5.357   5.128 -1.2347 -2.1093 -0.0136
 6388TIP3    H219129   0.630   5.222   5.112  0.6683 -1.6480  3.2109
 6389TIP3   OH219130   4.650   6.135   0.318 -0.3282 -0.4052 -0.4104
 6389TIP3    H119131   4.589   6.159   0.249 -0.8487 -1.4481 -0.3401
 6389TIP3    H219132   4.703   6.064   0.281  2.1519  1.6501 -1.1250
 6390TIP3   OH219133   0.179   4.249   4.737  0.0741  0.5268  0.3115
 6390TIP3    H119134   0.153   4.176   4.794  0.1135 -0.0204 -0.3500
 6390TIP3    H219135   0.107   4.256   4.674  0.0618  1.0755  0.3890
 6391TIP3   OH219136   5.603   0.681   1.414  0.0306  0.5671  0.3082
 6391TIP3    H119137   5.581   0.671   1.322  1.9923  1.6362 -0.3310
 6391TIP3    H219138   5.529   0.730   1.451  0.5009  2.6928 -1.3799
 6392TIP3   OH219139   3.550   6.166   1.706 -0.6650 -0.2104  0.0532
 6392TIP3    H119140   3.630   6.214   1.729  0.2852 -1.1162 -1.2046
 6392TIP3    H219141   3.537   6.185   1.613 -1.4994 -0.6852  0.0625
 6393TIP3   OH219142   1.552   2.345   4.801  0.2114  0.3457 -0.5515
 6393TIP3    H119143   1.589   2.371   4.885  1.1757  1.4003 -1.2693
 6393TIP3    H219144   1.457   2.351   4.814  0.3198 -0.5451  0.7586
 6394TIP3   OH219145   5.361   2.112   0.425 -0.0573  0.1009  0.6444
 6394TIP3    H119146   5.363   2.199   0.466 -0.3897  0.1630  0.5357
 6394TIP3    H219147   5.268   2.098   0.404  0.1345  0.1819 -0.3223
 6395TIP3   OH219148   0.746   2.448   0.363 -0.4010  0.4280 -0.1596
 6395TIP3    H119149   0.802   2.399   0.303 -1.0854  0.2754 -0.6880
 6395TIP3    H219150   0.789   2.533   0.372  0.6652 -0.1636  0.5689
 6396TIP3   OH219151   1.942   0.480   1.318  0.4011 -0.0290 -0.2427
 6396TIP3    H119152   1.992   0.538   1.376  0.0127 -0.0494  0.1174
 6396TIP3    H219153   1.982   0.394   1.331 -0.4920 -0.2827  0.9625
 6397TIP3   OH219154   6.294   3.869   3.709  0.3727  0.2690 -0.2400
 6397TIP3    H119155   6.374   3.855   3.658  0.8146 -2.8804  1.0255
 6397TIP3    H219156   6.223   3.839   3.652  0.2072  1.7740 -0.8630
 6398TIP3   OH219157   1.513   1.197   2.383 -0.1717 -0.0063  0.1060
 6398TIP3    H119158   1.514   1.279   2.432 -1.4315  1.9131 -2.8347
 6398TIP3    H219159   1.421   1.175   2.375 -0.0161 -0.2113 -1.3915
 6399TIP3   OH219160   3.322   6.194   0.171  0.2314 -0.0061  0.4513
 6399TIP3    H119161   3.349   6.107   0.140  1.2659  0.5566 -0.2717
 6399TIP3    H219162   3.360   6.200   0.258  0.4697 -0.1376  0.3594
 6400TIP3   OH219163   2.959   1.774   4.857 -0.1826  0.7049  0.3052
 6400TIP3    H119164   2.930   1.721   4.931  0.9873 -1.7352 -0.8566
 6400TIP3    H219165   3.054   1.771   4.860 -0.1100  0.8856 -1.0547
 6401TIP3   OH219166   5.567   4.895   4.558 -0.5390  0.2010  0.3642
 6401TIP3    H119167   5.595   4.960   4.493 -2.0257  0.2185 -0.3013
 6401TIP3    H219168   5.490   4.854   4.519 -1.2454 -0.0636  1.9575
 6402TIP3   OH219169   3.131   1.313   2.435 -0.1786 -0.1237  0.6066
 6402TIP3    H119170   3.124   1.231   2.483 -1.0021 -0.1854  0.4071
 6402TIP3    H219171   3.076   1.300   2.358 -0.6902  0.7681  0.8051
 6403TIP3   OH219172   5.618   1.946   5.824 -0.8252 -0.2232 -0.1976
 6403TIP3    H119173   5.697   1.932   5.772 -1.8482 -2.3211 -1.2693
 6403TIP3    H219174   5.575   2.021   5.783 -0.5320 -0.4981 -1.0106
 6404TIP3   OH219175   6.238   0.615   4.132 -0.2491 -0.2225  0.6582
 6404TIP3    H119176   6.320   0.596   4.177 -0.9266  0.3585  2.2069
 6404TIP3    H219177   6.193   0.530   4.127 -0.4697 -0.1860  1.7527
 6405TIP3   OH219178   6.705   3.091   3.396 -0.0260 -0.3141 -0.3429
 6405TIP3    H119179   6.754   3.101   3.477  0.8517 -2.4574 -0.5234
 6405TIP3    H219180   6.615   3.110   3.420  0.4311  0.5195  0.7823
 6406TIP3   OH219181   5.232   0.146   4.716  0.6620 -0.0847  0.0951
 6406TIP3    H119182   5.220   0.074   4.654  0.2022  1.0806 -1.2126
 6406TIP3    H219183   5.319   0.181   4.696  0.3576  0.5374 -0.1691
 6407TIP3   OH219184   6.840   5.976   4.951  0.0055  0.1895 -0.4948
 6407TIP3    H119185   6.819   5.942   5.038  0.3167  0.1490 -0.4334
 6407TIP3    H219186   6.936   5.972   4.947 -0.0544 -1.7664 -1.6120
 6408TIP3   OH219187   5.497   2.748   5.269  0.1178  0.4705 -0.6028
 6408TIP3    H119188   5.588   2.768   5.290  0.4298  0.0541 -1.5133
 6408TIP3    H219189   5.500   2.710   5.181 -0.6987 -1.3330  0.0952
 6409TIP3   OH219190   5.744   3.973   3.988 -0.0244  0.2851 -0.0539
 6409TIP3    H119191   5.677   4.029   3.948 -2.5109 -1.8884  0.7356
 6409TIP3    H219192   5.787   3.931   3.914  0.0991  1.2979 -0.5754
 6410TIP3   OH219193   1.054   0.091   0.128  0.3652  0.3608 -1.0986
 6410TIP3    H119194   0.973   0.130   0.161 -0.2544  0.6989 -2.9218
 6410TIP3    H219195   1.118   0.105   0.198 -1.1084  0.1851  0.3302
 6411TIP3   OH219196   4.582   3.359   3.228  0.1250 -0.1823 -0.1392
 6411TIP3    H119197   4.561   3.351   3.321  0.0227  1.9499  0.0757
 6411TIP3    H219198   4.677   3.374   3.226  0.1827 -0.5840 -0.4082
 6412TIP3   OH219199   3.824   5.897   3.582  0.5636 -0.6347  0.5606
 6412TIP3    H119200   3.814   5.984   3.619  2.2811 -0.7086  1.2768
 6412TIP3    H219201   3.755   5.845   3.623 -1.3867  0.6704 -0.9353
 6413TIP3   OH219202   3.587   0.164   3.962  0.0962  0.7040  0.5207
 6413TIP3    H119203   3.553   0.135   3.877 -0.9399  0.1043  1.1287
 6413TIP3    H219204   3.652   0.097   3.985 -0.8368 -0.0522  0.9788
 6414TIP3   OH219205   7.018   0.724   0.854 -0.1857  0.1986  1.0324
 6414TIP3    H119206   7.095   0.759   0.808  0.9381 -1.3192  1.6647
 6414TIP3    H219207   7.055   0.660   0.914 -2.0716 -1.3158  0.6289
 6415TIP3   OH219208   5.997   2.162   0.717  0.1176  0.0162 -0.5446
 6415TIP3    H119209   6.079   2.179   0.670  0.2266 -0.9291 -0.7086
 6415TIP3    H219210   5.950   2.099   0.663 -1.3658  1.5567 -1.1408
 6416TIP3   OH219211   1.869   5.992   3.417  0.2723  0.5373 -0.1082
 6416TIP3    H119212   1.963   5.978   3.412  0.2703  0.0166  0.9086
 6416TIP3    H219213   1.860   6.075   3.463  0.2317  0.8754 -0.7174
 6417TIP3   OH219214   2.701   1.732   0.320 -0.1116 -0.3735 -0.4405
 6417TIP3    H119215   2.669   1.666   0.259 -0.4586 -0.2181 -0.4268
 6417TIP3    H219216   2.796   1.721   0.319 -0.1260 -0.4896 -0.8784
 6418TIP3   OH219217   5.320   0.744   5.032  0.0661 -0.0076  0.4829
 6418TIP3    H119218   5.410   0.755   5.063  0.9999  0.1798 -2.0323
 6418TIP3    H219219   5.320   0.660   4.987 -0.8629  0.2567 -0.0376
 6419TIP3   OH219220   1.479   1.288   4.068 -0.7287 -0.3245 -0.0349
 6419TIP3    H119221   1.427   1.276   4.147  0.7106  0.1391  1.0094
 6419TIP3    H219222   1.557   1.233   4.081 -0.9154 -1.0277 -1.5713
 6420TIP3   OH219223   1.143   6.132   0.932 -0.3500  0.0038  0.3909
 6420TIP3    H119224   1.113   6.062   0.874  1.9804 -0.3148 -0.5110
 6420TIP3    H219225   1.126   6.213   0.883 -0.4382 -0.1111  0.2311
 6421TIP3   OH219226   1.915   1.864   1.648 -0.0664 -0.2465 -0.2189
 6421TIP3    H119227   1.832   1.900   1.679  0.9718  1.7636  0.4067
 6421TIP3    H219228   1.939   1.919   1.573  1.2168 -0.0737  0.2925
 6422TIP3   OH219229   6.471   0.448   0.986 -0.1463 -0.0272 -0.2851
 6422TIP3    H119230   6.474   0.412   1.075 -0.8874  0.8511  0.1094
 6422TIP3    H219231   6.387   0.492   0.980  0.4403  1.0565 -0.9823
 6423TIP3   OH219232   3.302   4.925   0.221 -0.1398 -0.7120  0.3718
 6423TIP3    H119233   3.266   5.013   0.207  1.4514 -0.3135 -1.8972
 6423TIP3    H219234   3.352   4.932   0.303  0.1814  0.6142  0.0871
 6424TIP3   OH219235   3.910   2.036   4.150  0.5237  0.3676  0.0359
 6424TIP3    H119236   4.001   2.029   4.122  0.8095 -0.3598  1.0669
 6424TIP3    H219237   3.862   1.975   4.093  0.7319  0.5028 -0.2841
 6425TIP3   OH219238   5.480   1.334   4.594  0.8063 -0.6377  0.2589
 6425TIP3    H119239   5.433   1.312   4.675  0.3693 -1.3654 -0.1874
 6425TIP3    H219240   5.484   1.430   4.594 -0.0254 -0.5966  0.6746
 6426TIP3   OH219241   0.940   0.734   0.775 -0.3018  0.0576 -0.0465
 6426TIP3    H119242   0.934   0.694   0.862  0.1256 -1.4473 -0.6704
 6426TIP3    H219243   1.033   0.751   0.763 -0.1413 -1.1834 -0.7880
 6427TIP3   OH219244   0.742   3.753   5.681  0.5883  0.2099 -0.6630
 6427TIP3    H119245   0.765   3.838   5.643  0.7792  0.8659  0.8633
 6427TIP3    H219246   0.651   3.762   5.708  0.8333  0.1893  0.1865
 6428TIP3   OH219247   1.339   1.692   2.532  0.7289 -0.3637  0.0943
 6428TIP3    H119248   1.307   1.760   2.473  0.3679 -1.5042 -1.0841
 6428TIP3    H219249   1.302   1.715   2.617  1.5884  1.5409 -0.0082
 6429TIP3   OH219250   7.109   0.169   3.106  0.6138 -0.5754  0.0310
 6429TIP3    H119251   7.055   0.219   3.044  2.8055  2.1897  0.1444
 6429TIP3    H219252   7.048   0.143   3.175 -1.5436 -2.1560 -2.2716
 6430TIP3   OH219253   3.845   2.582   3.779  0.0570  0.6053 -0.3472
 6430TIP3    H119254   3.843   2.634   3.860  0.8380  1.1148 -0.6450
 6430TIP3    H219255   3.772   2.616   3.727 -0.3454  0.3890  0.0676
 6431TIP3   OH219256   3.277   4.636   4.977 -0.4957 -0.0872 -0.6000
 6431TIP3    H119257   3.200   4.600   4.935 -1.3039 -0.2244  0.9031
 6431TIP3    H219258   3.350   4.585   4.943 -1.1515 -0.4650 -1.4719
 6432TIP3   OH219259   7.040   2.232   4.298 -0.0116  0.1794 -0.2447
 6432TIP3    H119260   7.123   2.204   4.261  0.7064  1.1839  0.5319
 6432TIP3    H219261   7.063   2.268   4.384 -1.3548 -0.2879  0.3466
 6433TIP3   OH219262   1.409   2.795   3.788  0.1272  0.2644  0.6207
 6433TIP3    H119263   1.365   2.710   3.791 -0.6957  0.6508  3.6550
 6433TIP3    H219264   1.482   2.786   3.851 -0.8170  2.1340  2.0804
 6434TIP3   OH219265   1.715   4.879   0.425  0.2613 -0.0271  0.1290
 6434TIP3    H119266   1.791   4.937   0.419 -0.1926  0.5302 -0.2398
 6434TIP3    H219267   1.686   4.868   0.334 -0.9506  0.8868  0.3943
 6435TIP3   OH219268   6.150   0.626   1.764 -0.3494 -0.0176  0.0060
 6435TIP3    H119269   6.215   0.585   1.821 -1.6348 -0.5147  1.1585
 6435TIP3    H219270   6.074   0.569   1.769 -1.4326  1.3774 -0.0559
 6436TIP3   OH219271   0.840   3.910   2.060 -0.2978  0.0469 -0.1175
 6436TIP3    H119272   0.748   3.898   2.036 -0.9081  1.9841  1.0339
 6436TIP3    H219273   0.882   3.941   1.979 -0.9985  0.5757 -0.2896
 6437TIP3   OH219274   0.769   2.153   4.242  0.1085  0.9631  0.2495
 6437TIP3    H119275   0.784   2.191   4.156 -1.6712  0.3213 -0.3792
 6437TIP3    H219276   0.753   2.060   4.225  1.6404  0.4262  1.4846
 6438TIP3   OH219277   0.373   6.632   1.541 -0.0883  0.5685 -0.0556
 6438TIP3    H119278   0.374   6.673   1.628  1.3331  2.0421 -0.7110
 6438TIP3    H219279   0.322   6.692   1.487 -0.4873 -0.0530 -0.3841
 6439TIP3   OH219280   1.897   6.105   0.777 -0.0395  0.1202  0.0251
 6439TIP3    H119281   1.909   6.199   0.764 -1.1070  0.2823  0.2014
 6439TIP3    H219282   1.803   6.092   0.783  0.0215 -1.1045 -1.0606
 6440TIP3   OH219283   2.138   6.669   4.914  0.7613 -0.2293 -0.1134
 6440TIP3    H119284   2.189   6.733   4.864  1.6629 -2.5188 -2.4004
 6440TIP3    H219285   2.047   6.688   4.893  0.8748  1.3892  0.7368
 6441TIP3   OH219286   7.052   4.497   2.257 -0.6528  0.1520  0.6280
 6441TIP3    H119287   7.082   4.539   2.176 -1.4898  0.0863  0.2728
 6441TIP3    H219288   7.132   4.465   2.298 -0.3336 -1.4592 -1.0948
 6442TIP3   OH219289   2.222   1.726   4.087 -0.1083 -0.4885  0.7787
 6442TIP3    H119290   2.260   1.762   4.007 -1.6447 -2.1016 -0.7777
 6442TIP3    H219291   2.252   1.784   4.157  0.8199  1.3239 -1.0346
 6443TIP3   OH219292   3.490   4.147   0.317  0.0557  0.0099  0.3246
 6443TIP3    H119293   3.549   4.221   0.299 -1.8894  1.3656 -0.9641
 6443TIP3    H219294   3.516   4.080   0.255  1.1849 -0.0359  0.8104
 6444TIP3   OH219295   2.465   3.007   1.415  0.2377  0.1928  0.0698
 6444TIP3    H119296   2.539   2.968   1.461 -0.1779 -0.9016 -0.1561
 6444TIP3    H219297   2.398   2.938   1.414 -0.9024  1.2510  0.5277
 6445TIP3   OH219298   0.171   5.445   0.355  0.1687  0.6407 -0.7393
 6445TIP3    H119299   0.117   5.521   0.376 -2.6867 -1.1379 -1.0921
 6445TIP3    H219300   0.245   5.481   0.306  0.6280  3.4852  1.7896
 6446TIP3   OH219301   4.828   6.520   1.080  0.0014  0.4933  0.4272
 6446TIP3    H119302   4.774   6.594   1.106 -0.9520 -0.2374  0.5886
 6446TIP3    H219303   4.854   6.540   0.990 -1.7507  0.2083 -0.1806
 6447TIP3   OH219304   0.765   5.895   4.988  0.1061 -0.1765  0.0533
 6447TIP3    H119305   0.673   5.900   5.015  0.4373  0.0775  1.1924
 6447TIP3    H219306   0.776   5.967   4.925 -0.3762  0.0561  0.2319
 6448TIP3   OH219307   0.462   0.248   1.020 -0.2449 -0.0196  0.4692
 6448TIP3    H119308   0.520   0.302   1.073 -0.9583  0.0219  1.2277
 6448TIP3    H219309   0.400   0.212   1.083  0.5917 -2.2569  0.1026
 6449TIP3   OH219310   6.338   5.949   5.514 -0.0675  0.5514  0.0880
 6449TIP3    H119311   6.347   5.854   5.520 -0.2082  0.6134  1.6210
 6449TIP3    H219312   6.334   5.967   5.420  2.9496 -0.6484 -0.3728
 6450TIP3   OH219313   3.549   6.802   3.191 -0.3528 -0.5310  0.1734
 6450TIP3    H119314   3.510   6.728   3.238 -1.3488  1.7424  3.2128
 6450TIP3    H219315   3.637   6.771   3.168  0.3180 -1.8333  3.8004
 6451TIP3   OH219316   3.649   0.482   3.404  0.5276 -0.1325  0.0169
 6451TIP3    H119317   3.595   0.552   3.440  1.2211  0.6888 -0.4771
 6451TIP3    H219318   3.738   0.519   3.403  0.8396 -0.8651 -0.6422
 6452TIP3   OH219319   1.621   1.798   3.880 -0.0326 -0.5182 -0.0898
 6452TIP3    H119320   1.570   1.717   3.882  1.4329 -1.4692  2.0314
 6452TIP3    H219321   1.699   1.776   3.829 -0.3655  0.0585 -0.8622
 6453TIP3   OH219322   4.428   2.808   1.574 -0.1015  0.6426 -0.2434
 6453TIP3    H119323   4.416   2.837   1.483 -0.8015  0.3706 -0.2478
 6453TIP3    H219324   4.352   2.752   1.591  0.6250 -0.2591  0.1367
 6454TIP3   OH219325   2.556   6.320   5.540  0.4451  0.5643  0.4851
 6454TIP3    H119326   2.472   6.364   5.545 -0.2977 -0.7862  0.2679
 6454TIP3    H219327   2.537   6.234   5.502  2.1019  0.6948 -0.7850
 6455TIP3   OH219328   0.086   1.778   3.582  0.4323  0.1782 -0.1015
 6455TIP3    H119329   0.159   1.716   3.588  0.5438  0.4199  1.6467
 6455TIP3    H219330   0.096   1.834   3.659 -2.3416 -0.6304  0.9789
 6456TIP3   OH219331   0.836   6.653   4.727 -0.7276  0.2015  0.7316
 6456TIP3    H119332   0.892   6.728   4.708 -1.8306  0.9753  0.4630
 6456TIP3    H219333   0.768   6.688   4.785 -0.7414 -0.8073  1.3575
 6457TIP3   OH219334   3.834   3.096   2.175  0.0268  0.4452 -0.5589
 6457TIP3    H119335   3.918   3.137   2.192 -0.2291  1.3427 -1.3908
 6457TIP3    H219336   3.844   3.053   2.091 -0.7811  1.8511 -1.4123
 6458TIP3   OH219337   2.840   6.195   1.830 -0.7637 -0.6114 -0.5036
 6458TIP3    H119338   2.820   6.287   1.812 -0.6645 -0.5793 -0.4540
 6458TIP3    H219339   2.872   6.161   1.747 -2.3025 -1.0237 -0.9585
 6459TIP3   OH219340   0.691   4.682   2.457 -0.1777 -0.0662  0.1297
 6459TIP3    H119341   0.758   4.749   2.471 -0.9490  0.5470  1.0895
 6459TIP3    H219342   0.609   4.731   2.452 -0.6332 -0.8555 -0.3187
 6460TIP3   OH219343   7.021   1.727   0.574  0.0694  0.1587 -0.0485
 6460TIP3    H119344   7.038   1.676   0.653  1.4132 -0.2310 -0.5823
 6460TIP3    H219345   7.038   1.668   0.502  0.6302  1.0488 -0.6636
 6461TIP3   OH219346   6.230   2.568   3.182 -0.6298 -0.3548  0.0580
 6461TIP3    H119347   6.137   2.584   3.201 -0.2624  0.0626  1.6125
 6461TIP3    H219348   6.267   2.540   3.265  0.6882 -0.3829 -0.5179
 6462TIP3   OH219349   6.392   0.895   5.176 -0.2765  0.1763  0.3037
 6462TIP3    H119350   6.436   0.980   5.180  1.9116 -0.7085 -1.8037
 6462TIP3    H219351   6.321   0.908   5.112  0.2420  0.3834 -0.2465
 6463TIP3   OH219352   6.390   1.488   0.714 -0.1866 -0.2480 -0.0880
 6463TIP3    H119353   6.468   1.543   0.723 -0.5524  0.1049  1.0561
 6463TIP3    H219354   6.318   1.542   0.747 -0.7215 -1.0198  0.0306
 6464TIP3   OH219355   6.166   4.253   5.516  0.6564  0.5129  0.0530
 6464TIP3    H119356   6.233   4.208   5.465  0.6204 -0.2847  0.6951
 6464TIP3    H219357   6.210   4.330   5.552  1.1797  0.1014  0.3094
 6465TIP3   OH219358   6.079   4.748   2.920 -0.1770  0.0337  0.6275
 6465TIP3    H119359   6.107   4.837   2.943 -0.5556  0.7379 -1.4828
 6465TIP3    H219360   6.138   4.722   2.850 -0.8541 -0.9193  0.3921
 6466TIP3   OH219361   5.505   3.479   1.441 -0.0901 -0.1127  0.6342
 6466TIP3    H119362   5.504   3.497   1.535  1.5865  0.6654  0.5298
 6466TIP3    H219363   5.543   3.391   1.433  0.4284  0.1106  0.6457
 6467TIP3   OH219364   4.568   4.258   1.615 -0.2397  0.2536  0.0973
 6467TIP3    H119365   4.577   4.346   1.579 -3.9173 -0.2111 -2.4245
 6467TIP3    H219366   4.612   4.202   1.551 -0.0364  0.0493  0.4146
 6468TIP3   OH219367   5.056   1.464   2.134  0.6015  0.0752  0.3824
 6468TIP3    H119368   5.049   1.464   2.039  1.3971  0.6009  0.3202
 6468TIP3    H219369   5.026   1.551   2.161  0.1810 -0.1419  0.6349
 6469TIP3   OH219370   0.672   2.134   2.997 -0.7145 -0.0180  0.4155
 6469TIP3    H119371   0.693   2.095   2.912  1.0752  0.8316  0.4259
 6469TIP3    H219372   0.577   2.139   2.998 -0.8925 -2.1711 -0.5633
 6470TIP3   OH219373   3.108   3.784   2.768  0.7399  0.3225 -0.0474
 6470TIP3    H119374   3.163   3.711   2.797  0.8137 -0.6960 -2.4748
 6470TIP3    H219375   3.061   3.750   2.691 -1.5244  1.9123  0.5268
 6471TIP3   OH219376   1.584   0.555   5.597  0.2423  0.3216 -0.1025
 6471TIP3    H119377   1.649   0.506   5.546 -1.3372 -0.1288 -1.7682
 6471TIP3    H219378   1.578   0.640   5.553  0.0851  0.5659  0.3802
 6472TIP3   OH219379   1.415   0.976   3.196  0.0909 -0.6072  0.0883
 6472TIP3    H119380   1.391   0.954   3.107  0.2974  2.1246 -0.7500
 6472TIP3    H219381   1.349   1.040   3.224  1.4840  0.5746  0.8513
 6473TIP3   OH219382   4.191   2.258   4.190  0.3834  0.6843 -0.0202
 6473TIP3    H119383   4.196   2.342   4.237 -0.5080 -0.3243  1.9665
 6473TIP3    H219384   4.099   2.249   4.167  0.8587  1.4268 -2.6654
 6474TIP3   OH219385   5.181   5.787   4.088  0.3934 -0.1046  0.2692
 6474TIP3    H119386   5.274   5.786   4.066 -0.1164  1.2657 -2.4558
 6474TIP3    H219387   5.163   5.877   4.115 -0.3723  0.0498 -0.6793
 6475TIP3   OH219388   4.388   0.348   3.337  0.2783 -0.5523 -0.6638
 6475TIP3    H119389   4.370   0.311   3.251 -2.0882  1.7358 -1.2587
 6475TIP3    H219390   4.338   0.293   3.398  0.7652 -1.2666 -0.8961
 6476TIP3   OH219391   5.312   3.121   2.653 -0.4838 -0.2837 -0.1262
 6476TIP3    H119392   5.403   3.104   2.627 -0.5487  1.5328 -1.7041
 6476TIP3    H219393   5.261   3.054   2.608  0.0519 -1.5332  1.0402
 6477TIP3   OH219394   5.492   0.230   4.653  0.5376 -0.4194  0.2603
 6477TIP3    H119395   5.575   0.239   4.699  0.8562  0.2824 -0.4292
 6477TIP3    H219396   5.508   0.269   4.567  0.0575 -1.9847 -0.5804
 6478TIP3   OH219397   5.270   3.265   2.904 -0.0915  0.3255 -0.1163
 6478TIP3    H119398   5.326   3.236   2.832 -0.7659  1.0973 -0.9809
 6478TIP3    H219399   5.260   3.188   2.960  0.2603 -0.3547 -0.9697
 6479TIP3   OH219400   3.896   5.320   5.293 -0.5277 -0.9615  0.0919
 6479TIP3    H119401   3.875   5.229   5.311 -1.8935 -0.4018  1.5508
 6479TIP3    H219402   3.813   5.367   5.304  0.1036  0.4501 -0.7933
 6480TIP3   OH219403   2.775   1.485   1.980 -0.2900  0.6652 -0.6613
 6480TIP3    H119404   2.736   1.521   2.059 -0.9922  0.1085 -0.7522
 6480TIP3    H219405   2.792   1.561   1.925  2.3065  1.3431  0.8957
 6481TIP3   OH219406   0.690   1.499   0.209  0.2906 -0.1716 -0.5945
 6481TIP3    H119407   0.724   1.586   0.232  0.4512 -0.7895  1.7936
 6481TIP3    H219408   0.595   1.511   0.209  0.1426 -0.5170  2.6304
 6482TIP3   OH219409   4.203   5.315   3.111  0.0296  0.3245  0.0184
 6482TIP3    H119410   4.223   5.226   3.083  0.0568  0.9950 -2.3636
 6482TIP3    H219411   4.279   5.366   3.082 -0.9619  1.4461 -0.7282
 6483TIP3   OH219412   3.759   2.754   4.699  0.5459 -0.1093 -0.0306
 6483TIP3    H119413   3.843   2.738   4.742  0.8198 -0.6171 -0.7393
 6483TIP3    H219414   3.781   2.766   4.606 -0.1058  0.2895 -0.1436
 6484TIP3   OH219415   1.473   3.521   2.091 -0.2722 -0.1331  0.3000
 6484TIP3    H119416   1.414   3.459   2.134  0.2382 -0.9559 -0.1572
 6484TIP3    H219417   1.539   3.540   2.158  0.2408 -1.0301  0.0775
 6485TIP3   OH219418   6.425   4.856   1.868 -0.6792  0.8296 -0.1092
 6485TIP3    H119419   6.362   4.880   1.800 -0.3096 -3.3414 -2.2569
 6485TIP3    H219420   6.385   4.781   1.912  1.1551  0.4861  1.0690
 6486TIP3   OH219421   4.432   6.009   1.515  0.4838 -0.5133 -0.1036
 6486TIP3    H119422   4.512   6.002   1.464  0.5238 -0.7660 -0.0068
 6486TIP3    H219423   4.459   6.050   1.598  0.3602  0.2263 -0.4158
 6487TIP3   OH219424   1.923   1.521   2.582  0.0896 -0.5157 -0.5482
 6487TIP3    H119425   1.900   1.607   2.548 -0.0893 -0.1421  0.4794
 6487TIP3    H219426   1.841   1.472   2.581 -0.1487 -0.1560  0.3170
 6488TIP3   OH219427   4.309   5.891   1.039  0.9379  0.7530  0.2562
 6488TIP3    H119428   4.368   5.904   1.113 -0.0344  1.3847  0.9331
 6488TIP3    H219429   4.281   5.800   1.047  1.9237  0.3910 -0.1726
 6489TIP3   OH219430   1.605   6.075   0.808  0.0219 -0.5206  0.7994
 6489TIP3    H119431   1.514   6.057   0.832  0.2247 -3.1988 -0.1351
 6489TIP3    H219432   1.655   6.003   0.848  1.3279 -0.7469 -1.1263
 6490TIP3   OH219433   1.666   6.648   5.796 -0.0110 -0.2423 -0.1532
 6490TIP3    H119434   1.704   6.632   5.710 -1.1322 -1.2679 -0.4816
 6490TIP3    H219435   1.739   6.681   5.849  0.4464  1.5697 -1.7839
 6491TIP3   OH219436   2.326   4.975   3.148 -0.2489 -0.3802 -0.0496
 6491TIP3    H119437   2.402   5.023   3.113 -0.9853  1.0148  0.2215
 6491TIP3    H219438   2.357   4.939   3.232  0.1016  0.2035  0.0734
 6492TIP3   OH219439   2.633   3.957   4.375  0.0876  0.1931 -0.3633
 6492TIP3    H119440   2.693   4.014   4.422  0.3220  0.4988 -1.0158
 6492TIP3    H219441   2.546   3.982   4.405  0.2712 -0.2329  0.5681
 6493TIP3   OH219442   4.578   2.471   3.057 -0.0226  0.5342  0.9134
 6493TIP3    H119443   4.578   2.513   2.971 -0.8439 -0.1447  0.5745
 6493TIP3    H219444   4.489   2.485   3.091  0.1655  0.4173  1.4648
 6494TIP3   OH219445   3.743   1.443   4.830 -0.1628 -0.1421 -0.0577
 6494TIP3    H119446   3.827   1.476   4.797  0.1073 -0.8262 -0.0749
 6494TIP3    H219447   3.727   1.363   4.779 -0.0798 -0.8336  0.9724
 6495TIP3   OH219448   0.190   0.832   4.655 -0.0435 -0.0557  0.5725
 6495TIP3    H119449   0.096   0.845   4.643  0.0993 -0.4730 -1.3042
 6495TIP3    H219450   0.201   0.816   4.749 -1.6300  1.6145  1.1015
 6496TIP3   OH219451   5.621   2.051   5.209 -0.3145 -0.4374  0.1849
 6496TIP3    H119452   5.580   2.026   5.292  0.1622  2.4461  1.3973
 6496TIP3    H219453   5.712   2.069   5.232 -0.1424  0.2667 -1.0111
 6497TIP3   OH219454   4.734   2.464   4.797 -1.1359  0.6639 -0.3138
 6497TIP3    H119455   4.743   2.556   4.772  2.8095  0.8563  1.1372
 6497TIP3    H219456   4.696   2.467   4.885  0.3854  1.0544  0.3528
 6498TIP3   OH219457   5.856   6.629   1.566  0.1099  0.4778  0.2722
 6498TIP3    H119458   5.852   6.703   1.627  1.5697  2.2103 -1.5972
 6498TIP3    H219459   5.945   6.632   1.531 -0.4695 -0.8690 -1.4263
 6499TIP3   OH219460   2.841   2.600   3.944  0.1083  0.7158  0.5617
 6499TIP3    H119461   2.819   2.570   4.033  0.8757  1.1744  0.9171
 6499TIP3    H219462   2.935   2.617   3.948 -0.0796  1.9531  0.0184
 6500TIP3   OH219463   1.484   1.883   0.412  0.2843 -0.7103 -0.2260
 6500TIP3    H119464   1.406   1.914   0.460 -1.4064 -1.0887 -2.5915
 6500TIP3    H219465   1.528   1.825   0.474  0.2941  1.6505  2.2033
 6501TIP3   OH219466   5.427   3.123   1.864 -0.0376  0.1020 -0.9774
 6501TIP3    H119467   5.399   3.170   1.786  0.0251  0.2902 -0.8867
 6501TIP3    H219468   5.503   3.073   1.836  1.4835  2.0012 -0.4791
 6502TIP3   OH219469   0.384   4.027   0.387 -0.5196 -0.1051 -0.2944
 6502TIP3    H119470   0.372   4.007   0.480 -1.1978 -0.2413 -0.4048
 6502TIP3    H219471   0.439   4.105   0.386 -0.0572 -0.4201  0.2078
 6503TIP3   OH219472   0.647   2.846   2.339 -0.2703  0.2897 -0.0514
 6503TIP3    H119473   0.651   2.930   2.294  0.0603  0.9058  1.0966
 6503TIP3    H219474   0.554   2.822   2.335 -0.4575  0.9716  0.0745
 6504TIP3   OH219475   3.916   6.226   5.435  0.0075 -0.3901  0.2126
 6504TIP3    H119476   3.848   6.163   5.462 -0.7343 -0.3910 -1.5449
 6504TIP3    H219477   3.867   6.306   5.416  0.4319 -0.5029 -1.4378
 6505TIP3   OH219478   5.500   0.521   4.663  0.1822  0.2098  0.2973
 6505TIP3    H119479   5.552   0.588   4.619  0.9677 -1.8789 -2.2300
 6505TIP3    H219480   5.409   0.541   4.639  0.4253  0.2599 -0.6035
 6506TIP3   OH219481   4.358   1.969   2.184 -0.3472  0.2427  0.2553
 6506TIP3    H119482   4.414   1.965   2.106  0.2683  0.7500  0.6566
 6506TIP3    H219483   4.414   1.937   2.255 -1.1315 -0.8993  0.3780
 6507TIP3   OH219484   4.080   3.315   5.225 -0.3712  0.4423 -0.4945
 6507TIP3    H119485   4.167   3.335   5.262 -0.5422 -1.4037  1.0470
 6507TIP3    H219486   4.098   3.257   5.152 -0.2795  0.7510 -0.7219
 6508TIP3   OH219487   6.802   2.376   2.986  0.4275 -0.0399 -0.2001
 6508TIP3    H119488   6.775   2.294   3.027  0.1493 -1.0943 -2.3146
 6508TIP3    H219489   6.897   2.373   2.986  0.4345  0.0771  0.5400
 6509TIP3   OH219490   5.995   3.145   5.297  0.1861 -0.4084 -0.5818
 6509TIP3    H119491   5.922   3.172   5.241 -1.0410 -0.1132  1.0652
 6509TIP3    H219492   6.008   3.220   5.355  0.5547 -1.1841  0.3503
 6510TIP3   OH219493   5.594   1.978   4.546 -0.1166 -0.3335 -0.3990
 6510TIP3    H119494   5.643   1.937   4.618 -1.1185 -1.1331 -0.1512
 6510TIP3    H219495   5.598   1.914   4.475  0.3583  0.1964 -0.8610
 6511TIP3   OH219496   1.722   6.095   1.323 -0.0016  0.2251 -0.3119
 6511TIP3    H119497   1.770   6.012   1.330 -0.7404 -0.1309  1.0401
 6511TIP3    H219498   1.748   6.144   1.401  2.3753  2.4214 -2.3024
 6512TIP3   OH219499   6.201   3.022   0.107  0.3955 -0.2459  0.7406
 6512TIP3    H119500   6.163   2.936   0.088  0.7090 -0.0838 -0.6971
 6512TIP3    H219501   6.128   3.083   0.095  0.9404  0.0150 -1.5467
 6513TIP3   OH219502   6.755   5.067   1.028 -0.6040 -0.2942 -0.7253
 6513TIP3    H119503   6.700   5.072   1.106  0.3974  1.4074 -0.0657
 6513TIP3    H219504   6.788   5.156   1.016 -0.0300 -0.7117 -2.5980
 6514TIP3   OH219505   4.496   6.459   4.514  0.0971 -0.2368 -0.0030
 6514TIP3    H119506   4.414   6.487   4.553 -0.3349 -0.5979 -0.6287
 6514TIP3    H219507   4.505   6.367   4.539  1.0904  0.1877  1.3407
 6515TIP3   OH219508   1.279   0.073   1.251 -0.2046 -0.4443 -0.1087
 6515TIP3    H119509   1.257   0.127   1.328  0.5904  1.0666 -0.8972
 6515TIP3    H219510   1.265   0.131   1.177  0.1725 -1.5201 -1.0424
 6516TIP3   OH219511   6.105   6.727   2.022 -0.4488  0.1966 -0.4550
 6516TIP3    H119512   6.090   6.819   2.043 -2.5225 -0.5956  2.0460
 6516TIP3    H219513   6.021   6.684   2.039  0.9346 -2.4394  0.3165
 6517TIP3   OH219514   5.382   2.478   0.934  0.0605  0.3466 -0.8242
 6517TIP3    H119515   5.467   2.472   0.889 -0.5266 -1.0217 -1.8106
 6517TIP3    H219516   5.318   2.467   0.864 -0.8943 -1.4720  0.2857
 6518TIP3   OH219517   0.637   4.359   0.486 -0.2781 -0.0108  0.0114
 6518TIP3    H119518   0.569   4.380   0.551 -1.4476 -3.6776  0.1806
 6518TIP3    H219519   0.696   4.299   0.531  1.2962  0.6168 -1.1289
 6519TIP3   OH219520   6.331   5.010   5.611 -0.1142  0.4276  0.5004
 6519TIP3    H119521   6.423   5.033   5.625 -0.1849  0.2119  1.3669
 6519TIP3    H219522   6.313   5.036   5.520  0.9907 -0.1849  0.0869
 6520TIP3   OH219523   5.704   3.852   3.318 -0.1669  0.0070  0.0185
 6520TIP3    H119524   5.773   3.816   3.373 -0.3786  1.2207  1.1251
 6520TIP3    H219525   5.748   3.916   3.262 -0.0133 -0.9658 -1.0174
 6521TIP3   OH219526   1.508   3.214   1.830 -0.2802  0.4037 -0.4141
 6521TIP3    H119527   1.462   3.130   1.836  0.0612  0.1377 -1.2676
 6521TIP3    H219528   1.509   3.233   1.736 -2.0154  2.3143 -0.1163
 6522TIP3   OH219529   1.592   2.959   5.309  0.1126 -0.0237  0.1070
 6522TIP3    H119530   1.567   3.044   5.273 -0.4478 -0.2115  0.0512
 6522TIP3    H219531   1.530   2.943   5.380 -0.0870 -0.5991 -0.1903
 6523TIP3   OH219532   2.647   3.633   3.485  0.6135  0.1041 -0.5012
 6523TIP3    H119533   2.731   3.616   3.527  1.3936  0.1638 -1.9803
 6523TIP3    H219534   2.642   3.728   3.478  1.0425  0.0539 -1.6035
 6524TIP3   OH219535   4.809   5.415   4.807  0.3239  0.0055 -0.1679
 6524TIP3    H119536   4.781   5.473   4.737  0.0981  1.0066  0.7299
 6524TIP3    H219537   4.857   5.345   4.762 -0.1481  0.4093 -1.3448
 6525TIP3   OH219538   5.378   1.335   5.037  0.8427 -0.2435  0.6038
 6525TIP3    H119539   5.364   1.408   4.976  2.2323 -0.0392  0.4938
 6525TIP3    H219540   5.320   1.266   5.004 -1.1018  1.0160  1.1702
 6526TIP3   OH219541   5.734   1.317   5.443  0.5061  0.0953 -0.1073
 6526TIP3    H119542   5.674   1.279   5.508  1.8150 -1.3084  0.3539
 6526TIP3    H219543   5.686   1.312   5.361 -0.9496  1.3312  0.6263
 6527TIP3   OH219544   6.458   2.493   3.657 -0.2028  0.2029  0.1902
 6527TIP3    H119545   6.523   2.507   3.726  1.0899 -0.5776 -0.8131
 6527TIP3    H219546   6.382   2.456   3.701 -0.0621  1.2986  1.4235
 6528TIP3   OH219547   0.519   2.160   0.136  0.4521  0.0301 -0.0637
 6528TIP3    H119548   0.508   2.111   0.218  1.4434  1.7368  1.1478
 6528TIP3    H219549   0.595   2.120   0.094  0.7853  0.0149  0.5401
 6529TIP3   OH219550   6.920   1.226   4.230 -0.0140  0.3379  0.0716
 6529TIP3    H119551   7.012   1.199   4.236  0.3464  1.1430 -1.2833
 6529TIP3    H219552   6.923   1.321   4.220 -1.1245  0.6321  1.9920
 6530TIP3   OH219553   0.458   0.885   0.697 -0.4653 -0.1464 -0.7222
 6530TIP3    H119554   0.540   0.925   0.669  0.5799 -1.2475  0.6082
 6530TIP3    H219555   0.392   0.954   0.684  0.5115  0.5189 -2.4956
 6531TIP3   OH219556   3.203   1.339   1.843 -0.0668 -0.7711  0.0494
 6531TIP3    H119557   3.217   1.315   1.752  0.2483 -0.7973  0.1034
 6531TIP3    H219558   3.281   1.389   1.867 -0.1434 -0.7735  0.3061
 6532TIP3   OH219559   1.847   5.723   5.500  0.6764 -0.5273 -0.3159
 6532TIP3    H119560   1.898   5.663   5.447  1.9396 -1.4367  1.7875
 6532TIP3    H219561   1.823   5.672   5.578 -0.2853  0.9826  0.4315
 6533TIP3   OH219562   0.277   6.136   5.048 -0.1414  0.2129 -0.5100
 6533TIP3    H119563   0.285   6.157   5.141  2.6171  0.6917 -0.7437
 6533TIP3    H219564   0.219   6.203   5.013 -0.6022  0.4910  0.7457
 6534TIP3   OH219565   4.764   2.804   5.176 -0.0326  1.0865  0.2850
 6534TIP3    H119566   4.730   2.873   5.118  2.8193  1.9575 -0.4906
 6534TIP3    H219567   4.804   2.851   5.249  0.9572  0.2231  0.3225
 6535TIP3   OH219568   4.024   5.109   5.722  0.0963  0.4695 -0.1748
 6535TIP3    H119569   4.010   5.027   5.770 -0.9264  0.8535  0.2065
 6535TIP3    H219570   4.104   5.146   5.761 -0.9330  0.9707  1.5613
 6536TIP3   OH219571   1.479   3.567   3.435  0.2607  0.3929 -0.2717
 6536TIP3    H119572   1.506   3.601   3.350  1.6136  0.7008  0.2613
 6536TIP3    H219573   1.514   3.478   3.438  0.8960  0.6564  0.2716
 6537TIP3   OH219574   0.271   2.770   3.496  0.0809 -0.5932  0.6321
 6537TIP3    H119575   0.290   2.857   3.462 -1.5091 -0.5571 -0.2639
 6537TIP3    H219576   0.331   2.712   3.449 -0.1186 -0.1939 -0.1279
 6538TIP3   OH219577   0.962   4.272   1.854  0.6906  0.5919  0.1544
 6538TIP3    H119578   0.989   4.343   1.912 -2.9501  0.2794  2.5941
 6538TIP3    H219579   0.866   4.274   1.857  0.3686 -3.8471 -0.3070
 6539TIP3   OH219580   1.620   5.051   1.733 -0.1163 -0.6027  0.3457
 6539TIP3    H119581   1.701   5.070   1.781 -0.6230  0.3180  0.8628
 6539TIP3    H219582   1.643   4.978   1.675  1.2258 -0.0177  0.1049
 6540TIP3   OH219583   5.282   2.110   2.587 -0.2071  0.2336 -0.3130
 6540TIP3    H119584   5.288   2.064   2.503 -1.3514  0.6850 -0.6686
 6540TIP3    H219585   5.192   2.142   2.589  0.2594  1.5367  0.4068
 6541TIP3   OH219586   5.881   0.257   1.081  0.4292 -0.1070  0.0715
 6541TIP3    H119587   5.804   0.200   1.091 -0.2126  0.7326  0.0025
 6541TIP3    H219588   5.906   0.247   0.989 -1.1160  1.4804 -0.5698
 6542TIP3   OH219589   5.016   4.616   4.933 -0.4163  0.0483  0.0069
 6542TIP3    H119590   4.935   4.652   4.896 -0.7118  0.3773  0.9340
 6542TIP3    H219591   5.083   4.681   4.913 -0.7381  0.6200  0.7559
 6543TIP3   OH219592   2.574   6.184   4.832  0.2100 -0.0269  0.3307
 6543TIP3    H119593   2.518   6.245   4.879  0.0232  0.2209 -0.2055
 6543TIP3    H219594   2.600   6.119   4.898 -0.0412  0.3146  0.7700
 6544TIP3   OH219595   5.405   3.180   5.574 -0.3543  0.3039  0.0664
 6544TIP3    H119596   5.368   3.262   5.605  0.1301  0.3906  0.4346
 6544TIP3    H219597   5.346   3.151   5.505 -0.4007  1.0812 -0.2292
 6545TIP3   OH219598   6.477   5.741   5.217 -0.1387 -0.7792 -0.1724
 6545TIP3    H119599   6.413   5.687   5.170 -0.6493 -0.2283 -0.1194
 6545TIP3    H219600   6.469   5.828   5.177 -1.5753  0.0853  1.8201
 6546TIP3   OH219601   3.540   0.951   3.514  0.6609  0.2772 -0.0278
 6546TIP3    H119602   3.605   0.981   3.579  2.1366  0.1480 -1.3756
 6546TIP3    H219603   3.561   1.002   3.436 -1.6012  1.0051 -0.2168
 6547TIP3   OH219604   4.465   3.441   5.051 -0.7495  0.3630 -0.2298
 6547TIP3    H119605   4.420   3.406   4.974 -3.3104  1.4072  0.6728
 6547TIP3    H219606   4.455   3.372   5.117  0.9619 -0.2969 -0.5972
 6548TIP3   OH219607   1.255   3.875   3.088 -0.2416 -0.1511 -0.2133
 6548TIP3    H119608   1.207   3.825   3.154  0.4675  0.5781  0.8902
 6548TIP3    H219609   1.226   3.966   3.100  1.1741  0.2645  0.2939
 6549TIP3   OH219610   3.055   5.538   4.606 -0.1943 -0.0594  0.0401
 6549TIP3    H119611   2.969   5.559   4.567 -0.2286 -0.3943 -0.0638
 6549TIP3    H219612   3.116   5.596   4.560 -0.2500 -0.3739 -0.4379
 6550TIP3   OH219613   3.858   3.017   1.892  0.1892  0.1195  0.2161
 6550TIP3    H119614   3.784   2.987   1.840 -1.7235  1.5888  1.9448
 6550TIP3    H219615   3.860   3.112   1.880  1.6292  0.1462  0.4324
 6551TIP3   OH219616   6.206   5.342   2.768 -0.2147 -0.4849 -0.1039
 6551TIP3    H119617   6.239   5.410   2.827 -0.7422  2.0552 -2.5261
 6551TIP3    H219618   6.280   5.283   2.756  0.8225  0.5776  0.8222
 6552TIP3   OH219619   3.632   6.173   2.303 -0.2709 -0.2350  0.7351
 6552TIP3    H119620   3.561   6.211   2.251  0.2470  0.5728  0.5842
 6552TIP3    H219621   3.609   6.191   2.394 -2.3057 -3.6049  1.0323
 6553TIP3   OH219622   5.328   1.756   4.201 -0.3291 -0.4212  0.1775
 6553TIP3    H119623   5.269   1.693   4.243 -0.7074 -0.2373 -0.0732
 6553TIP3    H219624   5.270   1.823   4.165  0.1615  1.1355  2.1350
 6554TIP3   OH219625   2.777   5.298   4.046  0.1063  0.0204 -0.1791
 6554TIP3    H119626   2.813   5.327   3.962 -0.1064 -1.5738 -0.8616
 6554TIP3    H219627   2.820   5.213   4.062 -1.2068 -0.5604  0.4060
 6555TIP3   OH219628   2.063   0.567   1.573 -0.6099  0.4435 -0.2508
 6555TIP3    H119629   2.084   0.654   1.607  1.2756 -0.2726  0.5424
 6555TIP3    H219630   2.113   0.506   1.628 -1.8704 -1.1555 -0.7911
 6556TIP3   OH219631   5.468   5.136   2.091 -0.3498 -1.2168  0.0616
 6556TIP3    H119632   5.477   5.049   2.129  0.0449 -1.0781  0.2876
 6556TIP3    H219633   5.482   5.196   2.164 -1.9028 -0.9558  0.1976
 6557TIP3   OH219634   1.194   1.747   2.089 -0.4188 -0.4201  0.2383
 6557TIP3    H119635   1.237   1.662   2.103  1.1369  0.3611  0.3865
 6557TIP3    H219636   1.126   1.729   2.024  0.3398 -1.6386 -0.2416
 6558TIP3   OH219637   2.302   5.347   2.861  0.1628 -0.1924  0.3331
 6558TIP3    H119638   2.268   5.262   2.888  1.2004 -0.2222  1.6490
 6558TIP3    H219639   2.332   5.334   2.772 -0.8371 -0.8553  0.0792
 6559TIP3   OH219640   4.261   1.859   3.143 -0.3339  0.4673  0.2234
 6559TIP3    H119641   4.177   1.813   3.141  1.3878 -3.0407 -2.8533
 6559TIP3    H219642   4.256   1.920   3.069 -0.0015 -0.1149 -0.2814
 6560TIP3   OH219643   4.837   5.840   3.476  0.0106 -0.2176 -0.1123
 6560TIP3    H119644   4.858   5.749   3.458 -0.3509 -0.2456 -0.4134
 6560TIP3    H219645   4.866   5.887   3.398  1.1126  0.0698  0.4480
 6561TIP3   OH219646   3.567   3.906   1.682  0.5265  0.5204  0.0933
 6561TIP3    H119647   3.651   3.865   1.661 -0.3871 -0.7136 -1.2883
 6561TIP3    H219648   3.503   3.862   1.626 -0.9996  1.7167  0.8098
 6562TIP3   OH219649   4.887   3.569   1.326  0.6793  0.5636 -0.5644
 6562TIP3    H119650   4.934   3.649   1.351 -0.9932  1.2444  0.5606
 6562TIP3    H219651   4.816   3.562   1.389 -0.0833 -1.0402 -1.5359
 6563TIP3   OH219652   6.947   3.476   3.820  0.5352  0.1664  0.1358
 6563TIP3    H119653   7.004   3.536   3.868  1.5236  1.5538 -2.5256
 6563TIP3    H219654   7.005   3.436   3.755 -1.0930 -0.0056 -1.2709
 6564TIP3   OH219655   2.677   1.456   4.094 -0.5459  0.5532  0.7677
 6564TIP3    H119656   2.765   1.487   4.072 -0.8364  0.2379 -0.9871
 6564TIP3    H219657   2.683   1.361   4.089 -0.6926  0.4645  1.9368
 6565TIP3   OH219658   1.462   2.340   0.045 -0.0016  0.1346  0.4023
 6565TIP3    H119659   1.435   2.394   0.120 -0.6620  0.4275 -0.0412
 6565TIP3    H219660   1.412   2.374  -0.029  1.8654  0.9414 -0.5492
 6566TIP3   OH219661   4.181   0.524   4.397  0.3640  0.1203  0.1884
 6566TIP3    H119662   4.211   0.476   4.474  1.6383 -0.0233 -0.3826
 6566TIP3    H219663   4.172   0.614   4.427  0.0273 -0.0779  0.7097
 6567TIP3   OH219664   4.432   3.640   1.329 -0.6282 -0.0086  0.2436
 6567TIP3    H119665   4.362   3.688   1.374 -0.7981  0.1202 -0.1587
 6567TIP3    H219666   4.428   3.552   1.368 -1.5165 -0.2273 -0.3061
 6568TIP3   OH219667   3.051   0.211   0.030  0.1693 -0.3133  0.2047
 6568TIP3    H119668   2.959   0.225   0.008  0.2124  0.4754  0.4786
 6568TIP3    H219669   3.082   0.298   0.056  1.3836 -0.2381 -1.3464
 6569TIP3   OH219670   4.987   2.873   5.334 -0.0021  0.2158 -0.8445
 6569TIP3    H119671   5.069   2.825   5.323  1.5372  2.7079 -1.0230
 6569TIP3    H219672   4.945   2.832   5.410  0.9031 -1.7579 -1.3642
 6570TIP3   OH219673   1.168   1.228   1.767 -0.3507 -0.9686  0.1117
 6570TIP3    H119674   1.149   1.306   1.818 -1.2222 -0.9420 -0.2446
 6570TIP3    H219675   1.099   1.224   1.701 -1.0975 -2.7333  0.9130
 6571TIP3   OH219676   1.861   0.314   5.228 -0.4458  0.3667  0.1345
 6571TIP3    H119677   1.817   0.299   5.145  1.9344 -1.6103 -0.8874
 6571TIP3    H219678   1.901   0.230   5.251  1.6169  1.6253  1.6146
 6572TIP3   OH219679   4.190   3.800   1.880 -0.1338  0.2070  0.3036
 6572TIP3    H119680   4.140   3.879   1.863 -0.6861 -0.3805 -0.9812
 6572TIP3    H219681   4.255   3.797   1.810 -0.1460 -0.4866  0.3123
 6573TIP3   OH219682   2.339   4.897   5.709 -0.7356 -0.1471  0.2633
 6573TIP3    H119683   2.254   4.942   5.710 -1.0098 -0.4847 -2.0134
 6573TIP3    H219684   2.401   4.965   5.681 -0.4323 -0.1888  0.8208
 6574TIP3   OH219685   5.196   1.864   1.511  0.3352  0.7980 -0.0363
 6574TIP3    H119686   5.248   1.944   1.513  0.4615  0.7307 -0.6822
 6574TIP3    H219687   5.155   1.864   1.425 -1.3289  1.2360  0.7101
 6575TIP3   OH219688   6.311   2.929   2.468 -1.0010  0.2163  0.2051
 6575TIP3    H119689   6.243   2.865   2.446 -0.4555  0.1953 -1.6038
 6575TIP3    H219690   6.382   2.910   2.407  0.3918  0.6571  1.6161
 6576TIP3   OH219691   0.690   2.831   0.258 -0.2250 -0.1798  0.2978
 6576TIP3    H119692   0.708   2.879   0.338 -1.1176 -0.2298  0.5379
 6576TIP3    H219693   0.626   2.885   0.211  0.1963 -0.2088 -0.3261
 6577TIP3   OH219694   1.122   2.080   3.588 -0.4305 -0.2283 -0.2714
 6577TIP3    H119695   1.141   2.106   3.678  0.5373  0.6955 -0.7166
 6577TIP3    H219696   1.095   2.162   3.545  1.4490 -0.1346 -1.4067
 6578TIP3   OH219697   4.266   2.271   3.082 -0.0772 -0.4980 -0.3031
 6578TIP3    H119698   4.288   2.364   3.076  1.0870 -0.8385 -2.1526
 6578TIP3    H219699   4.343   2.230   3.120 -0.1203 -0.8547 -0.5901
 6579TIP3   OH219700   6.926   3.997   4.437 -0.3070  0.3579  1.0035
 6579TIP3    H119701   6.924   3.906   4.407  0.9430 -0.3165  2.8377
 6579TIP3    H219702   6.980   3.995   4.515 -1.7250  2.3979  2.1105
 6580TIP3   OH219703   3.632   1.543   1.754  0.1770  0.4193 -0.1162
 6580TIP3    H119704   3.656   1.464   1.704  1.2619  1.0559 -0.6312
 6580TIP3    H219705   3.714   1.572   1.793 -0.7458 -0.5781  2.8956
 6581TIP3   OH219706   4.698   3.135   0.957 -0.0482  0.1418  0.0216
 6581TIP3    H119707   4.635   3.068   0.983  0.5341 -0.4707 -0.1394
 6581TIP3    H219708   4.769   3.128   1.021 -0.3888  1.2141  0.5499
 6582TIP3   OH219709   0.638   1.427   2.722 -0.0365  0.6869 -0.3466
 6582TIP3    H119710   0.665   1.357   2.662 -0.2314  0.2095  0.1075
 6582TIP3    H219711   0.544   1.414   2.732  0.2578 -0.4320  1.5071
 6583TIP3   OH219712   5.250   5.460   2.571  0.1467  0.1742 -0.0339
 6583TIP3    H119713   5.204   5.416   2.500 -0.6381  1.9696 -0.7063
 6583TIP3    H219714   5.316   5.514   2.528  0.6868  0.1426  0.7210
 6584TIP3   OH219715   2.529   5.852   4.236  0.5166  0.0884 -0.0938
 6584TIP3    H119716   2.515   5.778   4.176 -1.9213  0.2750  0.1238
 6584TIP3    H219717   2.531   5.929   4.179  2.0624 -0.0385 -0.2347
 6585TIP3   OH219718   3.454   3.308   3.872  0.6474  0.5196 -0.1999
 6585TIP3    H119719   3.488   3.266   3.793 -0.5057  0.0727 -0.4821
 6585TIP3    H219720   3.442   3.236   3.934  1.4846  0.8591  0.3712
 6586TIP3   OH219721   7.107   0.176   4.518  1.0307  0.3216 -0.2411
 6586TIP3    H119722   7.083   0.104   4.576  0.9638  1.6246  1.4311
 6586TIP3    H219723   7.108   0.253   4.575 -1.4605  2.1395 -2.4188
 6587TIP3   OH219724   4.903   5.814   5.084 -0.0690  0.3177  0.2568
 6587TIP3    H119725   4.811   5.811   5.057  0.0497  0.2175 -0.1417
 6587TIP3    H219726   4.901   5.792   5.177 -0.2930 -1.4900 -0.1299
 6588TIP3   OH219727   5.528   1.414   3.237  0.1218  0.4761 -0.4870
 6588TIP3    H119728   5.601   1.473   3.222 -0.2692  1.2046  0.4043
 6588TIP3    H219729   5.456   1.451   3.186  0.3746 -0.2938 -1.4427
 6589TIP3   OH219730   2.800   3.794   5.180 -0.0488  0.0933  0.7007
 6589TIP3    H119731   2.798   3.864   5.245  0.6516  0.2681  0.5418
 6589TIP3    H219732   2.859   3.728   5.218  1.5847  0.8498 -0.3820
 6590TIP3   OH219733   0.738   3.688   3.859  0.4165  0.1102 -0.1156
 6590TIP3    H119734   0.783   3.699   3.775 -0.8549 -0.3469 -0.8779
 6590TIP3    H219735   0.699   3.774   3.876 -0.2095 -0.0880 -0.5280
 6591TIP3   OH219736   0.255   6.747   3.506  0.3636 -0.7472  0.0649
 6591TIP3    H119737   0.260   6.669   3.450  1.0034 -1.0400  0.5121
 6591TIP3    H219738   0.294   6.719   3.589 -1.4609 -0.6254  1.0196
 6592TIP3   OH219739   6.163   0.651   2.454  0.1647 -0.0607 -0.3179
 6592TIP3    H119740   6.136   0.736   2.418  0.5585  0.6477  0.9913
 6592TIP3    H219741   6.253   0.640   2.425  0.2512  0.1680 -0.1355
 6593TIP3   OH219742   0.256   2.549   0.084 -0.2346 -0.2305 -0.5473
 6593TIP3    H119743   0.296   2.486   0.144 -2.3887  0.2209  1.5151
 6593TIP3    H219744   0.219   2.495   0.014  1.3806 -0.8598 -0.9721
 6594TIP3   OH219745   5.812   1.717   3.749 -0.0319 -0.2377 -0.0893
 6594TIP3    H119746   5.889   1.773   3.736  1.6444 -2.0683  1.2624
 6594TIP3    H219747   5.830   1.639   3.697 -1.4232 -0.3535 -0.4387
 6595TIP3   OH219748   3.814   2.794   2.559 -0.1018  0.5214  0.0107
 6595TIP3    H119749   3.777   2.810   2.472  3.4965 -0.6987 -1.9624
 6595TIP3    H219750   3.840   2.880   2.590  1.3741  0.7063 -1.5936
 6596TIP3   OH219751   5.646   1.662   5.830  0.1418  0.4296 -0.2911
 6596TIP3    H119752   5.633   1.757   5.826 -0.5669  0.3878  0.7493
 6596TIP3    H219753   5.588   1.627   5.763  0.3584  0.7196 -0.6369
 6597TIP3   OH219754   0.124   2.403   4.033  0.1049 -0.0401 -0.0815
 6597TIP3    H119755   0.163   2.329   3.987 -0.8274 -0.0797 -0.8296
 6597TIP3    H219756   0.030   2.387   4.029 -0.2730  2.1826 -2.0174
 6598TIP3   OH219757   0.246   6.599   4.896 -0.1094 -0.9515 -0.1696
 6598TIP3    H119758   0.283   6.574   4.981  1.7964  0.1255 -0.6365
 6598TIP3    H219759   0.266   6.692   4.887  1.5429 -1.4435 -2.6417
 6599TIP3   OH219760   1.398   1.514   2.913  0.0186 -0.1575  0.2669
 6599TIP3    H119761   1.390   1.494   3.006  0.5020 -0.8401  0.1757
 6599TIP3    H219762   1.492   1.505   2.895  0.0107  0.5731 -0.1558
 6600TIP3   OH219763   4.974   6.325   5.186  0.0774  0.4209  0.0357
 6600TIP3    H119764   4.970   6.272   5.107  2.9243  0.0393  0.0305
 6600TIP3    H219765   4.952   6.265   5.257  4.0737 -1.2404  0.1267
 6601TIP3   OH219766   6.254   6.218   1.463  0.1239  0.7965  0.2710
 6601TIP3    H119767   6.205   6.261   1.393  0.9933  1.1576 -0.1307
 6601TIP3    H219768   6.235   6.125   1.451  1.3355  0.7145 -1.3386
 6602TIP3   OH219769   5.704   0.806   0.764 -0.6974 -0.4468 -0.4730
 6602TIP3    H119770   5.796   0.784   0.779 -0.6664 -1.4974 -1.9555
 6602TIP3    H219771   5.676   0.849   0.845  0.9889 -0.4388  0.1457
 6603TIP3   OH219772   3.177   6.645   3.556  0.1997 -0.0283  0.5569
 6603TIP3    H119773   3.087   6.616   3.543  0.4764 -0.1443 -1.3966
 6603TIP3    H219774   3.168   6.737   3.583 -0.5212  0.3355 -0.7791
 6604TIP3   OH219775   0.730   0.754   0.615  0.6108 -1.2894  0.1501
 6604TIP3    H119776   0.713   0.847   0.631  1.3224 -0.5999 -2.5754
 6604TIP3    H219777   0.803   0.733   0.674  1.4037  0.3161 -0.1959
 6605TIP3   OH219778   5.310   5.559   2.036  0.4623  0.3840  0.0887
 6605TIP3    H119779   5.268   5.515   2.110  0.2311  0.1813 -0.1610
 6605TIP3    H219780   5.261   5.641   2.026 -0.1917 -0.0740 -0.5101
 6606TIP3   OH219781   6.066   1.437   3.733 -0.3824 -0.2241  0.0859
 6606TIP3    H119782   6.030   1.477   3.654  1.3777  0.0310 -0.6267
 6606TIP3    H219783   6.160   1.429   3.716  0.2216  0.7076  2.4859
 6607TIP3   OH219784   6.599   5.416   0.240 -0.1203 -0.2066 -0.0566
 6607TIP3    H119785   6.505   5.425   0.255 -0.2641 -0.7039 -0.6008
 6607TIP3    H219786   6.619   5.327   0.270  0.5100  0.4634  1.6237
 6608TIP3   OH219787   0.778   5.561   0.952  0.7139  0.4543  0.0555
 6608TIP3    H119788   0.716   5.605   0.894  1.4991 -0.8200 -1.8547
 6608TIP3    H219789   0.737   5.564   1.038 -0.8111  1.8444 -0.6628
 6609TIP3   OH219790   5.594   5.699   3.453 -0.3261 -0.2393 -0.4593
 6609TIP3    H119791   5.510   5.745   3.451 -0.3896 -0.3272  0.1181
 6609TIP3    H219792   5.573   5.612   3.485 -0.0225 -0.2784 -0.3645
 6610TIP3   OH219793   6.163   3.389   0.550  0.5808 -0.1213 -0.0267
 6610TIP3    H119794   6.152   3.475   0.591  1.9312 -0.5135  1.2525
 6610TIP3    H219795   6.123   3.328   0.612 -1.1267 -0.4096 -1.3097
 6611TIP3   OH219796   1.636   0.767   5.849  0.5359  0.1485 -0.1570
 6611TIP3    H119797   1.560   0.760   5.908  0.8010 -1.7622  0.0044
 6611TIP3    H219798   1.609   0.721   5.770  0.3053  2.4224 -1.4891
 6612TIP3   OH219799   3.149   3.771   3.828  0.3589  0.1982 -1.0659
 6612TIP3    H119800   3.159   3.681   3.861 -0.8332  0.5601  0.4095
 6612TIP3    H219801   3.163   3.764   3.734  0.4146 -1.5199 -0.9614
 6613TIP3   OH219802   0.036   0.413   3.097 -0.4817  0.0930 -0.2580
 6613TIP3    H119803   0.034   0.445   3.187  2.0753 -0.4147  0.0572
 6613TIP3    H219804  -0.027   0.341   3.095 -1.0571  0.5418  0.9231
 6614TIP3   OH219805   3.439   5.885   3.945 -0.3261 -0.0696 -0.0146
 6614TIP3    H119806   3.375   5.951   3.970  1.0496  1.2389  0.2499
 6614TIP3    H219807   3.455   5.834   4.024 -0.1737  0.3659  0.2362
 6615TIP3   OH219808   5.117   5.520   1.728  0.1428 -0.1737  0.2329
 6615TIP3    H119809   5.056   5.483   1.791 -1.0034 -0.1155 -0.8055
 6615TIP3    H219810   5.115   5.614   1.744 -0.4769 -0.1145 -0.1565
 6616TIP3   OH219811   2.289   2.872   5.350  0.4928 -0.0271  0.2586
 6616TIP3    H119812   2.360   2.859   5.413  1.7063  0.2201 -0.9986
 6616TIP3    H219813   2.295   2.965   5.327  0.3134 -0.1973 -0.4867
 6617TIP3   OH219814   2.932   2.308   0.971  0.2695  0.2186  0.0562
 6617TIP3    H119815   3.010   2.290   0.920  0.2371  0.3162 -0.0276
 6617TIP3    H219816   2.901   2.222   0.999  1.1228  0.2445  1.1569
 6618TIP3   OH219817   3.932   5.542   1.758  0.7041  0.0041  0.3282
 6618TIP3    H119818   3.869   5.471   1.774  1.3728 -0.5477  0.5540
 6618TIP3    H219819   3.923   5.599   1.835  0.5257 -0.1055  0.3900
 6619TIP3   OH219820   1.687   3.152   4.615  1.0349 -0.0139 -0.2317
 6619TIP3    H119821   1.729   3.127   4.533 -0.6269 -1.3256 -0.7594
 6619TIP3    H219822   1.625   3.221   4.590  1.0080  0.0631  0.0429
 6620TIP3   OH219823   0.034   2.874   2.379  0.4415  0.3862 -0.0563
 6620TIP3    H119824  -0.042   2.924   2.409  0.1556  0.4232 -0.8223
 6620TIP3    H219825   0.014   2.784   2.404 -0.3684  0.2261 -1.2149
 6621TIP3   OH219826   0.884   1.048   0.331  0.6470  0.0484 -0.1037
 6621TIP3    H119827   0.823   1.120   0.317 -0.0045 -0.7254 -1.3866
 6621TIP3    H219828   0.854   0.979   0.272  0.9007 -1.4988  1.4936
 6622TIP3   OH219829   6.226   5.169   0.759 -0.4217  0.0777  0.5269
 6622TIP3    H119830   6.219   5.260   0.789 -0.2448 -0.0191  0.8700
 6622TIP3    H219831   6.310   5.165   0.714 -0.7374  0.2507 -0.0913
 6623TIP3   OH219832   4.023   4.471   2.134  0.4662  0.1318 -0.4216
 6623TIP3    H119833   4.100   4.466   2.191  0.3934 -0.9351 -0.4007
 6623TIP3    H219834   4.017   4.385   2.094 -1.1981 -0.0836  0.1957
 6624TIP3   OH219835   3.232   4.231   2.962  0.3180  0.0797 -0.0238
 6624TIP3    H119836   3.294   4.298   2.989  0.5239  0.0176 -0.3346
 6624TIP3    H219837   3.262   4.204   2.875 -0.8701  0.9718 -0.7558
 6625TIP3   OH219838   6.362   1.827   5.649 -0.5414  0.0830 -0.1754
 6625TIP3    H119839   6.297   1.845   5.718 -0.2247 -1.3186  0.5235
 6625TIP3    H219840   6.358   1.733   5.637  0.1541  0.1898 -1.3700
 6626TIP3   OH219841   4.851   2.487   2.904  0.4186 -0.0980 -0.6714
 6626TIP3    H119842   4.766   2.482   2.861  0.0841  0.0729 -0.0306
 6626TIP3    H219843   4.904   2.542   2.846  0.4568 -1.1382 -1.6641
 6627TIP3   OH219844   0.627   3.290   4.373 -0.9585  0.1992 -0.2477
 6627TIP3    H119845   0.645   3.305   4.466  2.3372  0.9832 -0.8826
 6627TIP3    H219846   0.632   3.376   4.333  0.0137 -0.3704 -1.4388
 6628TIP3   OH219847   4.585   3.824   2.007 -0.2595 -0.2239  0.3799
 6628TIP3    H119848   4.618   3.890   1.946  0.7967  0.1770  1.3645
 6628TIP3    H219849   4.537   3.762   1.951  0.2097  0.4265 -0.7791
 6629TIP3   OH219850   3.555   0.303   4.861  0.2262 -0.2657 -0.2700
 6629TIP3    H119851   3.592   0.225   4.821 -0.7778 -0.5280 -0.7259
 6629TIP3    H219852   3.625   0.369   4.855  0.5432 -0.6688 -1.3048
 6630TIP3   OH219853   0.783   6.747   1.388  0.8111 -0.5349 -0.0188
 6630TIP3    H119854   0.737   6.754   1.472 -1.1256  0.6114 -1.0894
 6630TIP3    H219855   0.754   6.663   1.352  0.0592 -0.1379 -0.3738
 6631TIP3   OH219856   5.176   5.920   4.650  0.0411 -0.1702  0.3006
 6631TIP3    H119857   5.153   6.000   4.602  0.4288 -0.4027 -0.2871
 6631TIP3    H219858   5.268   5.906   4.630 -0.5855 -2.1162 -1.6311
 6632TIP3   OH219859   0.171   3.332   2.889 -0.0515  0.7194  0.4593
 6632TIP3    H119860   0.167   3.276   2.812 -0.1890  0.1669  0.8610
 6632TIP3    H219861   0.257   3.374   2.883  0.7079 -0.6793  0.9193
 6633TIP3   OH219862   2.166   4.717   4.432  0.8147  0.2910  0.1945
 6633TIP3    H119863   2.228   4.659   4.387  0.5973 -0.4263  0.7882
 6633TIP3    H219864   2.221   4.771   4.489  0.9224 -0.3369  0.7119
 6634TIP3   OH219865   3.399   0.702   2.838  0.2975  0.2529 -0.2274
 6634TIP3    H119866   3.376   0.789   2.806  0.3143  0.6533  0.8205
 6634TIP3    H219867   3.439   0.659   2.762 -0.1732  0.9671 -0.9016
 6635TIP3   OH219868   0.617   4.552   1.655  0.2107  0.1285 -0.5152
 6635TIP3    H119869   0.682   4.513   1.597 -0.3554 -2.6460  0.5683
 6635TIP3    H219870   0.565   4.609   1.598  3.0347  1.8688 -1.5495
 6636TIP3   OH219871   6.248   6.644   2.695 -0.6149 -0.2606 -0.3413
 6636TIP3    H119872   6.250   6.737   2.715 -0.1489 -0.0094 -1.5101
 6636TIP3    H219873   6.155   6.625   2.680 -0.4248  0.9052 -3.9016
 6637TIP3   OH219874   6.344   2.618   2.109  0.2289  0.5977  0.1135
 6637TIP3    H119875   6.269   2.560   2.120  0.4928 -0.0859 -1.5361
 6637TIP3    H219876   6.372   2.637   2.199 -0.7477 -0.6422  0.7118
 6638TIP3   OH219877   0.023   1.448   2.791 -0.3606 -0.3362 -0.4943
 6638TIP3    H119878   0.026   1.357   2.822 -0.2711 -0.3192 -0.4505
 6638TIP3    H219879   0.096   1.490   2.836 -0.6555 -0.1416 -0.2014
 6639TIP3   OH219880   0.745   4.693   0.980 -0.8825  0.2697  0.1075
 6639TIP3    H119881   0.770   4.713   1.071  0.9004  0.8214 -0.4706
 6639TIP3    H219882   0.741   4.778   0.937  1.6122 -0.1710 -1.1186
 6640TIP3   OH219883   2.956   2.195  -0.018 -0.1675 -0.3315 -1.0100
 6640TIP3    H119884   3.048   2.215  -0.005 -0.4131  1.0750 -1.1947
 6640TIP3    H219885   2.943   2.110   0.023  0.6129  0.6711  1.5021
 6641TIP3   OH219886   2.874   1.596   0.003  0.1166  0.2628 -0.0128
 6641TIP3    H119887   2.833   1.594   0.090 -1.4715  0.2194 -0.7297
 6641TIP3    H219888   2.967   1.579   0.020 -0.5233 -2.3388  1.4763
 6642TIP3   OH219889   3.681   6.120   5.004 -0.0143 -0.3960 -0.1599
 6642TIP3    H119890   3.738   6.068   5.061  0.8785  0.5104 -0.2155
 6642TIP3    H219891   3.694   6.082   4.917 -0.1165 -0.7056 -0.0432
 6643TIP3   OH219892   0.056   4.470   0.517 -0.3821  0.0666 -0.2622
 6643TIP3    H119893  -0.017   4.413   0.539  1.1698 -1.5211  1.0920
 6643TIP3    H219894   0.104   4.481   0.599  1.4025  0.2745 -1.2816
 6644TIP3   OH219895   0.799   1.192   3.616  0.0169 -0.3047  0.8635
 6644TIP3    H119896   0.874   1.133   3.613 -1.4405 -2.4802  2.9450
 6644TIP3    H219897   0.729   1.143   3.574 -1.1525  0.0299  2.3388
 6645TIP3   OH219898   1.564   3.742   1.016 -0.4779  0.1853  0.8244
 6645TIP3    H119899   1.636   3.698   1.060  0.4044  0.4062 -0.3526
 6645TIP3    H219900   1.514   3.672   0.974  1.1088  0.2214 -1.3211
 6646TIP3   OH219901   4.142   1.455   3.234  0.0856  0.1000 -0.4744
 6646TIP3    H119902   4.195   1.432   3.157 -1.2152 -0.5950 -1.1972
 6646TIP3    H219903   4.094   1.533   3.208  0.0889  0.2069 -0.1583
 6647TIP3   OH219904   0.607   1.362   3.236 -0.7620 -0.7831  0.8373
 6647TIP3    H119905   0.657   1.294   3.191  0.6799 -0.2037  1.4902
 6647TIP3    H219906   0.652   1.373   3.320 -1.3751  0.4944  1.0191
 6648TIP3   OH219907   0.994   2.681   1.250  0.7276  0.1010 -0.6152
 6648TIP3    H119908   0.922   2.633   1.210  0.7933 -0.3941 -0.1599
 6648TIP3    H219909   0.972   2.773   1.238 -1.2471  0.0212  1.6650
 6649TIP3   OH219910   1.405   4.720   5.189 -0.1306 -0.3038  0.6397
 6649TIP3    H119911   1.368   4.660   5.254  0.6239 -0.5667  0.8367
 6649TIP3    H219912   1.402   4.670   5.107 -1.5094  0.1945  0.3545
 6650TIP3   OH219913   1.376   3.123   4.177 -0.0584  0.3871  0.5184
 6650TIP3    H119914   1.444   3.171   4.130 -1.4847  2.6137  0.5628
 6650TIP3    H219915   1.361   3.175   4.256 -1.3529 -0.4065  0.8191
 6651TIP3   OH219916   6.492   0.427   2.183  0.2446  0.4845  0.3929
 6651TIP3    H119917   6.399   0.443   2.169  0.6083  1.7772 -0.7503
 6651TIP3    H219918   6.536   0.491   2.127  1.8239 -0.4560  0.5009
 6652TIP3   OH219919   0.244   1.513   2.933 -0.0130  0.3312 -0.0549
 6652TIP3    H119920   0.231   1.456   3.009  1.4788 -0.2473 -0.2063
 6652TIP3    H219921   0.324   1.562   2.952 -0.6858  1.6341 -0.4008
 6653TIP3   OH219922   0.596   1.998   5.527  0.7201  0.4520 -0.2485
 6653TIP3    H119923   0.570   2.063   5.463 -0.0893  0.0318 -0.3650
 6653TIP3    H219924   0.630   1.925   5.475  0.3583  0.2385 -0.1868
 6654TIP3   OH219925   4.109   4.930   1.611  0.0531  0.5799 -0.2577
 6654TIP3    H119926   4.055   5.009   1.621 -0.3744  0.3674 -0.8339
 6654TIP3    H219927   4.077   4.889   1.531  0.5709  0.0486 -0.1998
 6655TIP3   OH219928   0.157   2.687   0.595 -0.4139  0.3979 -0.3302
 6655TIP3    H119929   0.068   2.659   0.575 -0.2114 -0.4380 -0.0969
 6655TIP3    H219930   0.213   2.627   0.545  0.0363  0.3104  0.2630
 6656TIP3   OH219931   0.780   1.706   5.710 -0.1390  0.0082 -0.4412
 6656TIP3    H119932   0.718   1.633   5.711  0.1812 -0.2767 -0.7913
 6656TIP3    H219933   0.796   1.723   5.617 -2.7374  2.7436 -0.5211
 6657TIP3   OH219934   3.661   4.806   3.250 -0.2074 -0.2386 -0.3318
 6657TIP3    H119935   3.664   4.714   3.275  2.3324 -0.0088  0.4750
 6657TIP3    H219936   3.681   4.806   3.156 -1.1477 -0.5251 -0.5484
 6658TIP3   OH219937   3.187   5.332   1.199  0.0272  0.1369 -0.4382
 6658TIP3    H119938   3.261   5.385   1.227  0.1419  0.6854 -1.7310
 6658TIP3    H219939   3.125   5.395   1.161 -0.5978 -0.4556 -0.4333
 6659TIP3   OH219940   6.689   5.778   3.723 -0.1104  0.0257 -0.1618
 6659TIP3    H119941   6.661   5.820   3.641  2.7629  1.2990 -0.5942
 6659TIP3    H219942   6.782   5.761   3.711 -0.5367 -4.3045  1.0076
 6660TIP3   OH219943   2.954   3.197   5.509  0.5447 -0.8989  0.6640
 6660TIP3    H119944   2.874   3.146   5.513  0.8238 -1.4710 -0.6243
 6660TIP3    H219945   2.945   3.262   5.579 -2.2161  0.7473 -1.0305
 6661TIP3   OH219946   6.813   3.696   1.295  0.1489 -0.6445 -0.5696
 6661TIP3    H119947   6.781   3.731   1.378  0.6366 -2.3268  0.3695
 6661TIP3    H219948   6.858   3.769   1.253  0.2003  0.1318  0.8080
 6662TIP3   OH219949   2.617   2.049   3.287 -0.3949  0.5016 -0.1277
 6662TIP3    H119950   2.692   1.991   3.275 -1.1240 -0.0784 -2.4078
 6662TIP3    H219951   2.655   2.133   3.312  0.7830 -0.4925  1.6436
 6663TIP3   OH219952   3.070   6.716   0.143 -0.4751  0.5927  0.0209
 6663TIP3    H119953   3.144   6.759   0.186 -1.0519  0.8899  0.7276
 6663TIP3    H219954   2.999   6.780   0.148 -0.8929  0.1569 -0.3070
 6664TIP3   OH219955   4.782   5.116   3.173 -0.2392 -0.1591 -0.2666
 6664TIP3    H119956   4.835   5.196   3.178 -0.0189 -0.2346 -1.1705
 6664TIP3    H219957   4.696   5.146   3.143 -0.5502 -0.1090  0.6450
 6665TIP3   OH219958   0.354   5.648   0.574 -0.9059 -0.7854  0.5257
 6665TIP3    H119959   0.336   5.555   0.590 -1.5686 -0.4191  2.0804
 6665TIP3    H219960   0.274   5.693   0.600 -1.1176  0.1463 -1.5774
 6666TIP3   OH219961   5.379   2.153   3.683  0.5868 -0.0197  0.1195
 6666TIP3    H119962   5.447   2.156   3.750 -1.1533  0.7388  1.9677
 6666TIP3    H219963   5.367   2.060   3.664  1.0648 -0.2545  0.9308
 6667TIP3   OH219964   1.902   5.476   5.006 -0.3628 -0.5490 -0.5615
 6667TIP3    H119965   1.850   5.448   4.931 -0.7188  0.5614 -0.7522
 6667TIP3    H219966   1.993   5.462   4.980 -0.5188 -1.4740 -0.6481
 6668TIP3   OH219967   6.575   3.215   4.823 -0.0297  0.3184  0.7530
 6668TIP3    H119968   6.573   3.301   4.782 -1.3393  0.0765  0.2712
 6668TIP3    H219969   6.605   3.156   4.754  0.3483  0.2985  0.9296
 6669TIP3   OH219970   1.770   5.872   5.031 -0.1156  0.3105  0.0806
 6669TIP3    H119971   1.865   5.867   5.045 -0.3890 -0.4693  2.0478
 6669TIP3    H219972   1.752   5.966   5.024  0.6847  0.5282  0.7441
 6670TIP3   OH219973   0.497   3.840   1.322  0.9995 -0.0371 -0.1707
 6670TIP3    H119974   0.469   3.931   1.327 -1.3780 -0.5781 -2.0639
 6670TIP3    H219975   0.578   3.838   1.373  1.5374  3.2574 -0.6536
 6671TIP3   OH219976   5.975   0.305   2.955  0.4025 -0.0457 -0.3850
 6671TIP3    H119977   6.052   0.275   2.907  0.2221 -0.6024 -0.3272
 6671TIP3    H219978   5.910   0.237   2.941  0.4490 -0.3784  0.9088
 6672TIP3   OH219979   1.003   5.355   4.626 -0.5742  0.0039  0.2165
 6672TIP3    H119980   1.013   5.374   4.719 -1.1240 -0.8563  0.4660
 6672TIP3    H219981   0.922   5.304   4.621 -0.2777 -0.3900 -0.6749
 6673TIP3   OH219982   0.377   1.705   2.525  0.1562  0.4722 -0.0643
 6673TIP3    H119983   0.359   1.618   2.559  0.0297  0.6960  0.4570
 6673TIP3    H219984   0.407   1.691   2.436 -0.1338 -0.0858 -0.0750
 6674TIP3   OH219985   1.005   1.577   0.501 -0.0152 -0.1892  0.3649
 6674TIP3    H119986   1.032   1.563   0.592  1.4965  1.7050  0.2638
 6674TIP3    H219987   0.922   1.625   0.508  0.7122  1.0632  0.8064
 6675TIP3   OH219988   4.445   0.394   2.238  0.1438  0.2479  0.2759
 6675TIP3    H119989   4.381   0.324   2.237  0.5432 -0.1167 -0.0141
 6675TIP3    H219990   4.493   0.382   2.320  0.8444 -0.4015 -0.2194
 6676TIP3   OH219991   4.922   2.939   1.888 -0.0858  0.5656 -0.2779
 6676TIP3    H119992   5.017   2.942   1.900  0.2439  0.5584 -2.5476
 6676TIP3    H219993   4.895   3.031   1.887 -0.6927  0.6204  3.6989
 6677TIP3   OH219994   2.834   4.867   5.590 -0.4852 -0.2014 -0.0475
 6677TIP3    H119995   2.897   4.809   5.633 -0.3171 -1.6191 -2.0883
 6677TIP3    H219996   2.868   4.878   5.502 -1.8750  0.9705 -0.4737
 6678TIP3   OH219997   4.253   1.557   2.778  0.1384 -0.1555 -0.0695
 6678TIP3    H119998   4.219   1.506   2.852 -0.2629 -0.7329 -0.6407
 6678TIP3    H219999   4.288   1.491   2.718 -0.2367  0.2551 -0.7509
 6679TIP3   OH220000   0.760   3.478   5.617  0.4087 -0.0057 -0.2123
 6679TIP3    H120001   0.729   3.568   5.629 -2.1351 -0.8868  0.4458
 6679TIP3    H220002   0.723   3.451   5.533 -0.1289 -0.8957  0.2948
 6680TIP3   OH220003   0.470   0.937   1.810  0.7434 -0.2547 -0.5801
 6680TIP3    H120004   0.558   0.932   1.772  0.9753 -3.4523  0.1000
 6680TIP3    H220005   0.425   0.859   1.778 -1.1448  0.1936  0.7724
 6681TIP3   OH220006   7.036   0.098   2.193  0.0705  0.0927  0.3418
 6681TIP3    H120007   6.993   0.183   2.182 -0.5069 -0.3497 -0.9778
 6681TIP3    H220008   7.043   0.063   2.104  0.5176 -1.1457  0.8495
 6682TIP3   OH220009   0.524   2.902   3.940 -0.1922 -0.3901  0.0409
 6682TIP3    H120010   0.572   2.835   3.892  0.4596  1.0302 -1.3863
 6682TIP3    H220011   0.564   2.902   4.027  1.2716 -0.4308 -0.5926
 6683TIP3   OH220012   0.437   1.433   4.633 -0.4291  0.1522 -0.8280
 6683TIP3    H120013   0.518   1.442   4.583 -0.7747  0.1705 -1.4015
 6683TIP3    H220014   0.404   1.346   4.610 -1.4317  0.7978 -1.9293
 6684TIP3   OH220015   4.325   2.726   1.182  0.2899 -0.1110 -0.8379
 6684TIP3    H120016   4.314   2.776   1.263 -0.9117  1.1128 -1.6952
 6684TIP3    H220017   4.371   2.785   1.123 -1.3140  0.1328 -1.9360
 6685TIP3   OH220018   2.427   1.716   4.601 -0.6341  0.3078  0.0651
 6685TIP3    H120019   2.341   1.755   4.614 -0.2840  1.4807 -0.8807
 6685TIP3    H220020   2.427   1.687   4.510  0.8849  2.9616 -0.9176
 6686TIP3   OH220021   4.244   3.371   1.893 -0.5400 -0.0712 -0.4257
 6686TIP3    H120022   4.177   3.428   1.930  0.2893  2.2735 -2.2215
 6686TIP3    H220023   4.198   3.319   1.828 -1.2986 -1.5044  1.1834
 6687TIP3   OH220024   2.324   2.955   3.658  0.1578 -0.0284  0.1602
 6687TIP3    H120025   2.261   3.026   3.647 -0.5686 -0.6947 -0.0479
 6687TIP3    H220026   2.273   2.875   3.648  0.6505 -0.6222  1.9358
 6688TIP3   OH220027   2.201   3.765   1.885  0.4999 -0.0678  0.5107
 6688TIP3    H120028   2.225   3.710   1.959  0.9906  0.1911  0.5453
 6688TIP3    H220029   2.105   3.761   1.883  0.4004  0.7624  1.8181
 6689TIP3   OH220030   3.456   4.865   3.976  0.1593  0.6997  0.2660
 6689TIP3    H120031   3.443   4.955   4.006  1.0768  0.1798  2.3987
 6689TIP3    H220032   3.368   4.832   3.962 -0.2557  1.4783  0.9443
 6690TIP3   OH220033   0.875   4.439   2.183  0.0189 -0.1700 -0.2575
 6690TIP3    H120034   0.940   4.422   2.250 -0.6989 -1.9523  0.0234
 6690TIP3    H220035   0.924   4.439   2.101  0.8141  1.5245  0.1612
 6691TIP3   OH220036   1.627   5.115   1.209  0.0917 -0.3095 -0.1857
 6691TIP3    H120037   1.717   5.120   1.176  0.0979  1.1760  0.0143
 6691TIP3    H220038   1.578   5.078   1.136  0.8951 -1.4031 -0.2004
 6692TIP3   OH220039   2.161   2.940   0.769 -0.1276 -0.3042  0.1525
 6692TIP3    H120040   2.090   2.991   0.807  0.6101  0.6816  0.2262
 6692TIP3    H220041   2.207   2.903   0.845 -0.4685 -0.8427  0.1075
 6693TIP3   OH220042   0.265   6.192   3.375  0.4403 -0.1379  0.5822
 6693TIP3    H120043   0.309   6.258   3.321 -0.9055 -0.6880 -1.3046
 6693TIP3    H220044   0.268   6.112   3.323 -1.9809 -0.4004  0.7400
 6694TIP3   OH220045   0.468   2.367   3.711 -0.6579 -0.2027 -0.2942
 6694TIP3    H120046   0.422   2.319   3.779  0.8640 -0.2543  0.7437
 6694TIP3    H220047   0.411   2.442   3.692 -1.1432 -0.2167  0.9977
 6695TIP3   OH220048   5.855   5.852   5.210 -0.3132 -0.1612 -0.2040
 6695TIP3    H120049   5.877   5.940   5.243 -0.0933 -0.0998 -0.5163
 6695TIP3    H220050   5.850   5.798   5.289 -2.2770  0.5186  0.1838
 6696TIP3   OH220051   3.091   5.286   0.849  0.8136 -0.3015 -0.1463
 6696TIP3    H120052   3.003   5.319   0.828 -0.2381 -3.1745 -0.8422
 6696TIP3    H220053   3.128   5.262   0.764  2.0062  0.2045  0.2102
 6697TIP3   OH220054   2.423   6.670   3.305 -0.2811  0.5750  0.1205
 6697TIP3    H120055   2.464   6.744   3.261  0.0387 -0.7030 -1.8670
 6697TIP3    H220056   2.347   6.707   3.351  0.3425  2.2209 -0.1256
 6698TIP3   OH220057   1.355   5.958   0.820  0.2952 -0.0533  0.2208
 6698TIP3    H120058   1.373   5.878   0.771  0.7841  0.3514 -0.2805
 6698TIP3    H220059   1.276   5.994   0.780  0.0282 -0.3233  0.5004
 6699TIP3   OH220060   0.643   1.216   2.279 -0.1167  0.1380 -0.0825
 6699TIP3    H120061   0.713   1.169   2.235 -0.2832  0.9285 -1.2358
 6699TIP3    H220062   0.635   1.298   2.231 -0.4749  0.9446  1.2816
 6700TIP3   OH220063   5.701   4.696   4.722 -0.4404 -0.3118  0.1349
 6700TIP3    H120064   5.717   4.716   4.814  0.7744  1.1306 -0.3433
 6700TIP3    H220065   5.678   4.780   4.683 -1.2460 -0.9648 -0.8258
 6701TIP3   OH220066   4.878   0.415   3.082  0.0311 -0.4353 -0.4703
 6701TIP3    H120067   4.920   0.498   3.058 -0.4543  0.4556  1.5344
 6701TIP3    H220068   4.824   0.392   3.007  0.3727  0.9341 -1.1634
 6702TIP3   OH220069   6.342   1.938   1.672  0.0573  0.0889 -0.5331
 6702TIP3    H120070   6.358   2.009   1.610 -0.4814  0.9825  0.3244
 6702TIP3    H220071   6.368   1.973   1.757 -1.0720 -0.3979  0.0418
 6703TIP3   OH220072   0.454   4.396   5.539  0.3141  0.5284  0.1201
 6703TIP3    H120073   0.376   4.452   5.538  0.2392  0.4529  0.8984
 6703TIP3    H220074   0.464   4.368   5.449 -1.8428 -1.1907  0.3235
 6704TIP3   OH220075   0.174   0.140   2.934  0.3297 -0.4363  0.7889
 6704TIP3    H120076   0.247   0.135   2.996  1.8010  0.9893 -0.7000
 6704TIP3    H220077   0.116   0.207   2.971  2.0910  1.7348 -0.1241
 6705TIP3   OH220078   0.154   5.577   3.335  0.3973 -0.2706 -0.3532
 6705TIP3    H120079   0.217   5.626   3.283  1.0322  0.8728  1.3798
 6705TIP3    H220080   0.074   5.577   3.283  1.3073 -0.1503 -1.7877
 6706TIP3   OH220081   3.138   0.305   0.697  0.2554 -0.0714  0.0596
 6706TIP3    H120082   3.162   0.395   0.674 -0.1812 -0.3662 -1.7210
 6706TIP3    H220083   3.222   0.262   0.714  0.3990  1.1634  3.3213
 6707TIP3   OH220084   0.805   4.873   4.670  0.3566  0.4859  0.1256
 6707TIP3    H120085   0.807   4.831   4.756 -0.3195  1.2724  0.5374
 6707TIP3    H220086   0.896   4.871   4.641  0.4014 -0.9331  0.2851
 6708TIP3   OH220087   1.213   3.453   0.618 -0.4872  0.0163 -0.2368
 6708TIP3    H120088   1.284   3.517   0.616  1.4056 -1.9261  0.9008
 6708TIP3    H220089   1.138   3.502   0.652  0.8421  1.6776  0.4619
 6709TIP3   OH220090   5.519   2.816   3.937 -0.6410 -0.6206  0.0120
 6709TIP3    H120091   5.560   2.852   3.858  1.0783 -0.8301  0.7713
 6709TIP3    H220092   5.506   2.892   3.994 -0.8872 -0.6216 -0.0418
 6710TIP3   OH220093   7.116   2.831   4.667  0.1350  0.1581 -0.0024
 6710TIP3    H120094   7.076   2.874   4.591  2.4900  1.2091 -0.7554
 6710TIP3    H220095   7.063   2.859   4.741 -1.7871 -0.2927 -1.1260
 6711TIP3   OH220096   3.892   4.811   3.091  0.2021  0.0143 -0.2294
 6711TIP3    H120097   3.827   4.761   3.041  1.8063  0.8316 -3.3974
 6711TIP3    H220098   3.940   4.746   3.141 -1.1708 -0.9154 -0.0577
 6712TIP3   OH220099   3.641   0.098   5.352 -0.3042  0.8174 -0.3094
 6712TIP3    H120100   3.668   0.178   5.307  0.2363  0.1064 -1.2622
 6712TIP3    H220101   3.677   0.027   5.300  0.0728 -0.0474  1.0729
 6713TIP3   OH220102   2.087   0.654   5.787 -0.3461  0.5952 -0.8554
 6713TIP3    H120103   2.047   0.656   5.874  1.0054  0.9496 -0.2265
 6713TIP3    H220104   2.092   0.746   5.761  4.0537  1.1438  1.0250
 6714TIP3   OH220105   5.580   5.891   1.985  0.7288 -0.8999 -0.2983
 6714TIP3    H120106   5.518   5.901   2.057  0.3477 -1.1069 -0.5937
 6714TIP3    H220107   5.532   5.841   1.919 -0.0105  1.7332 -1.9265
 6715TIP3   OH220108   6.746   6.604   3.259 -0.1898 -0.2825  0.3651
 6715TIP3    H120109   6.795   6.605   3.177 -0.0311 -1.3115  0.4376
 6715TIP3    H220110   6.759   6.691   3.296  1.2245 -0.4001  0.1808
 6716TIP3   OH220111   0.249   0.359   4.168  0.1382 -0.2348 -0.2580
 6716TIP3    H120112   0.169   0.340   4.119 -0.0776 -0.8893  0.3145
 6716TIP3    H220113   0.232   0.443   4.211 -0.2461 -0.3625 -0.1532
 6717TIP3   OH220114   6.521   3.289   0.807 -0.3518 -0.0192 -0.0493
 6717TIP3    H120115   6.555   3.200   0.798  1.7142  0.4897  1.7103
 6717TIP3    H220116   6.433   3.277   0.844 -0.4247 -1.3183 -0.5660
 6718TIP3   OH220117   3.016   2.073   3.177 -0.0408  0.0873  0.2590
 6718TIP3    H120118   3.080   2.110   3.238  0.3384  0.2582 -0.2377
 6718TIP3    H220119   3.068   2.041   3.104 -0.5881  1.3902 -0.7568
 6719TIP3   OH220120   2.700   1.045   5.578 -0.4454 -0.0625  0.7262
 6719TIP3    H120121   2.777   1.019   5.528  0.4398  3.8899 -0.3157
 6719TIP3    H220122   2.709   0.998   5.661  0.3890 -3.4275 -1.0925
 6720TIP3   OH220123   4.636   5.778   5.037  0.1867  0.4055  0.3628
 6720TIP3    H120124   4.605   5.703   4.986  0.7395  0.0406  0.5574
 6720TIP3    H220125   4.617   5.755   5.128 -1.0631  1.1834  0.3162
 6721TIP3   OH220126   4.319   3.467   3.475 -0.1820 -0.0666  0.3727
 6721TIP3    H120127   4.389   3.401   3.474 -0.0700 -0.1046 -3.0422
 6721TIP3    H220128   4.364   3.549   3.456 -0.6779  0.5721  1.8156
 6722TIP3   OH220129   6.840   4.871   1.940  0.4183 -0.3381  0.1705
 6722TIP3    H120130   6.812   4.795   1.991 -1.9377 -0.8316 -1.7051
 6722TIP3    H220131   6.780   4.941   1.965  0.4390 -0.0507 -0.5716
 6723TIP3   OH220132   3.171   5.076   5.196  0.5980 -0.3263 -0.2947
 6723TIP3    H120133   3.134   5.047   5.280  2.4628  0.2731  0.7964
 6723TIP3    H220134   3.227   5.003   5.168  0.7530 -0.1278 -0.5081
 6724TIP3   OH220135   0.866   1.837   2.076 -0.3813 -0.4346  0.0377
 6724TIP3    H120136   0.891   1.896   2.147  2.2568 -1.6142  0.1841
 6724TIP3    H220137   0.921   1.862   2.002 -1.5350 -0.6607 -0.9488
 6725TIP3   OH220138   5.917   5.388   1.529 -0.1122  0.3044  0.4439
 6725TIP3    H120139   5.880   5.306   1.563  1.9783 -1.9934 -2.3678
 6725TIP3    H220140   6.007   5.389   1.561  0.7164  0.0405 -1.7175
 6726TIP3   OH220141   0.334   2.156   2.658 -0.0937  0.1567  0.3979
 6726TIP3    H120142   0.241   2.178   2.651  0.1579  1.7731  1.6523
 6726TIP3    H220143   0.335   2.073   2.705 -0.8902  0.3720  0.8162
 6727TIP3   OH220144   6.469   5.443   1.589  0.1148  0.1535  0.1572
 6727TIP3    H120145   6.508   5.485   1.513 -0.0869  0.8942  0.4515
 6727TIP3    H220146   6.526   5.369   1.608  0.5510  0.3702 -0.2973
 6728TIP3   OH220147   5.582   1.853   1.295 -0.3697 -0.1949 -0.2911
 6728TIP3    H120148   5.547   1.936   1.262  0.4126  0.6779  0.9751
 6728TIP3    H220149   5.523   1.786   1.260 -0.5168  0.8045 -2.0314
 6729TIP3   OH220150   4.452   5.560   4.086 -0.3961 -0.4624  0.2061
 6729TIP3    H120151   4.486   5.481   4.126  2.3423  0.0388 -0.9548
 6729TIP3    H220152   4.425   5.533   3.998  0.3327 -0.1662 -0.1132
 6730TIP3   OH220153   0.737   6.008   0.760 -1.1154  0.1007  0.0515
 6730TIP3    H120154   0.782   5.951   0.821  0.1660  2.5630  1.5938
 6730TIP3    H220155   0.786   6.001   0.679 -0.0371  0.1320  0.6889
 6731TIP3   OH220156   5.303   6.454   2.118  0.0781 -0.0374  0.5607
 6731TIP3    H120157   5.339   6.366   2.105 -0.2515 -0.4048  1.8967
 6731TIP3    H220158   5.292   6.461   2.213 -0.4921  1.2189  0.4245
 6732TIP3   OH220159   3.570   1.610   0.031  0.0841 -0.3241  0.4481
 6732TIP3    H120160   3.612   1.649  -0.047  0.3147 -1.3238  0.0600
 6732TIP3    H220161   3.609   1.657   0.104  0.8422 -0.2648  0.0201
 6733TIP3   OH220162   0.244   2.709   0.851 -0.1191  0.2606 -0.5262
 6733TIP3    H120163   0.297   2.634   0.877 -1.4723 -0.6898 -0.4441
 6733TIP3    H220164   0.227   2.697   0.758 -1.3094 -0.1730 -0.2681
 6734TIP3   OH220165   4.832   3.406   3.300  0.6792  0.3826  0.4884
 6734TIP3    H120166   4.850   3.445   3.215 -1.0792  0.7370  0.2399
 6734TIP3    H220167   4.918   3.385   3.336  1.4223 -0.2747 -1.5850
 6735TIP3   OH220168   3.404   0.024   5.567 -0.5929  0.0358  0.0698
 6735TIP3    H120169   3.445   0.014   5.652 -0.5852 -0.9617 -0.0439
 6735TIP3    H220170   3.466  -0.015   5.505 -0.8979  0.1441 -0.3122
 6736TIP3   OH220171   3.534   2.720   0.454  0.1585 -0.3591 -0.4889
 6736TIP3    H120172   3.462   2.776   0.484  1.5642  0.3884  1.7512
 6736TIP3    H220173   3.491   2.638   0.428 -1.7145  0.9436 -1.6980
 6737TIP3   OH220174   3.749   2.940   3.614 -0.4210  0.4155 -0.0091
 6737TIP3    H120175   3.836   2.940   3.655  0.4204 -0.6221 -1.6832
 6737TIP3    H220176   3.765   2.907   3.526 -2.7590 -1.2663  0.1272
 6738TIP3   OH220177   1.402   0.134   2.679  0.0594  0.7326  0.4556
 6738TIP3    H120178   1.319   0.153   2.722 -0.1977  0.8683 -0.0937
 6738TIP3    H220179   1.393   0.170   2.591 -0.0657 -0.9839 -0.2885
 6739TIP3   OH220180   5.790   4.715   0.369  0.6607  0.2964  0.3540
 6739TIP3    H120181   5.884   4.716   0.350  0.6709  0.8408  0.4048
 6739TIP3    H220182   5.755   4.789   0.319  0.0880 -0.5135 -0.4816
 6740TIP3   OH220183   5.292   2.614   4.746  0.3724  0.5605 -0.1973
 6740TIP3    H120184   5.203   2.650   4.742 -0.0686 -0.5920 -1.7465
 6740TIP3    H220185   5.330   2.636   4.661  1.7214  1.3250  0.5655
 6741TIP3   OH220186   6.880   2.568   0.083 -0.3799  0.1051  0.2308
 6741TIP3    H120187   6.950   2.634   0.084 -0.4241  0.1642 -0.3402
 6741TIP3    H220188   6.829   2.587   0.161 -0.3005  0.6535  0.1532
 6742TIP3   OH220189   0.383   5.449   1.657 -0.2376 -0.1080 -0.0500
 6742TIP3    H120190   0.428   5.532   1.675 -0.4750  0.1785 -0.7758
 6742TIP3    H220191   0.293   5.463   1.686  0.2109 -0.8631  1.9270
 6743TIP3   OH220192   1.923   6.399   4.665  0.1699 -0.4890 -0.5017
 6743TIP3    H120193   1.896   6.323   4.614 -0.8505  0.4024 -1.3441
 6743TIP3    H220194   1.842   6.435   4.700  0.7126 -0.2064  0.5222
 6744TIP3   OH220195   2.242   1.621   1.190  0.0301  0.6217 -0.2867
 6744TIP3    H120196   2.292   1.591   1.114 -0.0966  0.7053 -0.4035
 6744TIP3    H220197   2.305   1.621   1.261  0.5716  2.1174 -0.7365
 6745TIP3   OH220198   6.627   0.137   5.578  0.1727 -0.0606 -0.2582
 6745TIP3    H120199   6.704   0.188   5.553  0.2843 -1.0506 -2.0308
 6745TIP3    H220200   6.646   0.048   5.549 -0.8034 -0.7670  1.1298
 6746TIP3   OH220201   0.752   6.677   3.816  0.4281  0.0275  0.4124
 6746TIP3    H120202   0.674   6.731   3.832  1.2394  1.0138  1.1211
 6746TIP3    H220203   0.785   6.706   3.732  0.9383  0.7603  0.8519
 6747TIP3   OH220204   1.662   2.046   1.325 -0.2157  0.3542  0.4113
 6747TIP3    H120205   1.613   2.121   1.290 -0.4667 -0.9987 -2.4541
 6747TIP3    H220206   1.597   1.997   1.374 -0.5680  0.9511  0.5566
 6748TIP3   OH220207   5.202   2.860   2.592 -0.3474 -0.1596  0.0812
 6748TIP3    H120208   5.291   2.829   2.605  0.0446  0.6300 -0.6238
 6748TIP3    H220209   5.157   2.839   2.673 -0.1725 -2.7194 -0.3996
 6749TIP3   OH220210   1.590   5.233   4.603 -0.1086 -0.0728 -0.1995
 6749TIP3    H120211   1.570   5.238   4.510  3.6901 -0.0957 -1.1837
 6749TIP3    H220212   1.600   5.140   4.621 -0.1508 -0.0298  0.0592
 6750TIP3   OH220213   4.088   5.386   5.488 -0.2078 -0.4944  0.0250
 6750TIP3    H120214   4.025   5.372   5.418 -0.5401  0.7990  0.0378
 6750TIP3    H220215   4.165   5.422   5.444 -0.8346  1.4548  0.4001
 6751TIP3   OH220216   1.632   3.019   3.983  0.0510  0.0137 -0.1718
 6751TIP3    H120217   1.702   3.076   3.951 -0.2319  0.6203  0.2548
 6751TIP3    H220218   1.563   3.027   3.917 -0.3391  0.8813  0.3207
 6752TIP3   OH220219   4.614   4.235   2.619  0.5504  0.0352  0.6459
 6752TIP3    H120220   4.658   4.279   2.547 -1.2726  0.5104 -0.2039
 6752TIP3    H220221   4.580   4.305   2.674  0.8073 -0.3263  1.2863
 6753TIP3   OH220222   6.371   5.038   4.625 -0.3663 -0.4144  0.2187
 6753TIP3    H120223   6.343   5.086   4.703  2.0212  0.7240  0.4854
 6753TIP3    H220224   6.404   4.955   4.658  1.8988  0.5929  0.6993
 6754TIP3   OH220225   6.973   1.550   2.438  0.1002 -0.5226 -0.0719
 6754TIP3    H120226   7.009   1.631   2.475 -0.9313 -0.7049  1.4206
 6754TIP3    H220227   6.894   1.578   2.393 -1.5050 -0.8899  2.3295
 6755TIP3   OH220228   6.623   3.876   4.882 -0.1853 -0.5714  0.3539
 6755TIP3    H120229   6.564   3.942   4.918 -0.1066 -0.2779 -0.0559
 6755TIP3    H220230   6.565   3.808   4.848 -0.2766 -1.7867  2.6907
 6756TIP3   OH220231   1.574   6.316   5.735  0.2999  0.2670 -0.9902
 6756TIP3    H120232   1.653   6.330   5.786  0.7473 -1.1148 -1.2410
 6756TIP3    H220233   1.535   6.237   5.774 -1.1625  1.1408 -0.6250
 6757TIP3   OH220234   2.367   4.021   3.415 -0.3753  0.2523  0.6122
 6757TIP3    H120235   2.395   4.109   3.389 -1.3479  0.2636 -0.4722
 6757TIP3    H220236   2.282   4.034   3.457  0.5698  0.0761  2.6814
 6758TIP3   OH220237   1.507   3.691   3.889  0.0433 -0.3283  0.0581
 6758TIP3    H120238   1.413   3.699   3.903  0.0159  1.2772 -0.8586
 6758TIP3    H220239   1.546   3.744   3.959  0.3124 -1.4432  0.7800
 6759TIP3   OH220240   3.148   0.561   3.998 -0.4881 -0.5187 -0.6257
 6759TIP3    H120241   3.143   0.636   3.940 -0.4794  0.1863  0.2647
 6759TIP3    H220242   3.110   0.592   4.080 -0.1308 -1.3697 -0.1273
 6760TIP3   OH220243   3.657   5.590   2.800 -0.4001 -0.6799  0.4932
 6760TIP3    H120244   3.665   5.498   2.825  1.3238 -0.6864  0.0194
 6760TIP3    H220245   3.660   5.589   2.704 -1.7084 -0.2250  0.4286
 6761TIP3   OH220246   4.604   5.305   2.111 -0.3443 -0.1996  0.6431
 6761TIP3    H120247   4.614   5.320   2.017  1.3033 -1.7859  0.5050
 6761TIP3    H220248   4.608   5.393   2.150 -1.8141  0.5501 -0.7885
 6762TIP3   OH220249   4.234   0.932   2.827  0.1432 -1.0849 -0.1825
 6762TIP3    H120250   4.294   0.981   2.770 -0.5387 -0.2643 -0.2056
 6762TIP3    H220251   4.290   0.896   2.895  0.6904 -0.4331 -0.2774
 6763TIP3   OH220252   0.656   6.555   3.204  0.0831  0.2590 -0.1803
 6763TIP3    H120253   0.657   6.642   3.163  0.8355  0.2562 -0.1803
 6763TIP3    H220254   0.621   6.570   3.292  1.0926  0.7201  0.1553
 6764TIP3   OH220255   1.741   1.246   4.198 -0.0452  0.0218 -0.4780
 6764TIP3    H120256   1.681   1.275   4.266 -0.9238 -0.9807 -0.7974
 6764TIP3    H220257   1.801   1.186   4.243 -0.4787 -0.4575 -0.5350
 6765TIP3   OH220258   4.523   5.679   5.289 -0.7476 -0.0765 -0.7725
 6765TIP3    H120259   4.469   5.607   5.257  0.1184 -0.0478 -2.3710
 6765TIP3    H220260   4.460   5.745   5.318 -1.5712 -0.3623 -1.8480
 6766TIP3   OH220261   5.968   0.294   3.290  0.4604 -0.5701 -0.3901
 6766TIP3    H120262   5.887   0.345   3.283  0.7933  0.2995  1.5530
 6766TIP3    H220263   5.950   0.214   3.240 -1.6698 -0.4701  0.1141
 6767TIP3   OH220264   0.275   3.157   3.063  0.0856  0.0961 -0.2107
 6767TIP3    H120265   0.308   3.080   3.016 -1.3343 -1.1489  0.7301
 6767TIP3    H220266   0.238   3.213   2.994  1.8782  0.3756 -1.0004
 6768TIP3   OH220267   4.942   5.239   0.589 -0.2119  0.1179  0.4131
 6768TIP3    H120268   4.940   5.265   0.497  0.9892 -0.1287  0.2977
 6768TIP3    H220269   5.025   5.273   0.622 -0.4325 -0.1615  1.2941
 6769TIP3   OH220270   5.069   0.682   3.500  0.5721  0.6263  0.2570
 6769TIP3    H120271   5.159   0.709   3.514  0.5861 -0.1344  1.7539
 6769TIP3    H220272   5.038   0.653   3.586 -0.7226 -0.2521 -0.4677
 6770TIP3   OH220273   1.988   4.381   5.300  0.0297  0.3290  0.3291
 6770TIP3    H120274   2.015   4.472   5.289  0.2920  0.1811 -0.3144
 6770TIP3    H220275   1.954   4.376   5.389  1.3571  0.7136  0.8797
 6771TIP3   OH220276   7.179   2.231   4.872  0.1265  0.5531  0.2914
 6771TIP3    H120277   7.248   2.178   4.833  0.1916 -1.6653  3.0812
 6771TIP3    H220278   7.102   2.218   4.816  1.2617  1.0664 -1.4520
 6772TIP3   OH220279   6.208   4.805   3.667  0.2745 -0.4432 -0.2567
 6772TIP3    H120280   6.138   4.746   3.695 -0.3415 -0.3012 -1.4257
 6772TIP3    H220281   6.163   4.875   3.621  1.1819 -0.2663 -0.9012
 6773TIP3   OH220282   6.690   1.790   4.771 -0.2225 -0.1962 -0.2673
 6773TIP3    H120283   6.663   1.773   4.680 -0.4499 -0.7876 -0.0899
 6773TIP3    H220284   6.755   1.722   4.790 -1.0542 -0.8230  0.4048
 6774TIP3   OH220285   5.178   6.529   5.544 -0.3452  0.4512 -0.2343
 6774TIP3    H120286   5.211   6.440   5.529  1.1271  0.8860  0.2676
 6774TIP3    H220287   5.153   6.560   5.456  2.3154  0.7167 -0.9929
 6775TIP3   OH220288   1.011   2.430   2.348 -0.0440  1.0818 -0.1790
 6775TIP3    H120289   0.985   2.388   2.430  1.6985  2.0433  0.9289
 6775TIP3    H220290   0.934   2.482   2.323 -1.4324 -0.9366 -0.4257
 6776TIP3   OH220291   2.992   6.446   0.250 -0.3709 -0.6118 -0.0896
 6776TIP3    H120292   3.044   6.379   0.206 -0.2373  0.5024 -1.7032
 6776TIP3    H220293   3.031   6.529   0.222 -0.9826  0.1710  1.2829
 6777TIP3   OH220294   5.353   4.826   4.412  0.6530 -0.6851 -0.1583
 6777TIP3    H120295   5.289   4.895   4.395  1.3021  0.1839  0.8266
 6777TIP3    H220296   5.301   4.747   4.425 -0.0607 -0.7029 -2.5525
 6778TIP3   OH220297   2.944   6.298   3.910  0.3143 -0.7059 -0.0341
 6778TIP3    H120298   2.871   6.293   3.971 -0.9823 -1.6456 -1.5958
 6778TIP3    H220299   2.954   6.391   3.891 -0.4219 -0.5651  0.2580
 6779TIP3   OH220300   6.286   4.540   4.738  0.1987  0.0611  0.5856
 6779TIP3    H120301   6.296   4.610   4.802 -2.2652  1.4157 -0.4019
 6779TIP3    H220302   6.344   4.565   4.666 -2.0714  2.2463 -0.6107
 6780TIP3   OH220303   2.447   2.611   2.093 -0.9023  0.7314  0.8239
 6780TIP3    H120304   2.415   2.693   2.131 -0.1034  1.2481  0.3884
 6780TIP3    H220305   2.462   2.555   2.169 -0.0166  1.5119  1.2463
 6781TIP3   OH220306   1.360   6.484   0.337  0.1226 -0.5465 -0.2103
 6781TIP3    H120307   1.295   6.451   0.275 -1.2236 -1.2994  1.5137
 6781TIP3    H220308   1.366   6.415   0.404  3.2730 -0.8622 -0.6529
 6782TIP3   OH220309   4.803   3.184   0.430 -0.2902 -0.2042 -0.0352
 6782TIP3    H120310   4.867   3.168   0.500 -0.3667 -0.2284  0.0293
 6782TIP3    H220311   4.854   3.176   0.349  0.2805  1.9617  0.0473
 6783TIP3   OH220312   0.159   5.149   3.216 -0.5141  0.7423  0.2637
 6783TIP3    H120313   0.253   5.149   3.230 -0.3352  2.0605 -0.7055
 6783TIP3    H220314   0.125   5.085   3.278  1.0397  0.0351  0.4282
 6784TIP3   OH220315   2.605   6.029   3.344  0.7790  0.1327 -0.2227
 6784TIP3    H120316   2.681   6.072   3.307 -0.1638  1.8803 -0.2400
 6784TIP3    H220317   2.598   5.946   3.296  1.7763  0.6382 -1.2688
 6785TIP3   OH220318   2.899   3.694   4.204  0.4929 -0.3121 -0.6660
 6785TIP3    H120319   2.949   3.642   4.267 -1.8739 -1.3210  0.5143
 6785TIP3    H220320   2.900   3.642   4.124  0.0876 -1.0488 -0.2012
 6786TIP3   OH220321   0.695   0.224   3.928 -0.0835 -1.2273 -0.0621
 6786TIP3    H120322   0.674   0.187   3.842  0.4976  1.3412 -1.4127
 6786TIP3    H220323   0.631   0.294   3.940  2.5665  1.4551 -0.5958
 6787TIP3   OH220324   5.180   2.810   0.440 -0.0406  0.2966  0.0189
 6787TIP3    H120325   5.165   2.828   0.533 -1.6067 -0.1076 -0.1352
 6787TIP3    H220326   5.097   2.777   0.408  0.7336 -0.4351 -1.3345
 6788TIP3   OH220327   0.093   3.577   3.877 -0.3397 -0.5312 -0.1541
 6788TIP3    H120328   0.072   3.670   3.874  1.9421  0.0621  0.5850
 6788TIP3    H220329   0.176   3.572   3.924  0.7345 -2.7214 -2.0600
 6789TIP3   OH220330   4.341   5.338   1.871  0.7789  0.4993  0.2803
 6789TIP3    H120331   4.297   5.370   1.791  1.5567  1.0255  0.0573
 6789TIP3    H220332   4.370   5.417   1.916  0.4152  0.1992  1.0602
 6790TIP3   OH220333   7.161   3.569   2.859  0.2702  0.1876 -0.5750
 6790TIP3    H120334   7.242   3.593   2.906  0.2515 -0.2406 -0.3175
 6790TIP3    H220335   7.105   3.532   2.927 -0.0805  0.3323 -0.7878
 6791TIP3   OH220336   3.744   6.487   2.436  0.4910 -0.1997  0.0549
 6791TIP3    H120337   3.754   6.432   2.515 -0.4476 -3.1561 -1.7298
 6791TIP3    H220338   3.817   6.461   2.380 -1.6393 -2.0606 -2.0811
 6792TIP3   OH220339   6.515   4.759   4.254  0.4253  0.5094 -0.3952
 6792TIP3    H120340   6.459   4.717   4.188  1.4389 -0.1524 -0.8700
 6792TIP3    H220341   6.460   4.827   4.293 -0.7451 -0.2110 -0.7397
 6793TIP3   OH220342   3.479   6.537   0.760  0.1740 -1.0278  0.5331
 6793TIP3    H120343   3.480   6.556   0.666 -0.4968 -2.5852  0.1811
 6793TIP3    H220344   3.521   6.613   0.800  4.8196 -2.2223 -1.3661
 6794TIP3   OH220345   6.836   0.445   2.389  0.0549 -0.2803 -0.1367
 6794TIP3    H120346   6.778   0.370   2.389 -0.1062 -0.1636 -1.0580
 6794TIP3    H220347   6.904   0.423   2.325  0.4826 -0.0042  0.2150
 6795TIP3   OH220348   6.577   5.860   4.974 -0.5212 -0.0992 -0.3500
 6795TIP3    H120349   6.637   5.876   4.901 -2.4189 -0.7306 -2.1405
 6795TIP3    H220350   6.582   5.766   4.989 -1.9596 -0.3714 -1.3927
 6796TIP3   OH220351   5.234   1.044   1.317 -0.2627  0.1995  0.3110
 6796TIP3    H120352   5.250   1.137   1.337  2.1266 -0.2895  0.9822
 6796TIP3    H220353   5.166   1.018   1.379 -0.1985  1.2565  0.8570
 6797TIP3   OH220354   1.216   4.176   4.862  0.0917 -0.5118 -0.1840
 6797TIP3    H120355   1.293   4.189   4.806 -0.0605 -1.1465 -0.5412
 6797TIP3    H220356   1.252   4.149   4.947  0.2724 -0.5517 -0.2726
 6798TIP3   OH220357   1.924   2.429   4.574  0.0083  0.1301  0.1042
 6798TIP3    H120358   2.006   2.473   4.600  0.1990  0.6997 -1.3610
 6798TIP3    H220359   1.934   2.340   4.606  2.2022 -0.4512 -1.8671
 6799TIP3   OH220360   5.101   6.566   5.270  0.0527  0.3499  0.3944
 6799TIP3    H120361   5.031   6.507   5.243  1.4723 -1.9876  1.4973
 6799TIP3    H220362   5.088   6.645   5.217 -0.6842 -1.7266 -2.8301
 6800TIP3   OH220363   2.887   2.575   3.309 -0.0376  0.2444 -0.1693
 6800TIP3    H120364   2.860   2.648   3.254 -3.2026 -0.4164  0.2978
 6800TIP3    H220365   2.849   2.595   3.395 -0.0364 -1.4311  0.2469
 6801TIP3   OH220366   1.756   6.562   1.187  0.3904  0.1555 -0.3508
 6801TIP3    H120367   1.747   6.509   1.108  0.0800 -1.5727  0.7872
 6801TIP3    H220368   1.672   6.553   1.231  1.0478 -0.1269  0.8866
 6802TIP3   OH220369   0.523   6.578   4.716  0.1062 -0.0541  0.7031
 6802TIP3    H120370   0.559   6.504   4.765  0.1525 -1.1361 -0.9193
 6802TIP3    H220371   0.428   6.564   4.718 -0.0637  0.9907  2.1152
 6803TIP3   OH220372   0.964   0.800   5.319 -0.3210 -0.3624  0.1731
 6803TIP3    H120373   0.959   0.884   5.272 -2.0502 -0.8033 -0.4913
 6803TIP3    H220374   0.885   0.797   5.372 -0.6916 -1.9239 -0.4178
 6804TIP3   OH220375   2.940   6.569   0.890 -0.1931  0.1273 -0.0636
 6804TIP3    H120376   2.863   6.570   0.834 -0.3028 -0.2397  0.0797
 6804TIP3    H220377   2.947   6.659   0.923 -2.2014 -0.4510  2.1596
 6805TIP3   OH220378   6.558   6.440   2.903  0.1737  0.0198 -0.1111
 6805TIP3    H120379   6.581   6.350   2.926  1.4519  0.0074 -1.2774
 6805TIP3    H220380   6.494   6.466   2.969  0.6209 -1.3502  0.9210
 6806TIP3   OH220381   5.695   2.272   3.215  0.2388  0.4549 -0.1566
 6806TIP3    H120382   5.637   2.200   3.190 -0.6865  1.4284 -0.8977
 6806TIP3    H220383   5.782   2.243   3.188 -0.5848  1.2256 -4.4025
 6807TIP3   OH220384   0.276   5.359   4.046 -0.0479 -0.0045 -0.2506
 6807TIP3    H120385   0.275   5.264   4.037 -1.1331 -0.0248 -0.0740
 6807TIP3    H220386   0.319   5.390   3.967 -0.8824 -0.5889 -0.9563
 6808TIP3   OH220387   1.522   5.172   2.039 -0.2160  0.0772 -0.1747
 6808TIP3    H120388   1.578   5.202   2.111  1.0713 -2.2995 -0.0951
 6808TIP3    H220389   1.550   5.224   1.964  3.0939 -1.8219 -0.4356
 6809TIP3   OH220390   5.105   0.867   3.878  0.3323 -0.4176 -0.3598
 6809TIP3    H120391   5.069   0.913   3.802 -0.7605 -2.3871 -1.1041
 6809TIP3    H220392   5.177   0.815   3.843 -0.0342 -1.1718 -0.0018
 6810TIP3   OH220393   3.990   6.671   1.835  0.8093  0.4927 -0.0996
 6810TIP3    H120394   4.035   6.596   1.795 -1.7466 -1.6841  0.8031
 6810TIP3    H220395   3.995   6.654   1.929 -0.2630  1.1720  0.0966
 6811TIP3   OH220396   0.173   1.268   4.584  0.3770  0.6312 -0.1285
 6811TIP3    H120397   0.081   1.290   4.577 -0.0593 -1.0699 -0.2633
 6811TIP3    H220398   0.186   1.199   4.518  0.9556 -1.4445  2.0032
 6812TIP3   OH220399   0.694   1.223   2.554  0.3599 -0.1945  0.6727
 6812TIP3    H120400   0.664   1.134   2.570  1.1586 -0.3327  1.4723
 6812TIP3    H220401   0.686   1.234   2.459  2.3574 -1.9314  0.2226
 6813TIP3   OH220402   1.009   6.265   2.228 -0.4224  0.6524  0.3392
 6813TIP3    H120403   1.002   6.194   2.290 -0.0882 -0.1727 -0.5394
 6813TIP3    H220404   1.100   6.261   2.196 -0.8156  0.5137 -0.8178
 6814TIP3   OH220405   4.879   5.906   1.504 -0.3739  0.2355  0.7158
 6814TIP3    H120406   4.874   5.974   1.571 -1.2373  0.0501  0.8616
 6814TIP3    H220407   4.810   5.930   1.441  0.5968  0.5611 -0.2688
 6815TIP3   OH220408   3.482   5.086   3.178 -0.1854  0.7825  0.1276
 6815TIP3    H120409   3.572   5.053   3.185  0.4656  2.4805  0.0468
 6815TIP3    H220410   3.435   5.041   3.249  0.5472 -0.6028 -0.2247
 6816TIP3   OH220411   3.968   6.053   5.825 -0.0736 -0.1781 -0.0223
 6816TIP3    H120412   3.998   6.025   5.911  1.0245  0.7378 -0.0949
 6816TIP3    H220413   3.904   6.121   5.842  0.6503  0.4916  0.0735
 6817TIP3   OH220414   6.271   5.470   0.576  0.4176  0.4866 -0.0645
 6817TIP3    H120415   6.281   5.455   0.670  0.9056  1.2100  0.0010
 6817TIP3    H220416   6.198   5.413   0.551  1.0652 -0.6374  0.5135
 6818TIP3   OH220417   5.972   4.412   3.304 -0.3754  0.3084 -0.9002
 6818TIP3    H120418   5.944   4.500   3.281 -0.0701  0.5332 -0.4389
 6818TIP3    H220419   6.067   4.412   3.288  0.2290  1.0985  2.1257
 6819TIP3   OH220420   3.437   6.460   1.653  0.2636 -0.0121 -0.0149
 6819TIP3    H120421   3.482   6.404   1.590  1.0849  1.7449 -1.0704
 6819TIP3    H220422   3.362   6.495   1.605  1.3092  1.9206 -0.3095
 6820TIP3   OH220423   2.981   6.447   1.527 -0.0588 -0.1478  0.0711
 6820TIP3    H120424   3.046   6.376   1.523  1.3594  1.1392 -2.4718
 6820TIP3    H220425   3.030   6.525   1.502 -2.3018  1.1472 -0.5506
 6821TIP3   OH220426   0.891   0.430   5.010  0.1730 -0.1754 -0.1616
 6821TIP3    H120427   0.906   0.453   5.102  0.6798 -1.6637  0.1519
 6821TIP3    H220428   0.809   0.473   4.988  0.0280  0.1896  0.9917
 6822TIP3   OH220429   1.459   5.902   5.075 -0.1147 -0.0107 -0.3305
 6822TIP3    H120430   1.470   5.849   4.996  1.6368  0.2716 -0.3226
 6822TIP3    H220431   1.526   5.970   5.067  0.6764 -0.4653  1.7788
 6823TIP3   OH220432   6.666   2.848   2.548 -0.1534  0.0455  0.3333
 6823TIP3    H120433   6.606   2.776   2.570  0.4810 -0.8349 -0.7579
 6823TIP3    H220434   6.626   2.925   2.589 -2.1469 -0.4721 -0.5181
 6824TIP3   OH220435   6.696   2.838   4.815 -0.5284 -0.2732  0.2003
 6824TIP3    H120436   6.610   2.856   4.778 -0.3390  0.3999  0.0893
 6824TIP3    H220437   6.752   2.821   4.739 -0.7501 -1.6059  0.3025
 6825TIP3   OH220438   5.516   5.407   3.221  0.0645  0.6234 -0.5357
 6825TIP3    H120439   5.513   5.398   3.316  0.5354 -0.7634 -0.6281
 6825TIP3    H220440   5.506   5.318   3.188 -0.3346  1.1088 -1.8033
 6826TIP3   OH220441   4.891   1.962   0.857  0.2448 -0.1957 -0.4493
 6826TIP3    H120442   4.914   2.011   0.936 -0.7035  1.9932 -1.4687
 6826TIP3    H220443   4.944   2.002   0.788 -0.1815 -0.9531 -1.2367
 6827TIP3   OH220444   5.152   6.549   2.641  0.0701  0.3246 -0.0136
 6827TIP3    H120445   5.110   6.556   2.555  2.3640  1.7978 -1.1145
 6827TIP3    H220446   5.209   6.473   2.634  0.7644  0.8375 -0.0729
 6828TIP3   OH220447   1.847   0.113   4.592 -0.0593  0.6048 -0.3419
 6828TIP3    H120448   1.876   0.089   4.504 -0.5562  1.0784 -0.6447
 6828TIP3    H220449   1.920   0.164   4.628  0.1681  0.3625 -0.4529
 6829TIP3   OH220450   6.418   2.410   1.738  0.0365  0.1003  0.1554
 6829TIP3    H120451   6.382   2.495   1.713 -1.3412 -0.9737 -1.7531
 6829TIP3    H220452   6.428   2.362   1.655  1.2903 -1.4204  1.1206
 6830TIP3   OH220453   4.246   3.877   0.650  0.3583  0.3351  0.3535
 6830TIP3    H120454   4.277   3.849   0.564  1.0719  0.4764  0.5553
 6830TIP3    H220455   4.195   3.956   0.633  1.0934  0.7657  0.1386
 6831TIP3   OH220456   1.052   4.924   4.813  0.1964  0.3872 -0.4000
 6831TIP3    H120457   1.145   4.905   4.813 -0.2958 -2.7619  1.7073
 6831TIP3    H220458   1.026   4.921   4.905 -2.0076  1.2493 -0.9150
 6832TIP3   OH220459   1.588   4.952   4.662  0.2846 -0.1403  0.1710
 6832TIP3    H120460   1.603   4.910   4.577  1.8012 -0.2680  0.4664
 6832TIP3    H220461   1.627   4.892   4.726  1.2047  1.0150  0.7351
 6833TIP3   OH220462   2.313   5.884   0.494 -0.0870 -0.4838 -0.8161
 6833TIP3    H120463   2.372   5.842   0.557 -1.1126  0.0514  0.5500
 6833TIP3    H220464   2.364   5.955   0.457  1.2494 -2.0844 -2.2280
 6834TIP3   OH220465   3.652   4.818   2.039  0.2621  0.1334  0.1703
 6834TIP3    H120466   3.687   4.825   2.128  2.8703 -1.8669 -0.5515
 6834TIP3    H220467   3.693   4.890   1.992 -1.6464  1.6012  0.6790
 6835TIP3   OH220468   2.714   3.997   2.394 -0.1285  0.4985 -0.2464
 6835TIP3    H120469   2.634   4.034   2.357  0.2148  1.4655 -0.0572
 6835TIP3    H220470   2.762   3.962   2.318 -0.2197  0.9209 -0.5001
 6836TIP3   OH220471   4.988   6.622   0.853  0.1357  0.5070  0.1363
 6836TIP3    H120472   5.008   6.600   0.762 -0.7619  1.2629 -0.2636
 6836TIP3    H220473   4.967   6.715   0.851 -0.3348  0.4326  1.0405
 6837TIP3   OH220474   1.068   4.466   4.153 -0.1229 -0.0648 -0.1355
 6837TIP3    H120475   1.125   4.488   4.226  1.2066 -1.8944 -0.5364
 6837TIP3    H220476   1.103   4.514   4.078  1.1199 -1.3778 -0.4359
 6838TIP3   OH220477   3.294   3.615   2.883 -0.4158 -0.2829  0.0542
 6838TIP3    H120478   3.222   3.551   2.879 -1.4943  0.9068 -0.4254
 6838TIP3    H220479   3.360   3.573   2.937 -2.6233 -0.3378  2.9608
 6839TIP3   OH220480   3.045   1.207   3.713 -0.5196  0.3401 -0.1859
 6839TIP3    H120481   3.091   1.268   3.656 -0.8635  0.2841 -0.5339
 6839TIP3    H220482   3.008   1.142   3.653  1.4142 -1.3119  0.3040
 6840TIP3   OH220483   0.351   3.021   3.388 -0.1266  0.0972 -0.5836
 6840TIP3    H120484   0.440   2.986   3.380  0.9242  1.5325  3.1123
 6840TIP3    H220485   0.350   3.098   3.331  0.5367 -0.5778 -1.5512
 6841TIP3   OH220486   1.436   2.235   2.224 -0.0551  0.2078 -0.2827
 6841TIP3    H120487   1.405   2.325   2.215  0.3045  0.3148 -0.4543
 6841TIP3    H220488   1.397   2.189   2.150  1.6932  0.7578 -1.5945
 6842TIP3   OH220489   4.503   6.058   2.362  0.1428 -0.1947  0.7050
 6842TIP3    H120490   4.533   6.139   2.403  0.6014  0.4998 -0.9077
 6842TIP3    H220491   4.412   6.050   2.391 -1.1402  2.9022 -1.8350
 6843TIP3   OH220492   5.257   3.306   0.868 -0.5949 -0.0351 -0.4024
 6843TIP3    H120493   5.303   3.390   0.862 -0.3479 -0.0976  0.5055
 6843TIP3    H220494   5.307   3.256   0.933 -1.7526 -0.2282  0.3696
 6844TIP3   OH220495   7.182   0.515   2.767 -0.5998  0.1144  0.3532
 6844TIP3    H120496   7.271   0.486   2.785 -1.1340 -0.9865  1.3831
 6844TIP3    H220497   7.130   0.482   2.840 -1.9221  0.4295 -0.3924
 6845TIP3   OH220498   4.018   1.396   1.152 -0.0503  0.2980  0.3583
 6845TIP3    H120499   3.969   1.477   1.169 -1.3199 -0.2796 -0.4476
 6845TIP3    H220500   3.988   1.335   1.219 -0.6782 -0.1516 -0.3210
 6846TIP3   OH220501   0.846   6.588   5.521  0.6086 -0.2382 -0.1281
 6846TIP3    H120502   0.921   6.645   5.531 -0.8583  1.4061  3.1218
 6846TIP3    H220503   0.786   6.635   5.463  1.1472 -0.5329 -0.9363
 6847TIP3   OH220504   1.684   4.679   4.293  0.5069 -0.4366  0.0496
 6847TIP3    H120505   1.634   4.760   4.293 -0.7805 -1.1405  1.9492
 6847TIP3    H220506   1.751   4.692   4.359  1.4957 -0.2724 -0.9683
 6848TIP3   OH220507   2.685   1.060   1.824 -0.1105  0.0033  0.1971
 6848TIP3    H120508   2.641   1.113   1.891  0.4256  0.1513  0.4443
 6848TIP3    H220509   2.778   1.069   1.845  0.0656  0.0888 -0.5974
 6849TIP3   OH220510   0.453   4.553   0.954 -0.2341  0.7892 -0.0020
 6849TIP3    H120511   0.526   4.492   0.948  0.2353  1.4599 -1.3130
 6849TIP3    H220512   0.461   4.609   0.877 -0.1705  3.0604  1.5495
 6850TIP3   OH220513   1.811   5.967   1.592 -0.1660  0.8480 -1.0008
 6850TIP3    H120514   1.719   5.951   1.617 -0.0269 -2.0659 -1.9451
 6850TIP3    H220515   1.822   5.919   1.510  3.0630 -2.1523  0.8841
 6851TIP3   OH220516   0.884   6.791   2.069  0.0551  0.2806 -0.4438
 6851TIP3    H120517   0.850   6.801   2.158  1.2988  0.3423  0.0413
 6851TIP3    H220518   0.918   6.702   2.065  1.0132  0.6381 -0.4909
 6852TIP3   OH220519   0.390   1.649   1.281  0.0947 -0.4570  0.1472
 6852TIP3    H120520   0.420   1.665   1.191 -0.5073 -1.6916 -0.2922
 6852TIP3    H220521   0.464   1.606   1.324 -0.2313 -1.4959 -0.2973
 6853TIP3   OH220522   1.855   3.736   1.618  0.1144  0.4663  0.1075
 6853TIP3    H120523   1.922   3.700   1.560  0.2966 -0.2130  0.7221
 6853TIP3    H220524   1.793   3.780   1.560 -0.7815 -1.8661 -0.8020
 6854TIP3   OH220525   5.004   5.568   2.648  0.0634  0.1567 -0.5758
 6854TIP3    H120526   4.947   5.494   2.629 -1.1942  0.6829  0.9325
 6854TIP3    H220527   5.092   5.531   2.653 -0.4987 -1.1590 -0.1955
 6855TIP3   OH220528   1.256   0.750   0.473 -0.0859  0.1857 -0.3071
 6855TIP3    H120529   1.258   0.801   0.392 -1.4886  1.2305  0.2550
 6855TIP3    H220530   1.164   0.754   0.500 -0.3663 -3.0711 -0.4470
 6856TIP3   OH220531   0.101   3.045   1.166  0.4949 -0.3283 -0.2451
 6856TIP3    H120532   0.096   3.078   1.076  1.9536 -0.7268 -0.5012
 6856TIP3    H220533   0.010   3.035   1.193  0.0335  0.2384 -1.5151
 6857TIP3   OH220534   6.472   1.744   5.288 -0.5919  0.4877 -0.7208
 6857TIP3    H120535   6.454   1.657   5.324 -3.4346  1.5816  0.7957
 6857TIP3    H220536   6.543   1.778   5.342  0.7837 -0.9203 -1.5345
 6858TIP3   OH220537   1.988   5.354   4.490  0.1366  0.8328  0.0021
 6858TIP3    H120538   2.082   5.337   4.495  0.1484  1.1537  1.0234
 6858TIP3    H220539   1.954   5.286   4.432  0.9000  0.3352  0.1341
 6859TIP3   OH220540   4.068   1.674   4.119  0.0285 -0.3341 -0.5608
 6859TIP3    H120541   4.001   1.733   4.086  0.3065 -0.5361 -1.5137
 6859TIP3    H220542   4.018   1.601   4.156 -0.3218 -1.3451 -2.8422
 6860TIP3   OH220543   4.819   3.573   3.771 -0.0802 -0.1647  0.0492
 6860TIP3    H120544   4.834   3.576   3.865  2.5384 -2.5909 -0.1526
 6860TIP3    H220545   4.907   3.567   3.733 -1.1404 -1.6141 -2.3876
 6861TIP3   OH220546   1.444   6.147   1.674 -0.3054 -0.1162  0.5645
 6861TIP3    H120547   1.477   6.068   1.715 -0.4484  0.3971  1.6969
 6861TIP3    H220548   1.458   6.133   1.580  1.9552 -0.4540  0.8917
 6862TIP3   OH220549   3.299   1.092   5.390  0.1614  0.1424  0.0366
 6862TIP3    H120550   3.267   1.108   5.301 -1.2003 -0.6646  0.3494
 6862TIP3    H220551   3.285   1.175   5.436  2.0588  0.9655 -0.8080
 6863TIP3   OH220552   5.971   2.953   0.736 -0.1512  0.5351 -0.2448
 6863TIP3    H120553   5.920   2.924   0.660 -0.9892 -1.0091  0.8499
 6863TIP3    H220554   5.966   2.880   0.797  1.7527  1.1426  0.7115
 6864TIP3   OH220555   4.582   2.194   1.082  0.1728 -0.1432  0.0700
 6864TIP3    H120556   4.498   2.169   1.044  1.2873 -1.8012 -1.4376
 6864TIP3    H220557   4.588   2.289   1.067 -0.8191 -0.2431 -1.0497
 6865TIP3   OH220558   3.640   5.771   5.722 -0.0974 -1.0015  0.2132
 6865TIP3    H120559   3.547   5.750   5.714 -0.3636  0.3082 -0.4365
 6865TIP3    H220560   3.686   5.693   5.691 -1.0063 -1.0065 -1.1801
 6866TIP3   OH220561   7.047   5.822   1.217 -0.5377  0.8509 -0.8000
 6866TIP3    H120562   7.043   5.897   1.157 -1.5196  1.3273 -0.1568
 6866TIP3    H220563   7.130   5.832   1.262 -0.3947  1.2218 -1.1359
 6867TIP3   OH220564   3.917   5.223   0.650 -0.0213 -0.5850 -0.1472
 6867TIP3    H120565   3.887   5.290   0.711  0.5226  2.1431 -2.6245
 6867TIP3    H220566   4.002   5.255   0.619 -0.6675 -1.2725 -2.9500
 6868TIP3   OH220567   3.698   4.530   4.224 -0.7309 -0.5175  0.3388
 6868TIP3    H120568   3.637   4.603   4.236  0.9614  0.9179  0.5680
 6868TIP3    H220569   3.725   4.507   4.313  0.3123 -0.0260  0.1550
 6869TIP3   OH220570   2.894   0.901   3.745 -0.3688 -0.6081 -0.1690
 6869TIP3    H120571   2.896   0.809   3.717 -0.1380 -0.6404 -0.0492
 6869TIP3    H220572   2.946   0.947   3.680  0.2739 -0.7027  0.2726
 6870TIP3   OH220573   1.110   3.363   4.926  0.0174 -0.2351  0.1657
 6870TIP3    H120574   1.037   3.327   4.876 -0.8403 -0.0303  1.2572
 6870TIP3    H220575   1.176   3.383   4.859 -0.6250 -1.0890 -0.7583
 6871TIP3   OH220576   4.085   4.657   1.061 -0.1788  0.5182 -0.3476
 6871TIP3    H120577   3.995   4.666   1.031 -0.0882  0.4307 -0.6506
 6871TIP3    H220578   4.126   4.598   0.997 -0.0783  0.0327  0.1510
 6872TIP3   OH220579   3.665   0.827   2.866 -0.1936  0.6704  0.0717
 6872TIP3    H120580   3.585   0.775   2.873 -0.3389  1.0319  1.4268
 6872TIP3    H220581   3.686   0.826   2.773  0.1917 -2.3507  0.1000
 6873TIP3   OH220582   3.019   0.970   3.508 -0.0063 -0.3031  0.3135
 6873TIP3    H120583   2.958   0.905   3.472 -0.4417  0.4953 -0.4214
 6873TIP3    H220584   3.021   1.040   3.443  0.0971  0.6388  1.2980
 6874TIP3   OH220585   3.905   4.462   3.293  0.2815  0.3777  1.2110
 6874TIP3    H120586   3.914   4.390   3.355  0.1144 -0.3372  0.4139
 6874TIP3    H220587   3.832   4.514   3.327 -1.9543 -1.7527 -0.0335
 6875TIP3   OH220588   2.356   2.682   3.847  0.2151 -0.0517  0.1462
 6875TIP3    H120589   2.273   2.645   3.879 -0.1043 -1.1614 -1.7703
 6875TIP3    H220590   2.335   2.716   3.760  1.2455  1.9320  0.6222
 6876TIP3   OH220591   5.741   1.652   4.189  0.0876 -0.2938  0.5469
 6876TIP3    H120592   5.728   1.558   4.178 -2.1729  0.2216 -2.1952
 6876TIP3    H220593   5.786   1.680   4.109 -1.0740  1.1949  0.3558
 6877TIP3   OH220594   2.171   5.756   3.651  0.0007 -0.3404  0.4485
 6877TIP3    H120595   2.122   5.815   3.708 -0.4937 -1.0873  0.8207
 6877TIP3    H220596   2.106   5.726   3.587  0.9665  2.0626 -1.8813
 6878TIP3   OH220597   4.264   1.265   1.943 -0.1755  0.4375 -0.4026
 6878TIP3    H120598   4.333   1.222   1.894  0.2826  0.9226 -0.1927
 6878TIP3    H220599   4.280   1.358   1.932 -0.9710  0.5664 -0.5912
 6879TIP3   OH220600   2.393   3.764   0.792 -0.0076 -0.0582  0.1705
 6879TIP3    H120601   2.411   3.679   0.751 -1.7413 -1.1057  1.4608
 6879TIP3    H220602   2.416   3.752   0.884 -0.4704  0.8073  0.4115
 6880TIP3   OH220603   5.941   0.955   0.508  0.6200  0.1028 -0.8310
 6880TIP3    H120604   5.948   0.859   0.513  0.4746  0.1566  0.7644
 6880TIP3    H220605   6.017   0.987   0.557 -0.1494  0.7995 -0.0851
 6881TIP3   OH220606   2.157   5.727   4.412  0.3213 -0.5258  0.3037
 6881TIP3    H120607   2.160   5.679   4.329  0.2433 -0.0884  0.0414
 6881TIP3    H220608   2.064   5.728   4.436  0.1922  0.2514 -0.1568
 6882TIP3   OH220609   2.395   5.738   1.414 -0.6583  0.0473 -0.0710
 6882TIP3    H120610   2.402   5.646   1.438  0.9336  0.0005 -0.6307
 6882TIP3    H220611   2.313   5.743   1.364 -1.0526 -0.9395  0.4573
 6883TIP3   OH220612   1.699   0.229   2.495  1.1222  0.3589  0.3244
 6883TIP3    H120613   1.630   0.219   2.561 -1.1706 -0.4925 -2.0549
 6883TIP3    H220614   1.703   0.323   2.479 -0.4285  0.3305 -0.3894
 6884TIP3   OH220615   6.014   2.591   1.935 -0.0797 -0.4706 -0.0465
 6884TIP3    H120616   5.976   2.644   2.005 -1.0182 -1.9309  0.5881
 6884TIP3    H220617   6.068   2.526   1.981 -0.2191 -1.0653 -0.7159
 6885TIP3   OH220618   7.132   2.799   5.478  0.3597 -0.1657  0.0218
 6885TIP3    H120619   7.160   2.762   5.561  0.1433 -0.5432 -0.0719
 6885TIP3    H220620   7.168   2.741   5.411  0.0776 -0.1730 -0.1271
 6886TIP3   OH220621   6.304   5.731   4.803 -0.1207 -0.3503 -0.1301
 6886TIP3    H120622   6.303   5.652   4.856  0.9257  0.4185  1.1060
 6886TIP3    H220623   6.395   5.762   4.809 -0.0227 -0.0935 -2.1908
 6887TIP3   OH220624   6.109   4.152   3.190  0.3011 -0.0457  0.2928
 6887TIP3    H120625   6.136   4.150   3.098 -0.5514  0.4502  0.0217
 6887TIP3    H220626   6.168   4.216   3.231  1.0968 -0.7235  0.2447
 6888TIP3   OH220627   1.517   2.198   3.836 -0.2471  0.2131  0.6476
 6888TIP3    H120628   1.541   2.118   3.883 -0.3239  0.2930  0.8257
 6888TIP3    H220629   1.422   2.193   3.827 -0.0839 -0.5441 -0.8662
 6889TIP3   OH220630   4.624   0.100   5.452  0.2660  0.3624 -0.2082
 6889TIP3    H120631   4.615   0.064   5.364 -1.0427 -0.5108  0.2514
 6889TIP3    H220632   4.550   0.160   5.461 -0.3972 -0.5742  0.7545
 6890TIP3   OH220633   2.682   2.361   1.132  0.4411 -0.0326  0.0838
 6890TIP3    H120634   2.746   2.347   1.062  2.9497 -1.3483  2.4499
 6890TIP3    H220635   2.732   2.402   1.202 -2.2002  2.1973  0.8568
 6891TIP3   OH220636   6.742   0.304   4.293 -0.4097 -0.0615 -0.0989
 6891TIP3    H120637   6.664   0.257   4.264  0.1639 -1.8321  1.1141
 6891TIP3    H220638   6.813   0.241   4.284  0.8579  1.4015 -0.8439
 6892TIP3   OH220639   1.588   3.589   4.831  0.3393 -0.2294  0.0688
 6892TIP3    H120640   1.663   3.648   4.833  0.6676 -0.6428  2.5646
 6892TIP3    H220641   1.589   3.545   4.916 -1.7420 -1.5073 -0.4905
 6893TIP3   OH220642   0.408   3.648   0.801  0.1030  0.0855  0.5697
 6893TIP3    H120643   0.390   3.738   0.828 -1.9434  0.0660 -0.6205
 6893TIP3    H220644   0.504   3.643   0.798  0.2503  2.3329  0.2272
 6894TIP3   OH220645   0.720   1.149   4.292  0.4667  0.1250  0.1877
 6894TIP3    H120646   0.731   1.089   4.218 -0.3740 -1.2084  1.0857
 6894TIP3    H220647   0.753   1.233   4.260 -0.3636 -0.2573 -1.8867
 6895TIP3   OH220648   6.681   2.779   1.874 -0.1967  0.1299  0.0329
 6895TIP3    H120649   6.693   2.832   1.952 -2.8003 -0.7452  1.1229
 6895TIP3    H220650   6.685   2.689   1.906 -1.1817 -0.2411 -0.8484
 6896TIP3   OH220651  -0.002   1.634   0.750  0.1580 -0.3261  0.4032
 6896TIP3    H120652   0.080   1.678   0.772  0.8564 -0.0732 -2.3848
 6896TIP3    H220653   0.021   1.541   0.744  0.3715 -0.2141 -0.7489
 6897TIP3   OH220654   0.615   5.313   4.079  0.0759  1.0221 -0.4325
 6897TIP3    H120655   0.607   5.266   4.162 -0.2730  1.3426 -0.2827
 6897TIP3    H220656   0.578   5.253   4.014  0.1584  0.8556 -0.3266
 6898TIP3   OH220657   5.683   4.061   0.075 -0.5675  0.1872 -0.4884
 6898TIP3    H120658   5.730   4.071   0.158  0.3287 -2.0003 -0.6557
 6898TIP3    H220659   5.591   4.056   0.099 -0.3445 -0.0174  0.3279
 6899TIP3   OH220660   3.523   4.975   5.270  0.0090  0.0139 -0.4199
 6899TIP3    H120661   3.454   4.960   5.205  0.4031  0.3941 -0.9456
 6899TIP3    H220662   3.500   4.919   5.344 -1.7629  1.3630  0.1099
 6900TIP3   OH220663   4.291   2.856   0.633  0.3669  0.2081 -0.2874
 6900TIP3    H120664   4.241   2.805   0.696  0.7575 -0.0076 -0.1529
 6900TIP3    H220665   4.327   2.929   0.683  0.0350  0.4668 -0.4230
 6901TIP3   OH220666   5.804   5.363   1.050 -0.0544 -0.2283 -0.1095
 6901TIP3    H120667   5.838   5.453   1.055 -0.9554  0.0752  1.2589
 6901TIP3    H220668   5.709   5.374   1.042 -0.0497 -1.0739 -1.8153
 6902TIP3   OH220669   6.767   5.603   5.829 -0.1414  0.2773 -0.1591
 6902TIP3    H120670   6.783   5.657   5.906  0.9801 -0.0595 -0.1439
 6902TIP3    H220671   6.672   5.590   5.828 -0.1496  0.1339  1.2656
 6903TIP3   OH220672   6.549   2.567   3.174 -0.1262 -0.0281 -0.1677
 6903TIP3    H120673   6.546   2.472   3.182  0.3939  0.1067  2.7740
 6903TIP3    H220674   6.533   2.599   3.263 -0.0923  2.6344 -1.0421
 6904TIP3   OH220675   0.382   1.431   1.739 -0.0959  0.2673 -0.4111
 6904TIP3    H120676   0.293   1.424   1.772  0.2724 -1.0715  0.3437
 6904TIP3    H220677   0.415   1.341   1.737  1.6648  0.8416  0.5283
 6905TIP3   OH220678   4.899   5.628   1.462  0.2457  0.7763 -0.6064
 6905TIP3    H120679   4.894   5.724   1.457  0.8171  0.9602  1.5165
 6905TIP3    H220680   4.871   5.607   1.551  1.6132 -0.9132 -0.5225
 6906TIP3   OH220681   6.600   1.777   1.065  0.3040  0.3422 -0.1168
 6906TIP3    H120682   6.549   1.696   1.068  0.4739  0.1626 -1.3037
 6906TIP3    H220683   6.561   1.833   1.131  0.5484 -0.9058  1.1285
 6907TIP3   OH220684   0.040   3.758   4.371 -0.1511 -0.2049 -0.2930
 6907TIP3    H120685   0.068   3.792   4.456 -0.8433 -0.2230 -0.0498
 6907TIP3    H220686   0.066   3.826   4.308 -0.1893  0.0944  0.0121
 6908TIP3   OH220687   1.900   5.195   4.246  0.1192  0.2320 -0.2043
 6908TIP3    H120688   1.909   5.105   4.215  1.8850  0.1385  0.4387
 6908TIP3    H220689   1.856   5.241   4.175 -1.1572 -1.1959 -0.3964
 6909TIP3   OH220690   6.366   4.405   5.315 -0.0236  0.3096  0.0765
 6909TIP3    H120691   6.383   4.315   5.340  3.0518  0.7630 -0.0095
 6909TIP3    H220692   6.351   4.451   5.397 -0.8475 -0.1133  0.1726
 6910TIP3   OH220693   3.553   0.353   1.796 -0.1014 -0.1791  0.1411
 6910TIP3    H120694   3.639   0.313   1.809 -0.8709 -1.6088  1.0310
 6910TIP3    H220695   3.498   0.283   1.761 -1.2456  0.3442  0.8175
 6911TIP3   OH220696   3.619   2.610   4.873  0.0112 -0.1817  0.1261
 6911TIP3    H120697   3.658   2.683   4.823 -1.1426  1.0712  1.0048
 6911TIP3    H220698   3.626   2.637   4.964 -2.1292 -0.3037  0.3577
 6912TIP3   OH220699   5.398   6.615   5.283  0.1870 -0.2152  0.7236
 6912TIP3    H120700   5.314   6.573   5.265  0.3140 -0.3001  0.3280
 6912TIP3    H220701   5.392   6.701   5.242  0.3093 -0.2378  0.6569
 6913TIP3   OH220702   1.352   1.912   3.083 -0.1973  0.5726 -0.0381
 6913TIP3    H120703   1.377   1.820   3.072  0.9928  0.5740  2.0591
 6913TIP3    H220704   1.410   1.960   3.025 -0.7437  0.0392 -1.0569
 6914TIP3   OH220705   4.725   1.918   1.974  0.4357 -0.0026  0.2622
 6914TIP3    H120706   4.634   1.929   1.947  0.2100 -0.9407  0.6250
 6914TIP3    H220707   4.730   1.829   2.008  1.8827 -0.6104 -1.3547
 6915TIP3   OH220708   1.731   3.231   2.002 -0.0350  0.0536 -0.5870
 6915TIP3    H120709   1.806   3.191   1.958  0.3175  1.0962 -0.9682
 6915TIP3    H220710   1.655   3.203   1.950  0.0344 -1.2334 -0.0380
 6916TIP3   OH220711   1.312   0.524   5.598  0.4509 -0.2415  0.3784
 6916TIP3    H120712   1.404   0.516   5.573 -0.2675 -2.4507 -1.9469
 6916TIP3    H220713   1.278   0.435   5.594 -1.8869  0.5552  0.8773
 6917TIP3   OH220714   6.506   0.333  -0.004 -0.0056  0.9092 -0.3211
 6917TIP3    H120715   6.469   0.389   0.065  1.8125  0.5344  1.0227
 6917TIP3    H220716   6.600   0.333   0.013  0.4643  0.5121 -2.6263
 6918TIP3   OH220717   0.075   4.089   3.760  0.1181  0.0152  0.0167
 6918TIP3    H120718   0.106   4.176   3.733 -1.9951  1.1063  0.8794
 6918TIP3    H220719   0.014   4.063   3.691 -0.0822 -0.3008  0.3107
 6919TIP3   OH220720   1.307   4.655   1.981  0.2647  0.1609 -0.2905
 6919TIP3    H120721   1.238   4.700   2.029  1.6839  3.0870 -0.7883
 6919TIP3    H220722   1.369   4.627   2.048  0.5857  1.2292 -0.1215
 6920TIP3   OH220723   6.368   2.886   5.233 -0.1152  0.1317 -0.1310
 6920TIP3    H120724   6.359   2.979   5.211  1.1965  0.3648  0.2340
 6920TIP3    H220725   6.325   2.877   5.317  1.2929  0.8213  0.7078
 6921TIP3   OH220726   0.117   5.549   2.538  0.0819  0.6541 -0.7563
 6921TIP3    H120727   0.159   5.631   2.510  0.7916  1.1183  1.4963
 6921TIP3    H220728   0.187   5.485   2.538  0.2140  0.7834  0.3856
 6922TIP3   OH220729   5.612   5.220   3.841 -0.1178 -0.3269  0.1623
 6922TIP3    H120730   5.561   5.197   3.763 -2.3251  3.5644  0.2059
 6922TIP3    H220731   5.559   5.286   3.886  3.0507  0.7678  2.6733
 6923TIP3   OH220732   3.810   0.350   1.097  0.2615  0.6466  0.3565
 6923TIP3    H120733   3.815   0.333   1.191  1.0250  0.1552  0.2391
 6923TIP3    H220734   3.791   0.265   1.058 -0.0637  0.8510  0.0676
 6924TIP3   OH220735   4.634   2.043   4.795  0.8972  0.0717  0.5586
 6924TIP3    H120736   4.542   2.025   4.812  0.4769 -1.1741 -2.3623
 6924TIP3    H220737   4.662   2.099   4.867 -2.6270  2.0723  0.5805
 6925TIP3   OH220738   0.468   4.734   1.498 -0.0717  0.1642  0.3090
 6925TIP3    H120739   0.396   4.722   1.436 -0.2239  0.3728  0.4454
 6925TIP3    H220740   0.435   4.799   1.560 -0.0326 -0.2600  0.7775
 6926TIP3   OH220741   6.376   6.647   1.336  0.0549 -0.2519 -0.3928
 6926TIP3    H120742   6.330   6.599   1.267  1.2587  0.9831 -2.1484
 6926TIP3    H220743   6.449   6.590   1.361  0.6656  0.0214 -1.4760
 6927TIP3   OH220744   1.714   3.814   4.957 -0.5936  0.1469  1.0206
 6927TIP3    H120745   1.803   3.780   4.955 -0.5421  0.3054  0.6463
 6927TIP3    H220746   1.722   3.905   4.931 -1.0938 -0.3638 -1.1773
 6928TIP3   OH220747   2.955   5.347   1.792 -0.2172 -0.4758  0.0057
 6928TIP3    H120748   3.017   5.307   1.853  0.8291 -1.1948 -1.4878
 6928TIP3    H220749   2.955   5.290   1.715 -1.9295  0.0997 -0.4857
 6929TIP3   OH220750   2.432   2.095   1.354 -0.3801 -0.2376 -0.1098
 6929TIP3    H120751   2.359   2.120   1.297 -0.6134  1.3076  0.8242
 6929TIP3    H220752   2.466   2.178   1.388  0.6636 -1.0390  0.9000
 6930TIP3   OH220753   7.170   3.031   0.066 -0.5326 -0.0790  0.3768
 6930TIP3    H120754   7.097   2.970   0.056 -2.1409  1.8884 -0.5848
 6930TIP3    H220755   7.179   3.042   0.161 -2.3815  0.6240  0.5064
 6931TIP3   OH220756   1.538   4.411   5.611 -0.2236 -0.0112  0.4266
 6931TIP3    H120757   1.473   4.425   5.680  1.3421  1.2537  1.7263
 6931TIP3    H220758   1.602   4.351   5.650  0.5562  0.5305 -0.0041
 6932TIP3   OH220759   0.932   2.340   0.195 -0.7636 -0.7450 -0.8130
 6932TIP3    H120760   0.967   2.416   0.148 -0.8139 -0.2383 -0.0443
 6932TIP3    H220761   0.976   2.265   0.155  1.1289 -0.1488  0.0309
 6933TIP3   OH220762   4.917   6.722   3.617 -0.1306 -0.3063  0.5416
 6933TIP3    H120763   4.976   6.653   3.646 -0.0719 -0.2149  0.6397
 6933TIP3    H220764   4.878   6.756   3.697 -1.0744 -1.0350  0.4087
 6934TIP3   OH220765   4.701   3.756   2.513  0.0936 -0.2817 -0.4195
 6934TIP3    H120766   4.755   3.735   2.589 -0.3288 -0.0806 -0.0567
 6934TIP3    H220767   4.651   3.833   2.540  0.8550  0.5631 -1.3482
 6935TIP3   OH220768   0.297   0.109   0.602 -0.2335 -0.0868  0.3481
 6935TIP3    H120769   0.305   0.122   0.507 -2.2986 -0.1640  0.1275
 6935TIP3    H220770   0.302   0.197   0.639  0.1409 -0.0177  0.1368
 6936TIP3   OH220771   1.202   2.777   1.483 -0.0930 -0.2922 -0.4909
 6936TIP3    H120772   1.171   2.740   1.400  0.6737 -0.9856 -0.4840
 6936TIP3    H220773   1.296   2.791   1.470  0.0379 -0.4076  0.2500
 6937TIP3   OH220774   3.977   0.649   1.926  0.1799  0.3387  0.2311
 6937TIP3    H120775   4.015   0.736   1.941 -0.0004  0.5868 -0.6994
 6937TIP3    H220776   3.941   0.654   1.837 -1.1181 -0.2316  0.7124
 6938TIP3   OH220777   3.142   3.564   0.274  0.0069  0.5219  0.0762
 6938TIP3    H120778   3.144   3.535   0.183 -1.5558  1.1322 -0.1935
 6938TIP3    H220779   3.200   3.504   0.321 -0.4829 -0.8528 -1.0320
 6939TIP3   OH220780   0.073   0.197   3.560  0.0744  0.2197  0.2547
 6939TIP3    H120781  -0.023   0.192   3.566 -0.0283  0.9063 -0.6124
 6939TIP3    H220782   0.100   0.105   3.551 -0.4382 -0.0348  1.1448
 6940TIP3   OH220783   5.727   2.412   5.334  0.6179  0.1008 -0.0656
 6940TIP3    H120784   5.801   2.464   5.306  0.9600  0.0268  0.6833
 6940TIP3    H220785   5.655   2.438   5.276  1.0472  0.6681 -0.3417
 6941TIP3   OH220786   6.545   0.207   3.984  0.1519  0.3725  0.0404
 6941TIP3    H120787   6.522   0.274   3.919 -1.4363 -0.8544 -0.7399
 6941TIP3    H220788   6.461   0.177   4.018  0.8328 -1.0656  0.5244
 6942TIP3   OH220789   6.777   4.721   4.209  0.5515 -0.8606  0.0079
 6942TIP3    H120790   6.794   4.635   4.172  1.3965 -1.6968  2.1696
 6942TIP3    H220791   6.683   4.722   4.226  0.0814 -0.3351 -2.2734
 6943TIP3   OH220792   3.969   3.500   5.040 -0.5120 -0.1061 -0.3926
 6943TIP3    H120793   3.997   3.460   4.958  0.8642 -0.3972  0.1876
 6943TIP3    H220794   3.993   3.436   5.108  0.2020  0.9625  0.4000
 6944TIP3   OH220795   4.440   5.105   2.222  0.0390  0.4308  0.3393
 6944TIP3    H120796   4.487   5.164   2.164  1.2877  0.9032  1.7533
 6944TIP3    H220797   4.486   5.022   2.214  0.3532  0.5566  0.7926
 6945TIP3   OH220798   1.610   5.788   2.880 -0.2943 -0.6953 -0.0567
 6945TIP3    H120799   1.532   5.753   2.923 -0.5260  0.8785  0.8719
 6945TIP3    H220800   1.617   5.738   2.799 -3.1178  0.0347 -0.8690
 6946TIP3   OH220801   0.492   5.538   4.256 -0.1030 -0.9835  0.3221
 6946TIP3    H120802   0.576   5.570   4.288  1.1397 -2.6239 -1.1275
 6946TIP3    H220803   0.514   5.475   4.188 -2.5650  0.3253 -1.8639
 6947TIP3   OH220804   3.495   2.031   2.551 -0.1401  0.7825 -0.2544
 6947TIP3    H120805   3.538   2.082   2.620 -0.9304 -0.3291  1.1086
 6947TIP3    H220806   3.491   1.942   2.585  0.5259 -0.0922 -2.2659
 6948TIP3   OH220807   1.379   2.265   2.703 -0.3422  0.0435 -0.3505
 6948TIP3    H120808   1.376   2.324   2.778 -1.2746 -0.1889 -0.1918
 6948TIP3    H220809   1.311   2.297   2.644 -0.4178 -0.4825 -0.5571
 6949TIP3   OH220810   1.904   4.747   1.839  0.2271 -0.3151 -0.0553
 6949TIP3    H120811   1.891   4.819   1.900  1.5718 -0.7862  0.8360
 6949TIP3    H220812   1.969   4.691   1.882  0.6341 -1.0593 -1.5792
 6950TIP3   OH220813   0.276   4.113   4.510 -0.2554 -0.9816 -0.9873
 6950TIP3    H120814   0.333   4.126   4.586 -2.7603  0.1178  0.8245
 6950TIP3    H220815   0.285   4.020   4.489  1.4443 -1.0416 -0.2121
 6951TIP3   OH220816   3.575   4.410   1.272 -0.5952 -0.5428  0.5365
 6951TIP3    H120817   3.625   4.345   1.322 -0.9077 -0.3969  1.0506
 6951TIP3    H220818   3.525   4.457   1.338  1.7119  2.1481  0.5378
 6952TIP3   OH220819   0.187   0.134   2.583  0.4181 -0.4391 -0.3264
 6952TIP3    H120820   0.270   0.179   2.570 -0.0873  0.1729 -1.7201
 6952TIP3    H220821   0.121   0.204   2.577 -0.1456 -0.4724  3.2757
 6953TIP3   OH220822   6.412   4.778   3.095 -0.5972  0.1086  0.2895
 6953TIP3    H120823   6.495   4.824   3.090  0.0789 -1.1906 -2.0830
 6953TIP3    H220824   6.347   4.846   3.112  0.6610  1.5087 -0.3645
 6954TIP3   OH220825   5.370   2.687   3.497  0.5164  0.1755 -0.2560
 6954TIP3    H120826   5.349   2.766   3.547 -1.8175  0.2649 -1.2390
 6954TIP3    H220827   5.342   2.615   3.552 -0.7312  0.2196 -0.7963
 6955TIP3   OH220828   1.615   4.559   1.382 -0.0620 -0.4532  0.7728
 6955TIP3    H120829   1.660   4.542   1.299 -2.6407 -0.2778 -0.7575
 6955TIP3    H220830   1.585   4.473   1.411  0.1036 -0.4036  1.0961
 6956TIP3   OH220831   6.155   2.746   4.023  0.5959  1.0484 -0.1934
 6956TIP3    H120832   6.209   2.676   3.986  0.6511  1.5157 -1.0181
 6956TIP3    H220833   6.124   2.711   4.106  1.1153  0.2757 -0.3160
 6957TIP3   OH220834   3.602   2.390   4.683 -0.1857 -0.2049 -0.2724
 6957TIP3    H120835   3.520   2.349   4.711  0.3744 -1.5819 -0.5874
 6957TIP3    H220836   3.617   2.459   4.748 -1.8481  0.4394 -0.5009
 6958TIP3   OH220837   0.907   6.425   1.190  0.2144 -0.1884 -0.4413
 6958TIP3    H120838   0.844   6.477   1.139 -0.3898  0.3832  0.8500
 6958TIP3    H220839   0.872   6.426   1.279  0.6953 -2.0390 -0.2012
 6959TIP3   OH220840   6.059   6.168   4.466 -0.1251  0.4657 -0.7022
 6959TIP3    H120841   5.995   6.215   4.520 -0.2039 -0.2227 -0.1769
 6959TIP3    H220842   6.141   6.174   4.515 -0.3936 -0.9346 -0.0136
 6960TIP3   OH220843   5.358   3.623   1.911  0.8116  0.0312 -0.0458
 6960TIP3    H120844   5.337   3.625   2.004  0.5090  2.0807 -0.1132
 6960TIP3    H220845   5.331   3.709   1.878  0.1295 -0.9197 -2.2012
 6961TIP3   OH220846   4.121   0.731   2.670 -0.8064  0.5588 -0.2324
 6961TIP3    H120847   4.174   0.725   2.590  0.3326 -0.0725  0.5376
 6961TIP3    H220848   4.146   0.815   2.709 -0.0800  0.1060  0.3079
 6962TIP3   OH220849   5.758   2.499   3.362 -0.0442  0.0999 -0.6227
 6962TIP3    H120850   5.852   2.504   3.344 -0.0012  0.5500 -0.2849
 6962TIP3    H220851   5.727   2.425   3.309  0.6375 -0.5195 -0.1638
 6963TIP3   OH220852   4.016   4.335   1.760 -0.5323  0.1042  0.3429
 6963TIP3    H120853   4.052   4.322   1.672  2.0390 -0.9736  1.4576
 6963TIP3    H220854   3.928   4.299   1.754  0.6247 -2.9741 -1.0703
 6964TIP3   OH220855   3.286   0.778   4.496  0.0050 -0.0849 -0.4997
 6964TIP3    H120856   3.294   0.794   4.402 -0.3680  0.2450 -0.4786
 6964TIP3    H220857   3.200   0.738   4.506 -1.2771  2.5766  0.0179
 6965TIP3   OH220858   2.020   6.625   1.487  0.0839 -0.3032  0.1420
 6965TIP3    H120859   2.083   6.584   1.546  0.8883  0.4931 -0.1386
 6965TIP3    H220860   1.939   6.629   1.538  0.7411  0.3000  1.1671
 6966TIP3   OH220861   1.507   0.492   4.763 -0.2889 -0.2059  0.5031
 6966TIP3    H120862   1.563   0.421   4.732  0.1616 -0.3639  1.6249
 6966TIP3    H220863   1.544   0.570   4.722 -1.1384 -0.6397 -1.2031
 6967TIP3   OH220864   2.391   2.403   3.570 -0.3378 -0.0425  0.1644
 6967TIP3    H120865   2.432   2.318   3.586  2.3615  1.0785 -0.2221
 6967TIP3    H220866   2.408   2.420   3.478 -1.8969  0.4449 -0.0609
 6968TIP3   OH220867   3.755   6.695   4.059 -0.1136 -0.0144 -0.3162
 6968TIP3    H120868   3.760   6.600   4.071 -2.2467 -0.2723 -1.0280
 6968TIP3    H220869   3.736   6.728   4.147 -0.3106 -0.3382 -0.2337
 6969TIP3   OH220870   5.848   3.748   1.004  0.7590  0.3123  0.2267
 6969TIP3    H120871   5.842   3.727   1.098  2.9421 -1.5406  0.0565
 6969TIP3    H220872   5.930   3.796   0.996 -1.0831  3.6387 -0.3592
 6970TIP3   OH220873   4.241   5.300   2.320 -0.0357  0.9760 -0.5464
 6970TIP3    H120874   4.182   5.260   2.255 -0.2372 -0.1925  0.3326
 6970TIP3    H220875   4.324   5.253   2.309 -0.5697 -0.4405  1.1849
 6971TIP3   OH220876   3.493   4.356   1.820  0.4968  0.9066  0.3218
 6971TIP3    H120877   3.486   4.451   1.821 -1.4626  0.8493 -1.0611
 6971TIP3    H220878   3.492   4.330   1.912  0.7033  2.1886  0.7029
 6972TIP3   OH220879   5.991   5.515   4.481  0.0775  0.2958  0.0039
 6972TIP3    H120880   5.973   5.593   4.535  0.2885  1.1532 -1.1265
 6972TIP3    H220881   5.905   5.492   4.444  0.2861  0.9866 -0.9407
 6973TIP3   OH220882   5.938   4.594   5.027  0.4424  0.4967 -0.1369
 6973TIP3    H120883   6.014   4.628   4.980 -0.1685  1.0808 -0.7310
 6973TIP3    H220884   5.873   4.664   5.021  0.0362  0.2222  0.8242
 6974TIP3   OH220885   5.822   2.948   3.000 -0.0607  0.5066 -0.5242
 6974TIP3    H120886   5.811   2.868   3.052 -3.0536  0.2142 -1.4287
 6974TIP3    H220887   5.836   2.917   2.911 -0.0772  0.9866 -0.6963
 6975TIP3   OH220888   3.182   2.949   0.292 -0.1022  0.5214 -0.1522
 6975TIP3    H120889   3.236   2.895   0.234  3.5731  0.7795  2.5928
 6975TIP3    H220890   3.178   3.034   0.249  2.7700  0.7983 -0.0840
 6976TIP3   OH220891   5.252   2.351   4.942 -0.2527  0.4163 -0.4116
 6976TIP3    H120892   5.181   2.410   4.916  1.3716  2.0171 -1.4061
 6976TIP3    H220893   5.322   2.409   4.972  1.1455 -1.0361 -0.7278
 6977TIP3   OH220894   5.367   4.141   2.212  0.6813 -0.1756  0.3605
 6977TIP3    H120895   5.343   4.231   2.233  1.4975  0.2472 -0.4474
 6977TIP3    H220896   5.462   4.139   2.219  0.5906 -1.3185  1.6084
 6978TIP3   OH220897   4.068   0.404   3.113  0.5039 -0.7009  0.1344
 6978TIP3    H120898   4.104   0.475   3.060  2.9260 -1.0307  1.1764
 6978TIP3    H220899   3.974   0.407   3.097  0.5990  2.2279 -0.4795
 6979TIP3   OH220900   2.981   1.528   4.131  0.2470 -0.1659  0.2616
 6979TIP3    H120901   2.965   1.440   4.098  0.1400 -0.4846  1.1522
 6979TIP3    H220902   3.075   1.530   4.150  0.9627  0.9584 -2.7544
 6980TIP3   OH220903   5.922   0.150   5.834  0.3257 -0.1094 -0.5699
 6980TIP3    H120904   5.983   0.223   5.825 -1.8434  1.7455 -1.1275
 6980TIP3    H220905   5.905   0.121   5.744 -0.2513 -0.0443 -0.4843
 6981TIP3   OH220906   4.104   5.458   3.838  0.1987 -0.1623  0.2564
 6981TIP3    H120907   4.103   5.433   3.745 -0.7758 -1.9916  0.7259
 6981TIP3    H220908   4.041   5.530   3.843  1.2404  0.8652 -0.7064
 6982TIP3   OH220909   5.147   4.221   5.668  0.1229 -0.0942  0.4265
 6982TIP3    H120910   5.124   4.311   5.691 -0.0195  0.5659 -1.9967
 6982TIP3    H220911   5.068   4.171   5.686 -0.4059  0.6078  0.1142
 6983TIP3   OH220912   6.430   0.785   4.816 -0.3623  0.1652  0.8758
 6983TIP3    H120913   6.367   0.856   4.827 -0.6461 -0.2830  2.2976
 6983TIP3    H220914   6.469   0.773   4.903  0.7696 -0.4215  0.3105
 6984TIP3   OH220915   6.816   5.336   1.174  0.0257  0.5153  0.1267
 6984TIP3    H120916   6.875   5.407   1.198 -0.7283  0.9111  0.8633
 6984TIP3    H220917   6.780   5.306   1.257  0.2221 -0.6416 -0.1877
 6985TIP3   OH220918   6.708   2.120   5.439 -0.2766 -0.0011 -0.0694
 6985TIP3    H120919   6.783   2.072   5.403  0.3606  0.9641 -0.0684
 6985TIP3    H220920   6.677   2.065   5.511  0.1931 -0.5977 -0.3103
 6986TIP3   OH220921   6.356   5.989   0.215 -0.0601  0.1306  0.3479
 6986TIP3    H120922   6.327   5.974   0.305 -0.6786 -0.6255  0.0388
 6986TIP3    H220923   6.283   5.957   0.161  0.1679  0.8727 -0.4165
 6987TIP3   OH220924   1.264   5.226   0.187 -0.0019 -0.0251  0.7845
 6987TIP3    H120925   1.285   5.132   0.182  1.5414  0.2697  1.0886
 6987TIP3    H220926   1.339   5.264   0.233 -1.3335  1.1458  2.0638
 6988TIP3   OH220927   2.218   4.871   0.761 -0.0503  0.0354 -0.2184
 6988TIP3    H120928   2.188   4.834   0.844  1.8786 -1.1137  0.0449
 6988TIP3    H220929   2.314   4.862   0.765  0.1153  0.4599 -2.3356
 6989TIP3   OH220930   2.433   0.108   3.416 -0.3385  0.3023 -0.3246
 6989TIP3    H120931   2.511   0.070   3.457  0.6505 -0.7807 -2.9913
 6989TIP3    H220932   2.367   0.038   3.421 -1.2629  1.2512  2.0154
 6990TIP3   OH220933   0.750   3.064   4.319 -0.1424  0.0794 -0.3627
 6990TIP3    H120934   0.686   3.133   4.336 -1.6015 -1.5612  1.2205
 6990TIP3    H220935   0.835   3.105   4.337 -0.9902  1.3422  0.9595
 6991TIP3   OH220936   6.225   5.319   1.315 -0.0356 -0.1340 -0.1176
 6991TIP3    H120937   6.133   5.298   1.302 -0.0522 -0.8082  0.9901
 6991TIP3    H220938   6.235   5.327   1.410  1.1480 -0.5384 -0.1928
 6992TIP3   OH220939   2.195   2.539   1.989 -0.3095 -0.5323 -0.1403
 6992TIP3    H120940   2.282   2.578   1.996 -0.2363 -0.4303 -1.4212
 6992TIP3    H220941   2.141   2.606   1.947 -1.1955 -0.3319  1.2675
 6993TIP3   OH220942   4.953   3.410   4.386  0.3992 -0.3074  0.4599
 6993TIP3    H120943   5.020   3.455   4.436  0.3727  0.2510  0.0068
 6993TIP3    H220944   4.998   3.338   4.343  1.0499  0.9350 -1.0355
 6994TIP3   OH220945   3.132   5.942   0.088 -0.0502 -0.4046 -0.1856
 6994TIP3    H120946   3.203   5.907   0.142  1.7034  1.5174 -1.0656
 6994TIP3    H220947   3.177   5.988   0.017 -2.2312 -0.2335 -1.5602
 6995TIP3   OH220948   0.968   3.962   4.977  0.0152  0.2061 -0.0508
 6995TIP3    H120949   1.031   3.956   4.905 -0.3319  1.4789 -0.4848
 6995TIP3    H220950   0.887   3.928   4.941 -0.2738  1.2549 -0.4248
 6996TIP3   OH220951   6.454   5.876   1.335 -0.2171  0.2468  0.0173
 6996TIP3    H120952   6.513   5.942   1.296  0.6649 -1.2018 -1.2154
 6996TIP3    H220953   6.492   5.859   1.421  0.9004 -0.2790 -0.5545
 6997TIP3   OH220954   5.661   2.726   3.495  0.4460  0.1664  0.1171
 6997TIP3    H120955   5.715   2.663   3.447 -0.1831  0.4362 -0.9683
 6997TIP3    H220956   5.572   2.692   3.488  0.2933  0.3832  0.8369
 6998TIP3   OH220957   5.156   4.158   4.558 -0.6728  0.1342 -0.1653
 6998TIP3    H120958   5.061   4.169   4.567 -0.4569  0.8654  1.5621
 6998TIP3    H220959   5.183   4.114   4.639  0.4536 -0.1679 -0.6899
 6999TIP3   OH220960   2.568   3.054   5.096  0.4306 -0.8055 -0.3316
 6999TIP3    H120961   2.649   3.053   5.147  0.3993  0.5602 -0.2289
 6999TIP3    H220962   2.500   3.079   5.159 -0.2062 -2.5251 -0.2727
 7000TIP3   OH220963   0.387   0.602   1.327  0.9141 -0.0066  0.4084
 7000TIP3    H120964   0.388   0.506   1.336  0.2436  0.0743  1.5381
 7000TIP3    H220965   0.470   0.623   1.284  1.1331 -1.0813  0.2732
 7001TIP3   OH220966   4.813   0.553   1.487 -0.0262  0.3057  0.6547
 7001TIP3    H120967   4.800   0.529   1.396  0.0107 -0.0554  0.7457
 7001TIP3    H220968   4.858   0.479   1.526  0.5060  0.7097  0.8281
 7002TIP3   OH220969   3.285   2.177   2.730  0.0084  0.0016 -0.1425
 7002TIP3    H120970   3.200   2.213   2.704 -0.4646 -0.1266  1.1764
 7002TIP3    H220971   3.328   2.157   2.647 -0.9390  0.7742 -0.8457
 7003TIP3   OH220972   6.684   0.230   3.557 -0.3119 -0.0367  0.1586
 7003TIP3    H120973   6.713   0.212   3.467 -1.9013 -1.0667 -0.1987
 7003TIP3    H220974   6.754   0.195   3.612  0.0913 -0.5805 -0.6726
 7004TIP3   OH220975   1.748   1.117   0.723 -0.0438  0.9306  0.9020
 7004TIP3    H120976   1.684   1.069   0.670 -0.2794 -0.2061  2.1650
 7004TIP3    H220977   1.698   1.151   0.797 -0.1199  4.1547 -0.4503
 7005TIP3   OH220978   0.234   2.646   5.059  0.5359  0.4879 -0.0523
 7005TIP3    H120979   0.217   2.584   5.130 -0.2869  0.6991 -0.0533
 7005TIP3    H220980   0.327   2.635   5.039  0.4042 -0.7762 -0.0803
 7006TIP3   OH220981   2.081   3.981   4.494 -0.6348 -0.0502 -0.4061
 7006TIP3    H120982   2.069   4.072   4.465  1.7061  0.1453 -0.9125
 7006TIP3    H220983   2.068   3.984   4.589  0.3063  0.9990 -0.2943
 7007TIP3   OH220984   3.368   5.988   1.176  0.4258 -0.6601  0.1405
 7007TIP3    H120985   3.376   5.905   1.129  2.5990  0.2072 -1.1806
 7007TIP3    H220986   3.442   5.987   1.238  1.0415  0.6565 -0.5470
 7008TIP3   OH220987   2.303   6.729   0.994  0.3611 -0.2055  0.2697
 7008TIP3    H120988   2.236   6.684   1.045 -0.6654 -0.2774 -1.0838
 7008TIP3    H220989   2.257   6.801   0.951  0.6245 -1.3924 -2.2183
 7009TIP3   OH220990   1.357   3.038   3.665 -0.4210 -0.8071 -0.0734
 7009TIP3    H120991   1.263   3.034   3.646 -0.2940  0.3479 -1.0545
 7009TIP3    H220992   1.379   2.951   3.697 -1.4669 -1.6747 -1.6039
 7010TIP3   OH220993   0.070   1.649   2.109  0.1316  0.2818 -0.3707
 7010TIP3    H120994   0.085   1.639   2.203  0.4735  1.2039 -0.3264
 7010TIP3    H220995  -0.025   1.654   2.100  0.0463 -0.7433 -0.1779
 7011TIP3   OH220996   1.559   3.198   5.682  0.1712  0.4061 -0.2727
 7011TIP3    H120997   1.539   3.280   5.728 -1.2405  0.5447 -1.0884
 7011TIP3    H220998   1.512   3.131   5.730 -0.2192  0.3563 -0.7190
 7012TIP3   OH220999   2.240   5.100   4.190  0.3515 -0.1537  0.3733
 7012TIP3    H121000   2.202   5.179   4.229 -0.2596  0.5339 -1.5188
 7012TIP3    H221001   2.173   5.033   4.201 -0.3686  0.3783 -0.6146
 7013TIP3   OH221002   0.059   0.072   4.916 -0.1545  0.2625  0.2400
 7013TIP3    H121003  -0.035   0.088   4.913 -0.1272  0.3218 -0.5810
 7013TIP3    H221004   0.098   0.158   4.898  0.0634  0.2690  0.7165
 7014TIP3   OH221005   4.868   6.560   2.768 -0.4687 -0.5152  0.4222
 7014TIP3    H121006   4.837   6.479   2.727 -0.2887 -0.5699  0.3942
 7014TIP3    H221007   4.946   6.585   2.718 -0.5299 -0.3178  0.4224
 7015TIP3   OH221008   2.200   5.903   2.237  0.2676 -0.4421 -0.4014
 7015TIP3    H121009   2.125   5.851   2.265  0.1555  0.1175  0.3892
 7015TIP3    H221010   2.219   5.959   2.312 -1.6141  2.9515 -2.1835
 7016TIP3   OH221011   1.903   1.761   2.481 -0.0820 -0.3821  0.4035
 7016TIP3    H121012   1.923   1.715   2.400 -0.6845 -1.1959  0.7042
 7016TIP3    H221013   1.826   1.814   2.460 -1.2352 -1.8236  0.8568
 7017TIP3   OH221014   1.585   3.183   1.559 -0.0565  0.3348 -0.3134
 7017TIP3    H121015   1.592   3.203   1.465  3.0607  1.5788  0.0578
 7017TIP3    H221016   1.643   3.247   1.601 -2.0677  0.4203  2.6026
 7018TIP3   OH221017   3.911   6.435   4.043  0.3681 -0.4314  0.0367
 7018TIP3    H121018   3.965   6.372   4.092  0.3380  0.1373  0.8326
 7018TIP3    H221019   3.832   6.386   4.020  0.2737 -0.6562  0.7872
 7019TIP3   OH221020   3.838   2.835   3.248  0.1791 -0.5084 -0.2739
 7019TIP3    H121021   3.745   2.858   3.241  0.1962  0.4014  1.7677
 7019TIP3    H221022   3.841   2.773   3.321  1.1660 -0.6162 -0.4031
 7020TIP3   OH221023   6.860   3.709   5.023 -0.1338 -0.7409 -0.1842
 7020TIP3    H121024   6.815   3.787   4.990  1.4065 -0.7145 -2.4547
 7020TIP3    H221025   6.793   3.641   5.024 -1.3071  0.3668  1.0404
 7021TIP3   OH221026   6.837   5.857   4.244 -0.2011  0.2289 -0.8136
 7021TIP3    H121027   6.864   5.939   4.285  0.4718  0.1624 -1.1178
 7021TIP3    H221028   6.763   5.827   4.297  1.0409 -0.1789  0.7474
 7022TIP3   OH221029   4.837   2.849   0.969  0.0529 -0.8900  0.3465
 7022TIP3    H121030   4.789   2.797   1.034 -1.4490 -0.6347 -0.5079
 7022TIP3    H221031   4.927   2.851   1.001 -0.9676  0.8718  3.4849
 7023TIP3   OH221032   5.896   2.776   0.504 -0.1260 -0.0477 -0.3489
 7023TIP3    H121033   5.978   2.729   0.487 -0.6688 -0.3060 -2.5123
 7023TIP3    H221034   5.828   2.709   0.495 -0.8884  0.9483 -3.1398
 7024TIP3   OH221035   0.097   6.286   4.139  0.1763 -0.6405  0.0408
 7024TIP3    H121036   0.092   6.300   4.045  0.0327 -0.0973  0.1250
 7024TIP3    H221037   0.006   6.284   4.168  0.2343  0.8814  0.3963
 7025TIP3   OH221038   3.104   0.740   1.819  0.2503  0.0136  0.0455
 7025TIP3    H121039   3.182   0.768   1.867  1.4230 -1.7577 -0.7496
 7025TIP3    H221040   3.063   0.823   1.792  0.2775  1.0436  2.8366
 7026TIP3   OH221041   6.942   1.523   4.092 -0.3690 -0.2755  0.0500
 7026TIP3    H121042   7.021   1.469   4.086 -1.1777 -1.4355 -0.5793
 7026TIP3    H221043   6.965   1.604   4.047 -0.0035 -1.1949 -1.4969
 7027TIP3   OH221044   5.331   4.181   4.003 -0.0698 -0.7723 -0.0652
 7027TIP3    H121045   5.288   4.214   4.082  0.5004 -2.1277  0.8446
 7027TIP3    H221046   5.273   4.208   3.931  0.1065  1.6802  0.6451
 7028TIP3   OH221047   3.590   2.932   0.245  0.4188 -0.3329  0.1584
 7028TIP3    H121048   3.683   2.912   0.233  0.3358 -1.0118  0.5716
 7028TIP3    H221049   3.556   2.858   0.297 -0.3156 -0.0177  0.1414
 7029TIP3   OH221050   6.326   3.603   4.746  0.0082  0.0601 -0.1669
 7029TIP3    H121051   6.282   3.569   4.669 -3.8884  2.0579  0.9200
 7029TIP3    H221052   6.293   3.549   4.819  0.9161  0.3907  0.5102
 7030TIP3   OH221053   5.240   5.503   0.782  0.4331 -0.1223 -0.3927
 7030TIP3    H121054   5.279   5.585   0.751  2.0569 -0.9484 -0.6819
 7030TIP3    H221055   5.220   5.518   0.874  0.0039  0.8360 -0.6338
 7031TIP3   OH221056   6.128   4.358   4.174 -0.1311 -0.5527 -0.3422
 7031TIP3    H121057   6.182   4.353   4.253  0.4759 -0.8127 -0.7667
 7031TIP3    H221058   6.114   4.267   4.148  1.8818 -0.4518 -2.0010
 7032TIP3   OH221059   7.148   6.405   2.239  0.2029 -0.3705 -0.2395
 7032TIP3    H121060   7.225   6.463   2.238 -0.6171  0.7386 -0.7251
 7032TIP3    H221061   7.113   6.413   2.327  0.6249 -0.8807 -0.0160
 7033TIP3   OH221062   5.788   2.147   2.213 -0.2951 -0.8758  0.4270
 7033TIP3    H121063   5.878   2.160   2.244  0.2822 -2.8650 -0.2518
 7033TIP3    H221064   5.760   2.233   2.185  1.2541 -0.1215  1.0580
 7034TIP3   OH221065   3.291   4.020   4.920  0.4011  0.3953  0.5379
 7034TIP3    H121066   3.241   4.057   4.993 -1.7366  0.8108 -1.0211
 7034TIP3    H221067   3.245   3.939   4.898  1.8651 -0.4622  0.5281
 7035TIP3   OH221068   0.118   6.181   5.336  0.2829  0.2149 -0.0088
 7035TIP3    H121069   0.142   6.274   5.344 -3.4486  1.3182  0.3180
 7035TIP3    H221070   0.162   6.139   5.410  0.3407  2.1498  1.1448
 7036TIP3   OH221071   5.004   6.353   2.477  0.6730  0.2350  0.4630
 7036TIP3    H121072   5.097   6.349   2.499  1.1573  1.0640 -1.2915
 7036TIP3    H221073   4.994   6.296   2.401 -0.1460  0.5529  0.3155
 7037TIP3   OH221074   3.204   6.210   2.062 -0.0060  0.0137 -0.0040
 7037TIP3    H121075   3.234   6.284   2.115  0.8041 -0.9297  0.8958
 7037TIP3    H221076   3.246   6.222   1.977  0.4976  0.3326  0.2881
 7038TIP3   OH221077   4.230   3.770   1.435 -0.0091  0.1486  0.0038
 7038TIP3    H121078   4.206   3.861   1.447 -0.0882 -0.0936  1.9707
 7038TIP3    H221079   4.154   3.731   1.391  0.1883  1.0748 -1.2136
 7039TIP3   OH221080   3.988   3.944   2.108 -0.3433  0.1706 -0.0808
 7039TIP3    H121081   3.933   3.882   2.059 -0.7800 -0.2780  0.9276
 7039TIP3    H221082   4.047   3.981   2.043  2.4841 -3.9739 -0.2589
 7040TIP3   OH221083   1.977   3.336   3.017 -0.0508  0.2145 -0.4194
 7040TIP3    H121084   2.011   3.368   2.934  1.8852  0.3967  0.3904
 7040TIP3    H221085   2.031   3.259   3.037  0.6255  1.1122  1.4218
 7041TIP3   OH221086   7.084   3.583   0.768 -0.1836  0.4668 -0.4602
 7041TIP3    H121087   7.173   3.550   0.759  0.0733  1.1499 -0.5320
 7041TIP3    H221088   7.037   3.515   0.816  0.3748  0.1022 -0.4269
 7042TIP3   OH221089   0.022   5.965   3.434  0.3456 -0.5304 -0.8197
 7042TIP3    H121090   0.028   5.930   3.345 -0.2320 -1.9558 -0.3301
 7042TIP3    H221091   0.076   5.906   3.487 -0.1653 -0.3331 -0.0575
 7043TIP3   OH221092   5.151   5.504   0.032  0.4894 -0.0818 -0.2704
 7043TIP3    H121093   5.139   5.590  -0.008 -1.4118  0.3433  1.0811
 7043TIP3    H221094   5.244   5.484   0.018  0.9114  2.0219 -0.8958
 7044TIP3   OH221095   0.364   3.040   2.171  0.1572 -0.7938  0.1832
 7044TIP3    H121096   0.277   3.065   2.200 -0.5004 -0.1003 -2.2043
 7044TIP3    H221097   0.355   3.022   2.078  1.9495 -3.7754  0.4378
 7045TIP3   OH221098   2.858   6.592   5.262  0.1865  0.3027 -0.1316
 7045TIP3    H121099   2.867   6.685   5.241  2.4985 -0.0848 -1.1925
 7045TIP3    H221100   2.802   6.557   5.193 -2.8081  1.2362  1.6222
 7046TIP3   OH221101   1.047   0.474   1.892  0.1047 -0.3254  0.5857
 7046TIP3    H121102   0.963   0.507   1.926 -0.3187 -1.1022  0.3185
 7046TIP3    H221103   1.113   0.514   1.949 -0.4452  0.2736  0.8214
 7047TIP3   OH221104   4.991   5.283   5.735  0.1373  0.3801 -0.1766
 7047TIP3    H121105   4.905   5.325   5.728  0.1300  0.5723  0.8962
 7047TIP3    H221106   5.024   5.311   5.820  0.8028 -0.5512 -0.1200
 7048TIP3   OH221107   0.671   5.072   3.383 -0.0603 -0.0396 -0.2163
 7048TIP3    H121108   0.685   4.988   3.426  0.8685 -0.4509 -1.2657
 7048TIP3    H221109   0.698   5.138   3.447  3.0002 -0.6863 -0.7245
 7049TIP3   OH221110   5.354   5.782   1.098 -0.1957  0.0035 -0.1834
 7049TIP3    H121111   5.397   5.791   1.183 -0.8486 -1.7789  0.3777
 7049TIP3    H221112   5.426   5.784   1.034  0.4572 -0.2868  0.5360
 7050TIP3   OH221113   3.865   2.892   2.955 -0.3108  0.9396  0.0584
 7050TIP3    H121114   3.797   2.825   2.961  0.0272  0.3387 -2.0111
 7050TIP3    H221115   3.897   2.901   3.045 -1.1076 -0.8998  0.5847
 7051TIP3   OH221116   6.088   4.866   2.034  0.1182 -0.1421  0.0757
 7051TIP3    H121117   6.052   4.820   1.958 -1.5822 -0.3863  0.9683
 7051TIP3    H221118   6.032   4.943   2.045  0.5303  0.0564  0.8937
 7052TIP3   OH221119   7.168   6.066   4.622  0.1214 -0.6335 -0.3276
 7052TIP3    H121120   7.164   6.031   4.532  0.2191 -0.2967 -0.4642
 7052TIP3    H221121   7.206   5.995   4.673 -0.9741 -1.2620 -0.3345
 7053TIP3   OH221122   0.714   2.110   1.804  0.0507  0.3974 -0.1131
 7053TIP3    H121123   0.730   2.106   1.898  0.0544  0.0320 -0.1282
 7053TIP3    H221124   0.783   2.056   1.765  0.1614  0.6998 -0.3393
 7054TIP3   OH221125   1.855   5.246   2.974  0.1324 -0.1834 -0.1868
 7054TIP3    H121126   1.797   5.261   3.048  0.8219 -0.9886  0.5360
 7054TIP3    H221127   1.847   5.152   2.956 -0.8064  0.1604 -1.8095
 7055TIP3   OH221128   3.871   5.589   3.864 -0.0657 -0.1889 -0.0972
 7055TIP3    H121129   3.871   5.619   3.773  1.5568  1.8293  0.5022
 7055TIP3    H221130   3.781   5.561   3.880 -0.8582  1.2407 -1.7686
 7056TIP3   OH221131   1.464   3.004   4.685  0.1912  0.0599  0.1143
 7056TIP3    H121132   1.409   3.027   4.609 -1.8906  2.0357  2.0558
 7056TIP3    H221133   1.539   3.064   4.679  0.2413 -0.0591 -0.5740
 7057TIP3   OH221134   6.455   0.473   4.794  0.2589 -0.1735  0.3946
 7057TIP3    H121135   6.421   0.562   4.788 -1.0701 -0.7022 -0.4081
 7057TIP3    H221136   6.528   0.471   4.732  0.6437  0.4837  0.8097
 7058TIP3   OH221137   2.449   3.860   1.852  0.3381 -0.2738 -0.0597
 7058TIP3    H121138   2.355   3.865   1.866  0.3680  2.6613 -0.4232
 7058TIP3    H221139   2.486   3.854   1.940 -0.1248  1.3268  0.2735
 7059TIP3   OH221140   5.968   0.691   5.426 -0.5044  0.3091 -0.0631
 7059TIP3    H121141   6.063   0.691   5.412 -0.6764  1.7509 -1.5665
 7059TIP3    H221142   5.958   0.690   5.521  0.9228 -2.6676  0.1778
 7060TIP3   OH221143   4.734   4.443   1.086 -0.8064 -0.1389 -0.2392
 7060TIP3    H121144   4.643   4.468   1.101 -0.5869  0.3910  0.2361
 7060TIP3    H221145   4.768   4.510   1.028 -0.8327 -0.5745 -0.7640
 7061TIP3   OH221146   5.081   0.979   5.846 -0.2186 -0.1824 -0.0986
 7061TIP3    H121147   5.058   0.995   5.938 -2.0653  0.0601 -0.5659
 7061TIP3    H221148   5.080   0.884   5.836 -0.7342 -0.1830 -0.0380
 7062TIP3   OH221149   2.470   1.003   0.355 -0.0545 -0.2731 -0.0973
 7062TIP3    H121150   2.447   1.096   0.354  0.0910 -0.1842  1.6983
 7062TIP3    H221151   2.458   0.976   0.446  2.9073 -1.2173  0.1385
 7063TIP3   OH221152   3.130   2.982   0.944  0.0153  0.0586 -0.3815
 7063TIP3    H121153   3.035   2.975   0.935 -0.0851  0.0726  0.5407
 7063TIP3    H221154   3.148   3.075   0.934 -0.1113  0.0992 -0.2423
 7064TIP3   OH221155   4.096   0.632   2.931  0.3282  0.7122 -0.1791
 7064TIP3    H121156   4.049   0.707   2.968 -0.6602  0.6037 -1.1945
 7064TIP3    H221157   4.088   0.641   2.837  1.9354  0.4047 -0.3891
 7065TIP3   OH221158   2.641   0.103   5.163 -0.2747  0.4251 -0.0914
 7065TIP3    H121159   2.605   0.040   5.100 -0.6380  0.1733  0.3632
 7065TIP3    H221160   2.705   0.052   5.213 -0.8051  0.3297  0.4936
 7066TIP3   OH221161   0.355   2.210   3.494  0.5111 -0.1468  0.1749
 7066TIP3    H121162   0.386   2.291   3.536 -2.8700  1.3819  0.0607
 7066TIP3    H221163   0.389   2.140   3.549  1.2471  1.4978  1.9373
 7067TIP3   OH221164   1.401   0.181   2.414 -0.7266 -0.0752 -0.4391
 7067TIP3    H121165   1.485   0.221   2.394 -0.8390  2.1144  2.7860
 7067TIP3    H221166   1.337   0.236   2.369 -0.5995  0.3328 -0.1282
 7068TIP3   OH221167   6.436   4.682   0.528  0.5462 -0.4727 -0.1212
 7068TIP3    H121168   6.409   4.592   0.506 -1.5712  0.0872 -0.0684
 7068TIP3    H221169   6.450   4.724   0.444 -1.7632  0.0271 -0.3204
 7069TIP3   OH221170   5.241   1.017   4.090 -0.0958  0.6204  0.1247
 7069TIP3    H121171   5.195   0.979   4.016  2.9114 -0.0548 -1.5819
 7069TIP3    H221172   5.218   1.110   4.088 -1.1523  0.3534 -0.7859
 7070TIP3   OH221173   4.794   4.424   3.946  0.2548  0.6311 -0.0997
 7070TIP3    H121174   4.778   4.351   3.886 -2.2379  0.8652  0.1728
 7070TIP3    H221175   4.706   4.458   3.966  0.8303  0.0691  4.3247
 7071TIP3   OH221176   0.800   5.892   4.254  0.3233 -1.1662  0.4101
 7071TIP3    H121177   0.761   5.878   4.168  2.3709  1.0151 -0.9698
 7071TIP3    H221178   0.877   5.945   4.238  0.5013 -0.2041  3.6764
 7072TIP3   OH221179   5.035   4.958   4.908  0.5851 -0.2203 -0.1432
 7072TIP3    H121180   5.063   4.933   4.996 -0.3178 -1.3900 -0.1553
 7072TIP3    H221181   4.996   5.045   4.919 -0.6006 -0.8350  0.8740
 7073TIP3   OH221182   1.794   2.617   2.137  0.6628 -0.1600 -0.0634
 7073TIP3    H121183   1.839   2.686   2.187  0.6430 -1.2621  1.5887
 7073TIP3    H221184   1.713   2.601   2.185  0.4828 -1.0493 -0.6305
 7074TIP3   OH221185   4.086   5.699   2.747 -0.0569  0.1405  0.0816
 7074TIP3    H121186   4.072   5.606   2.729 -2.7449  0.4630  0.0691
 7074TIP3    H221187   4.120   5.734   2.665 -1.4666 -0.4347 -0.8005
 7075TIP3   OH221188   2.359   2.604   0.367  0.2542 -0.1048  0.2850
 7075TIP3    H121189   2.349   2.679   0.426 -0.4398 -2.0930  2.8887
 7075TIP3    H221190   2.270   2.580   0.345  0.5109  0.8143 -2.0027
 7076TIP3   OH221191   6.452   3.517   3.243  0.2588 -0.2071 -0.0577
 7076TIP3    H121192   6.415   3.499   3.157  0.6796  3.8876 -1.2826
 7076TIP3    H221193   6.493   3.434   3.269 -3.0342 -2.7185 -1.9835
 7077TIP3   OH221194   1.770   3.331   0.775  0.4045  0.4843  0.2156
 7077TIP3    H121195   1.715   3.330   0.697  0.4042 -0.0786  0.2162
 7077TIP3    H221196   1.818   3.414   0.769  0.2092  0.5703 -0.2451
 7078TIP3   OH221197   4.514   2.183   5.834  0.4064  0.0381 -0.9440
 7078TIP3    H121198   4.432   2.214   5.794 -1.6359 -2.2720  1.0893
 7078TIP3    H221199   4.572   2.165   5.760 -2.1045 -1.2879 -2.7310
 7079TIP3   OH221200   2.971   1.422   1.079 -0.3646 -0.3594  0.1520
 7079TIP3    H121201   2.929   1.428   1.165 -0.8809 -1.0447 -0.0400
 7079TIP3    H221202   2.921   1.482   1.024  1.3575  1.8303  0.8267
 7080TIP3   OH221203   0.205   6.741   0.807 -0.4542  0.2234 -0.5434
 7080TIP3    H121204   0.137   6.786   0.756 -1.1388  0.2146  0.3398
 7080TIP3    H221205   0.161   6.664   0.843 -0.9900  1.9123  2.7742
 7081TIP3   OH221206   4.952   4.627   2.150 -0.0303  0.0747 -0.4825
 7081TIP3    H121207   4.887   4.625   2.079  1.5900  0.1543 -2.0508
 7081TIP3    H221208   4.994   4.713   2.142 -0.0775  0.2481  0.8604
 7082TIP3   OH221209   5.900   6.524   2.230 -0.1796  0.4905 -0.6683
 7082TIP3    H121210   5.961   6.489   2.165  0.3316 -0.1118  0.1137
 7082TIP3    H221211   5.952   6.586   2.281  0.1830 -0.9685  0.8266
 7083TIP3   OH221212   5.413   3.839   4.340 -0.4673 -0.0362 -0.4045
 7083TIP3    H121213   5.392   3.838   4.247  0.6025 -0.5838 -0.6580
 7083TIP3    H221214   5.491   3.893   4.346 -0.1375 -0.5568  0.0777
 7084TIP3   OH221215   5.315   6.724   4.526 -0.2522  0.2282 -0.3564
 7084TIP3    H121216   5.315   6.652   4.463  0.4598  0.6446 -0.8469
 7084TIP3    H221217   5.380   6.785   4.492  1.6824 -0.4543  1.8270
 7085TIP3   OH221218   1.964   1.506   2.056  0.6240  0.3385  0.2217
 7085TIP3    H121219   2.017   1.431   2.082  0.9462  0.3756 -0.3095
 7085TIP3    H221220   2.007   1.540   1.977 -0.0938  0.4643 -0.1252
 7086TIP3   OH221221   2.618   5.955   3.590 -0.4168  0.1388  0.3198
 7086TIP3    H121222   2.648   6.035   3.633 -1.4657 -0.4481  2.2951
 7086TIP3    H221223   2.594   5.982   3.501  1.8055  1.4279  0.0497
 7087TIP3   OH221224   2.235   0.546   4.277  0.8912 -0.1654 -0.1514
 7087TIP3    H121225   2.157   0.503   4.313  0.6644  0.0285 -0.4122
 7087TIP3    H221226   2.220   0.547   4.183  1.4217 -0.5428 -0.2442
 7088TIP3   OH221227   0.044   3.189   0.937 -0.2376 -0.7407  0.1926
 7088TIP3    H121228   0.061   3.229   0.852 -0.2957 -0.7240  0.1889
 7088TIP3    H221229  -0.014   3.115   0.917  0.7612 -1.5108  0.0526
 7089TIP3   OH221230   2.098   1.911   0.319  0.1952 -0.3721  0.1158
 7089TIP3    H121231   2.052   1.988   0.352 -1.9389 -0.7143 -1.7993
 7089TIP3    H221232   2.038   1.838   0.336 -0.3216 -0.7690 -2.8706
 7090TIP3   OH221233   0.212   3.126   4.309 -0.1955 -0.4831 -0.5513
 7090TIP3    H121234   0.186   3.153   4.398  1.7229  2.1176 -0.6540
 7090TIP3    H221235   0.136   3.145   4.255 -0.3437  0.9179  0.1011
 7091TIP3   OH221236   1.361   3.866   5.756 -0.4350  0.7469  0.4116
 7091TIP3    H121237   1.286   3.860   5.815 -1.3562  1.7728 -0.6074
 7091TIP3    H221238   1.412   3.939   5.790 -0.4461  0.7221  0.4837
 7092TIP3   OH221239   0.610   4.000   1.969  0.2348  0.2531 -0.0747
 7092TIP3    H121240   0.562   3.969   1.892  0.2104 -0.5892  0.2811
 7092TIP3    H221241   0.629   4.092   1.948 -2.0766  0.8263  0.0343
 7093TIP3   OH221242   3.060   5.323   2.283  0.5329 -0.2318 -0.5273
 7093TIP3    H121243   3.084   5.301   2.193  0.6189  0.4423 -0.6756
 7093TIP3    H221244   3.112   5.401   2.303  0.0815 -0.0356 -0.1004
 7094TIP3   OH221245   6.264   0.420   1.550  0.2198 -0.3661  0.1141
 7094TIP3    H121246   6.240   0.428   1.642 -0.5988  0.2839 -0.1457
 7094TIP3    H221247   6.359   0.434   1.548 -0.0259  1.5527  0.6347
 7095TIP3   OH221248   4.579   0.907   0.182  0.0913 -0.0518 -0.2878
 7095TIP3    H121249   4.529   0.828   0.162  0.5154 -0.5097  0.4022
 7095TIP3    H221250   4.665   0.875   0.208 -0.2256  0.5054  1.6643
 7096TIP3   OH221251   3.554   2.485   0.935  0.2989  0.8884 -0.2554
 7096TIP3    H121252   3.536   2.564   0.986  2.0375  0.4699  1.1129
 7096TIP3    H221253   3.491   2.421   0.968 -0.2605  1.3410 -0.4396
 7097TIP3   OH221254   5.390   5.025   2.649 -0.3275  0.4932  0.0620
 7097TIP3    H121255   5.455   5.071   2.701 -0.2552  0.8896 -0.3759
 7097TIP3    H221256   5.398   4.933   2.676 -0.4203  0.7210  0.8758
 7098TIP3   OH221257   1.719   5.199   0.492  0.3071  0.6396  0.7832
 7098TIP3    H121258   1.659   5.169   0.561  0.3701  0.0874  0.5981
 7098TIP3    H221259   1.676   5.173   0.410  1.3365 -0.8010  0.6663
 7099TIP3   OH221260   0.338   3.438   1.074  0.1629 -0.9948  0.0933
 7099TIP3    H121261   0.356   3.503   1.142 -2.5385  0.2244 -0.2211
 7099TIP3    H221262   0.338   3.355   1.120 -0.5545 -0.3052  1.4102
 7100TIP3   OH221263   6.962   4.183   4.682 -0.1643 -0.2708  0.3869
 7100TIP3    H121264   6.872   4.163   4.705  0.0304  0.2896  1.7123
 7100TIP3    H221265   7.005   4.098   4.672 -0.7713 -0.5324 -0.0487
 7101TIP3   OH221266   0.477   6.309   3.863 -0.9792  0.5774 -0.6436
 7101TIP3    H121267   0.428   6.321   3.944 -0.3671 -1.1266  0.0297
 7101TIP3    H221268   0.462   6.217   3.839  0.3314  0.5451 -1.4517
 7102TIP3   OH221269   5.067   1.949   3.030  0.1945 -0.6053 -0.2398
 7102TIP3    H121270   4.975   1.975   3.024 -0.1090 -1.8754 -2.1887
 7102TIP3    H221271   5.111   2.004   2.964  0.7964 -0.2310  0.4598
 7103TIP3   OH221272   3.077   4.024   3.488 -0.3359  0.0147 -0.5673
 7103TIP3    H121273   3.054   3.958   3.553 -1.3852 -0.4949 -1.4283
 7103TIP3    H221274   3.005   4.088   3.491 -0.1616  0.2323 -0.8991
 7104TIP3   OH221275   5.848   1.110   5.856  0.0278 -0.4811  0.2226
 7104TIP3    H121276   5.841   1.083   5.765 -1.8578 -1.4066  0.5902
 7104TIP3    H221277   5.825   1.032   5.906 -0.3263  0.3743  1.4446
 7105TIP3   OH221278   0.160   4.708   4.010 -0.3721  0.3523  0.0379
 7105TIP3    H121279   0.197   4.650   3.945  0.4140  0.1325  0.6649
 7105TIP3    H221280   0.189   4.672   4.094 -3.8560 -1.1895  0.7523
 7106TIP3   OH221281   3.971   4.260   3.490 -0.1135  0.1369  0.1245
 7106TIP3    H121282   3.939   4.208   3.416  0.6614  0.7338 -0.6575
 7106TIP3    H221283   3.951   4.208   3.567 -1.4588 -0.2529 -0.4579
 7107TIP3   OH221284   2.375   6.383   1.379  0.3371  0.2582 -0.4325
 7107TIP3    H121285   2.341   6.342   1.458  2.1284 -1.2511 -0.3820
 7107TIP3    H221286   2.470   6.371   1.385  0.5880  0.9998 -2.3339
 7108TIP3   OH221287   2.012   6.559   4.405 -0.1472  0.5373  0.1281
 7108TIP3    H121288   1.951   6.629   4.379 -0.0560  0.9903  1.0875
 7108TIP3    H221289   2.002   6.552   4.500 -0.0598 -0.6856  0.0631
 7109TIP3   OH221290   1.753   4.754   0.699  0.3428 -0.1280 -0.1720
 7109TIP3    H121291   1.757   4.841   0.740 -0.9746 -0.4566  0.7268
 7109TIP3    H221292   1.751   4.771   0.605 -1.9590  0.9809 -0.0001
 7110TIP3   OH221293   2.061   6.632   1.043 -0.0989 -0.0884 -0.6729
 7110TIP3    H121294   1.982   6.662   1.086  1.1339  0.3406  1.4517
 7110TIP3    H221295   2.046   6.538   1.028 -1.9599  0.4513 -2.7188
 7111TIP3   OH221296   3.801   3.159   1.202  0.3948  0.4719  0.0827
 7111TIP3    H121297   3.833   3.244   1.229  1.5073  0.3154 -0.6996
 7111TIP3    H221298   3.810   3.159   1.107  0.8515 -0.6908  0.1120
 7112TIP3   OH221299   6.176   4.312   0.818  0.0138  0.0222 -0.0186
 7112TIP3    H121300   6.151   4.290   0.728  0.4010  0.5976 -0.2731
 7112TIP3    H221301   6.213   4.231   0.854  2.5615  0.4841 -1.3385
 7113TIP3   OH221302   3.345   1.770   0.112 -0.2358 -0.2102 -0.2055
 7113TIP3    H121303   3.411   1.704   0.092  0.9125  0.8911 -0.1906
 7113TIP3    H221304   3.370   1.845   0.058 -1.9716 -0.0389 -0.8123
 7114TIP3   OH221305   5.597   1.216   4.833 -0.5485  0.8199 -0.0331
 7114TIP3    H121306   5.633   1.166   4.906  1.1694  2.7137  0.4935
 7114TIP3    H221307   5.531   1.158   4.795 -0.0669 -1.0161  1.7559
 7115TIP3   OH221308   4.172   5.443   1.684  0.0574 -0.2137 -0.2173
 7115TIP3    H121309   4.098   5.492   1.719  0.5352  1.5967 -1.6310
 7115TIP3    H221310   4.132   5.374   1.631 -0.6034 -0.6969  0.8741
 7116TIP3   OH221311   3.972   0.601   0.730  0.8017 -0.3246 -0.4503
 7116TIP3    H121312   3.936   0.614   0.817  0.7917  1.1812 -0.6478
 7116TIP3    H221313   3.904   0.554   0.682  0.3999 -0.2625  0.0544
 7117TIP3   OH221314   3.522   4.791   4.745  0.0612  0.0005  0.3691
 7117TIP3    H121315   3.501   4.709   4.791  0.5375 -0.4034 -0.1115
 7117TIP3    H221316   3.529   4.766   4.653  2.3503  0.1187  0.4399
 7118TIP3   OH221317   2.412   5.481   1.111  0.1935 -0.6238 -0.0680
 7118TIP3    H121318   2.447   5.567   1.091 -2.0090  0.4977  0.5991
 7118TIP3    H221319   2.394   5.484   1.205  1.1199 -2.2470  0.2075
 7119TIP3   OH221320   0.642   3.054   0.474 -0.1573  0.0483  0.0427
 7119TIP3    H121321   0.608   3.130   0.520 -0.8443  0.2148 -0.7286
 7119TIP3    H221322   0.573   3.029   0.413  0.7688 -0.1116 -0.9710
 7120TIP3   OH221323   2.409   4.172   2.000  0.2043 -0.1266  0.7153
 7120TIP3    H121324   2.461   4.239   1.957  0.3204  0.5275  1.8308
 7120TIP3    H221325   2.321   4.208   2.006 -0.1198 -0.7448 -0.1047
 7121TIP3   OH221326   4.972   5.774   2.481 -0.6346  0.4534 -0.5507
 7121TIP3    H121327   4.925   5.850   2.518  1.2494  0.7806  1.3698
 7121TIP3    H221328   4.994   5.721   2.558  2.2113  0.3913 -1.3288
 7122TIP3   OH221329   2.280   6.039   2.659 -0.3249  0.2277 -0.4541
 7122TIP3    H121330   2.228   6.082   2.727  0.6480  1.5658 -0.5038
 7122TIP3    H221331   2.254   6.083   2.578 -0.7805 -0.6975 -0.8206
 7123TIP3   OH221332   3.959   1.268   5.592 -0.1327 -0.1441 -0.2235
 7123TIP3    H121333   4.047   1.251   5.626 -0.8729  0.1389  1.9800
 7123TIP3    H221334   3.938   1.356   5.625 -1.4038 -0.3801 -0.3707
 7124TIP3   OH221335   3.707   5.324   3.198 -0.1228 -0.3549 -0.5164
 7124TIP3    H121336   3.703   5.302   3.105 -0.9108  1.7811 -1.0413
 7124TIP3    H221337   3.616   5.344   3.221  0.1291 -0.4770  0.6320
 7125TIP3   OH221338   6.486   2.072   2.658 -0.4365 -0.2227  0.3425
 7125TIP3    H121339   6.574   2.075   2.620 -0.2132  0.3457  0.8772
 7125TIP3    H221340   6.495   2.118   2.741 -1.8263  2.3230 -0.8078
 7126TIP3   OH221341   3.459   2.753   2.403  0.0077 -0.1998  0.7116
 7126TIP3    H121342   3.375   2.799   2.410 -0.1798 -0.3612 -0.2822
 7126TIP3    H221343   3.525   2.822   2.407 -0.2857  0.2671 -1.2272
 7127TIP3   OH221344   5.775   5.816   1.805  0.1077  0.2566  0.1269
 7127TIP3    H121345   5.800   5.724   1.815 -0.8051 -0.1229 -0.8970
 7127TIP3    H221346   5.752   5.845   1.893  0.7130 -0.3945  0.5064
 7128TIP3   OH221347   2.027   6.393   2.947 -0.2193 -0.0721  0.2753
 7128TIP3    H121348   2.099   6.410   3.008  0.9139 -0.4279 -0.9208
 7128TIP3    H221349   1.948   6.414   2.997  0.6456 -0.6376  1.9518
 7129TIP3   OH221350   1.532   1.176   3.677  0.1212 -0.3844 -0.0820
 7129TIP3    H121351   1.616   1.136   3.654 -0.0279 -0.0777 -1.1994
 7129TIP3    H221352   1.507   1.132   3.758  0.7339 -1.4111 -0.4268
 7130TIP3   OH221353   3.417   3.496   1.700 -0.6577 -0.3192 -0.4787
 7130TIP3    H121354   3.349   3.444   1.743 -1.4748  0.5588 -0.6953
 7130TIP3    H221355   3.397   3.490   1.607  0.0127 -0.6702 -0.6070
 7131TIP3   OH221356   4.471   3.796   4.564 -0.0458  0.2440  0.4132
 7131TIP3    H121357   4.403   3.855   4.597  0.0956  0.5265  0.2008
 7131TIP3    H221358   4.496   3.743   4.640 -1.4056 -0.7484  0.2156
 7132TIP3   OH221359   3.040   5.115   1.058  0.3168 -0.4586  0.8354
 7132TIP3    H121360   3.114   5.144   1.112 -0.7286 -0.0897  2.1181
 7132TIP3    H221361   3.040   5.176   0.984  0.7266  0.1250  1.3025
 7133TIP3   OH221362   0.496   5.469   4.520  0.5724 -0.2686 -0.2760
 7133TIP3    H121363   0.433   5.525   4.566  1.6925 -0.6984  1.9520
 7133TIP3    H221364   0.482   5.488   4.428 -1.6316  0.8993  0.2179
 7134TIP3   OH221365   1.380   3.282   3.818  0.3235 -0.2944  1.1724
 7134TIP3    H121366   1.412   3.217   3.755 -0.5383 -0.2446  0.6602
 7134TIP3    H221367   1.458   3.311   3.864  0.8489 -1.0235  0.7712
 7135TIP3   OH221368   1.697   3.438   5.750  0.1960 -0.4488 -0.1296
 7135TIP3    H121369   1.677   3.528   5.725 -1.1779 -0.9957 -1.1051
 7135TIP3    H221370   1.741   3.401   5.674  2.5182 -0.1048  0.9552
 7136TIP3   OH221371   2.248   0.995   2.614 -0.3746 -0.0713  0.4415
 7136TIP3    H121372   2.281   1.053   2.682  0.7730 -1.3077  0.9774
 7136TIP3    H221373   2.323   0.979   2.557 -0.5556 -1.3229  0.5282
 7137TIP3   OH221374   6.405   6.120   3.740  0.4621 -0.1288 -0.5003
 7137TIP3    H121375   6.420   6.116   3.834 -1.0525 -0.0030 -0.2271
 7137TIP3    H221376   6.325   6.171   3.730  1.3255  1.0259 -1.9537
 7138TIP3   OH221377   0.604   2.629   3.855 -0.1286  0.4114  0.8124
 7138TIP3    H121378   0.655   2.592   3.928  0.5859  1.3551  0.8007
 7138TIP3    H221379   0.645   2.593   3.777 -0.5737 -0.1949  0.8514
 7139TIP3   OH221380   6.563   2.080   5.660 -0.7320 -0.6755 -0.3556
 7139TIP3    H121381   6.470   2.077   5.638 -1.1972 -1.0617  1.4621
 7139TIP3    H221382   6.572   2.157   5.717  0.3072  0.0401 -1.4337
 7140TIP3   OH221383   6.443   2.431   1.175 -0.2163  0.1582  0.0760
 7140TIP3    H121384   6.416   2.500   1.115 -0.2014  0.9872  0.9981
 7140TIP3    H221385   6.365   2.412   1.227 -0.5301 -1.2914 -0.8730
 7141TIP3   OH221386   1.241   0.815   0.198 -0.0958 -0.2298  0.2367
 7141TIP3    H121387   1.319   0.821   0.143 -0.5950 -1.6208 -0.6999
 7141TIP3    H221388   1.198   0.900   0.189  1.0025  0.3522  0.3151
 7142TIP3   OH221389   2.541   1.705   0.874 -0.3549 -0.2883 -0.0727
 7142TIP3    H121390   2.510   1.768   0.939  0.6622 -0.6255  0.7652
 7142TIP3    H221391   2.462   1.668   0.836 -1.0287  2.0600 -1.1954
 7143TIP3   OH221392   0.497   1.587   4.924 -0.0892  0.0328  0.0575
 7143TIP3    H121393   0.525   1.546   4.842  0.1453  0.5756 -0.1345
 7143TIP3    H221394   0.405   1.562   4.932 -0.0025 -0.3671 -0.1609
 7144TIP3   OH221395   5.000   5.531   5.359  0.1324  0.1934 -0.0976
 7144TIP3    H121396   4.954   5.581   5.426 -0.1758 -1.3558  0.9185
 7144TIP3    H221397   4.933   5.512   5.293  0.3411  1.3968 -0.6737
 7145TIP3   OH221398   2.225   5.175   0.054  0.1324  0.0883 -0.3448
 7145TIP3    H121399   2.157   5.130   0.005 -0.6212 -0.3138  1.0132
 7145TIP3    H221400   2.177   5.235   0.111  1.0390  1.3304 -0.8559
 7146TIP3   OH221401   4.583   4.212   3.403 -0.1255  0.7610 -0.4011
 7146TIP3    H121402   4.500   4.164   3.397 -0.8700  1.6094  2.0032
 7146TIP3    H221403   4.564   4.298   3.365  0.1369  0.4060 -1.3445
 7147TIP3   OH221404   3.701   2.014   2.366  0.1878 -0.1942  0.1303
 7147TIP3    H121405   3.646   2.019   2.288 -0.7187 -1.6112  0.6301
 7147TIP3    H221406   3.642   2.035   2.438  0.6569 -0.2998  0.5527
 7148TIP3   OH221407   4.071   2.311   1.030  0.4011 -0.0772 -1.1970
 7148TIP3    H121408   4.030   2.326   0.945  1.9657 -0.2205 -2.0150
 7148TIP3    H221409   4.083   2.399   1.067  0.5431  0.0509 -1.5419
 7149TIP3   OH221410   6.147   4.122   2.165 -0.3116 -0.4121  0.0639
 7149TIP3    H121411   6.104   4.086   2.087 -0.2701  0.2018 -0.2446
 7149TIP3    H221412   6.209   4.053   2.192 -0.3522 -0.6428 -0.4181
 7150TIP3   OH221413   5.736   3.232   0.202  0.0568  0.5718 -0.5230
 7150TIP3    H121414   5.694   3.314   0.176  0.6178  1.2162  0.5243
 7150TIP3    H221415   5.696   3.210   0.286  0.9301  0.5753 -0.0843
 7151TIP3   OH221416   0.281   2.133   0.706 -0.0138 -0.2072  0.0460
 7151TIP3    H121417   0.274   2.074   0.781 -2.0056 -0.1046  0.0113
 7151TIP3    H221418   0.235   2.087   0.635 -0.0335  0.6090 -0.4881
 7152TIP3   OH221419   1.221   4.730   3.487 -0.1967 -0.0312 -0.2830
 7152TIP3    H121420   1.148   4.707   3.429 -0.2854  0.9735 -0.5785
 7152TIP3    H221421   1.275   4.650   3.490 -0.6042 -0.3482 -1.1212
 7153TIP3   OH221422   5.146   1.617   1.628  0.2535 -0.1137  0.2216
 7153TIP3    H121423   5.150   1.693   1.571  2.0625  0.1596  0.6353
 7153TIP3    H221424   5.235   1.609   1.663  0.0503 -2.2690  0.3789
 7154TIP3   OH221425   0.971   6.189   5.007 -0.0343 -0.1035 -0.8893
 7154TIP3    H121426   0.974   6.279   5.040 -1.2390 -0.4878  0.3332
 7154TIP3    H221427   1.060   6.156   5.019  0.0061  0.3906  0.2039
 7155TIP3   OH221428   3.542   1.619   0.303 -0.0841 -0.2130  0.3258
 7155TIP3    H121429   3.486   1.544   0.283  1.8944 -1.2434 -1.9308
 7155TIP3    H221430   3.604   1.586   0.368 -1.6300  0.7754  2.4314
 7156TIP3   OH221431   6.899   6.607   5.707  0.1275 -0.2140 -0.0646
 7156TIP3    H121432   6.873   6.563   5.788 -1.0158 -1.6004 -1.1376
 7156TIP3    H221433   6.980   6.564   5.681  0.9037  0.7341  0.6806
 7157TIP3   OH221434   5.667   0.462   2.931  0.1799 -0.5235 -0.1248
 7157TIP3    H121435   5.752   0.500   2.911  1.4390 -3.2729 -0.5204
 7157TIP3    H221436   5.610   0.490   2.860  1.3632 -0.3896 -1.0505
 7158TIP3   OH221437   4.620   3.966   3.255  0.2575 -0.4114 -0.1292
 7158TIP3    H121438   4.621   4.006   3.342  2.4402 -1.6980  0.5075
 7158TIP3    H221439   4.530   3.978   3.225 -0.6684 -0.1972  2.4327
 7159TIP3   OH221440   0.953   0.531   5.275 -0.8204 -0.3927  0.4122
 7159TIP3    H121441   0.947   0.623   5.300 -0.6064  0.2514 -1.6738
 7159TIP3    H221442   1.044   0.519   5.247 -0.9144 -1.1667  0.4065
 7160TIP3   OH221443   4.374   6.625   2.593 -0.1128 -0.1607  0.2811
 7160TIP3    H121444   4.461   6.596   2.623 -0.9570 -1.2712  1.8087
 7160TIP3    H221445   4.327   6.544   2.574 -0.3991  0.4692 -1.9337
 7161TIP3   OH221446   6.223   4.257   5.069  0.6286 -0.0829 -0.3779
 7161TIP3    H121447   6.239   4.325   5.135 -0.7356  1.4075 -1.5095
 7161TIP3    H221448   6.219   4.175   5.119  0.0126  0.9521  1.3460
 7162TIP3   OH221449   3.847   6.019   5.214  0.0121 -0.1811 -0.2830
 7162TIP3    H121450   3.911   6.085   5.187  2.0123 -1.6583  0.5853
 7162TIP3    H221451   3.899   5.942   5.235 -2.0828 -1.4839  0.4842
 7163TIP3   OH221452   4.632   1.179   0.149 -0.3573 -0.1209  0.4543
 7163TIP3    H121453   4.578   1.236   0.203 -1.0746  0.2981 -0.6823
 7163TIP3    H221454   4.610   1.090   0.179  0.1970  0.1383  1.6995
 7164TIP3   OH221455   5.229   5.356   4.193 -0.2364 -0.6225  0.4935
 7164TIP3    H121456   5.174   5.288   4.152  0.6145 -0.9285 -0.1783
 7164TIP3    H221457   5.169   5.429   4.208 -0.4446 -0.1155 -2.2174
 7165TIP3   OH221458   5.979   5.095   2.940  0.0056 -0.0705  0.3591
 7165TIP3    H121459   5.929   5.052   3.010  0.3717 -0.7148  0.2298
 7165TIP3    H221460   6.049   5.141   2.987 -0.9757  1.2604  0.5862
 7166TIP3   OH221461   3.805   2.179   1.035  0.1288 -0.2193 -0.1857
 7166TIP3    H121462   3.770   2.256   1.081  0.7168 -1.9572  3.4645
 7166TIP3    H221463   3.897   2.176   1.060  0.5833 -1.1010 -1.8269
 7167TIP3   OH221464   6.689   5.044   4.967 -0.0006 -0.1306  0.4871
 7167TIP3    H121465   6.676   4.956   5.001 -3.7376 -0.0276 -0.2996
 7167TIP3    H221466   6.731   5.031   4.881  0.7894 -1.0027  0.9900
 7168TIP3   OH221467   2.095   4.045   0.445  0.3044 -0.2490  0.3438
 7168TIP3    H121468   2.138   3.983   0.504  1.1361  0.3799  0.4190
 7168TIP3    H221469   2.114   4.131   0.482 -0.8518  0.0648  0.2482
 7169TIP3   OH221470   0.615   1.324   3.946  0.1558 -0.3645  0.0939
 7169TIP3    H121471   0.561   1.270   4.005  1.0715 -0.9946  0.3693
 7169TIP3    H221472   0.660   1.261   3.890 -0.3744  0.2139 -1.0206
 7170TIP3   OH221473   5.881   5.372   5.865 -0.7067 -0.0082  0.0406
 7170TIP3    H121474   5.887   5.468   5.871 -1.0900  0.1553 -1.6033
 7170TIP3    H221475   5.954   5.348   5.808 -0.4538 -0.7374  0.6637
 7171TIP3   OH221476   1.681   3.329   2.254  0.6377 -0.3322 -0.2772
 7171TIP3    H121477   1.640   3.255   2.298  0.6068 -0.8261 -1.1269
 7171TIP3    H221478   1.686   3.304   2.162  1.7073  0.2357 -0.3983
 7172TIP3   OH221479   3.387   6.080   5.450 -0.1097 -0.2212 -0.0047
 7172TIP3    H121480   3.374   6.022   5.525  1.0446 -0.4610  0.0223
 7172TIP3    H221481   3.447   6.032   5.392  0.7019  0.8502 -0.0769
 7173TIP3   OH221482   5.639   1.372   2.612 -0.1922 -0.0543 -0.1412
 7173TIP3    H121483   5.607   1.330   2.692 -0.9332 -1.0933 -0.9562
 7173TIP3    H221484   5.586   1.334   2.542  0.8205  0.4138 -1.1976
 7174TIP3   OH221485   3.878   6.097   1.656 -0.3583 -0.5592 -0.1597
 7174TIP3    H121486   3.849   6.188   1.645  1.0275 -0.1246 -0.3432
 7174TIP3    H221487   3.951   6.087   1.595  0.1757 -1.4833  0.6009
 7175TIP3   OH221488   4.389   2.313   0.900  0.2778 -0.1538 -0.1132
 7175TIP3    H121489   4.389   2.356   0.986  0.3870  0.5407 -0.4564
 7175TIP3    H221490   4.303   2.270   0.896  0.7180 -1.1839  0.8203
 7176TIP3   OH221491   3.308   4.936   1.447  1.4664 -0.0559 -0.1956
 7176TIP3    H121492   3.282   4.845   1.433 -1.1541  0.2304  1.9317
 7176TIP3    H221493   3.229   4.987   1.429  1.7000  1.3778  2.3549
 7177TIP3   OH221494   3.562   0.142   2.665 -0.0266 -0.1043  0.2685
 7177TIP3    H121495   3.489   0.080   2.662 -1.0477  1.0562  0.2544
 7177TIP3    H221496   3.637   0.093   2.631 -1.3972 -0.5281 -2.4001
 7178TIP3   OH221497   3.055   2.125   3.798  0.3830 -0.2231 -0.3255
 7178TIP3    H121498   2.995   2.153   3.867 -1.1849 -2.1509 -0.8042
 7178TIP3    H221499   3.132   2.093   3.845  0.4446  0.9178  0.3786
 7179TIP3   OH221500   5.612   4.245   2.927  0.1036 -0.2563  0.0895
 7179TIP3    H121501   5.658   4.215   2.849  0.5406 -1.7415  0.8725
 7179TIP3    H221502   5.682   4.271   2.988 -0.1406 -0.9857  0.6965
 7180TIP3   OH221503   6.040   5.981   1.794 -0.2002 -0.0724 -0.3613
 7180TIP3    H121504   5.977   6.049   1.817 -0.5534 -1.4181  3.4646
 7180TIP3    H221505   5.991   5.899   1.804  1.2663 -1.0220 -0.7082
 7181TIP3   OH221506   6.188   5.454   4.852  0.5766  0.1069  0.0616
 7181TIP3    H121507   6.276   5.453   4.815  0.2692 -1.5192 -0.7258
 7181TIP3    H221508   6.165   5.361   4.863 -0.7911  0.5027  0.8455
 7182TIP3   OH221509   0.181   4.723   2.504 -0.4474 -0.0122 -0.2340
 7182TIP3    H121510   0.180   4.689   2.415 -1.6463  0.6699 -0.5012
 7182TIP3    H221511   0.264   4.692   2.541 -1.2666 -2.9480 -0.5562
 7183TIP3   OH221512   1.006   4.588   3.401  0.4980 -0.2872  0.4633
 7183TIP3    H121513   0.982   4.598   3.309  1.6938  1.1113  0.2622
 7183TIP3    H221514   0.997   4.494   3.419 -2.0672 -0.2693 -0.3849
 7184TIP3   OH221515   7.135   2.954   5.811  0.1682  0.2904  0.2691
 7184TIP3    H121516   7.204   2.907   5.856 -0.7678 -1.0254  0.3835
 7184TIP3    H221517   7.178   2.992   5.734  1.0024 -0.5574  0.2975
 7185TIP3   OH221518   6.639   3.935   4.250  0.1800 -0.4363 -0.2147
 7185TIP3    H121519   6.668   3.934   4.158 -1.2153  0.5611 -0.6948
 7185TIP3    H221520   6.693   4.003   4.291 -0.3274  0.2656 -0.7005
 7186TIP3   OH221521   1.467   3.855   0.613  0.5315 -0.2235  0.4334
 7186TIP3    H121522   1.495   3.764   0.624  2.2993  0.1584 -0.6373
 7186TIP3    H221523   1.535   3.907   0.656 -1.3312  0.6198  2.6465
 7187TIP3   OH221524   1.979   0.471   4.392 -0.0629  0.4378 -0.1710
 7187TIP3    H121525   1.893   0.492   4.356  0.6107  0.4958 -1.8545
 7187TIP3    H221526   2.007   0.551   4.436 -0.0618  1.0976 -1.3233
 7188TIP3   OH221527   0.483   4.378   1.361  0.2768  0.2162  0.5903
 7188TIP3    H121528   0.446   4.466   1.355  0.3009  0.2491  0.9155
 7188TIP3    H221529   0.544   4.372   1.287 -1.0890 -0.1793 -0.5363
 7189TIP3   OH221530   2.744   0.876   4.384 -0.7497  0.0563 -0.4903
 7189TIP3    H121531   2.758   0.782   4.390  0.3914  0.2063 -0.4673
 7189TIP3    H221532   2.750   0.907   4.474  0.6065  0.3479 -0.6574
 7190TIP3   OH221533   6.184   3.268   3.373 -0.1647 -0.5046 -0.5709
 7190TIP3    H121534   6.171   3.308   3.287  1.7309  0.7241 -0.3521
 7190TIP3    H221535   6.096   3.264   3.412 -0.6780  1.6673 -1.3963
 7191TIP3   OH221536   3.556   4.601   1.076 -0.7506 -0.3738  0.1884
 7191TIP3    H121537   3.528   4.678   1.127 -0.2729 -0.1797  0.1650
 7191TIP3    H221538   3.553   4.529   1.138  1.1819  0.0988  0.9167
 7192TIP3   OH221539   5.641   4.332   4.035 -0.2458  0.1367 -0.2493
 7192TIP3    H121540   5.553   4.300   4.018 -0.0978 -0.3242 -0.1610
 7192TIP3    H221541   5.689   4.319   3.953 -0.2058  0.2103 -0.2384
 7193TIP3   OH221542   5.809   3.006   1.024 -0.4517 -0.2271  0.0629
 7193TIP3    H121543   5.775   3.051   0.947  0.6890  0.7254  0.0957
 7193TIP3    H221544   5.841   2.922   0.990  0.8823  0.5630 -0.6859
 7194TIP3   OH221545   6.014   1.562   2.306 -0.1573  1.1296 -0.0013
 7194TIP3    H121546   5.996   1.535   2.397  1.6813  0.3865  0.1731
 7194TIP3    H221547   5.935   1.535   2.258 -1.6787  2.5679  1.5291
 7195TIP3   OH221548   6.215   5.991   1.346 -0.1339 -0.9396 -0.1807
 7195TIP3    H121549   6.160   5.920   1.311  1.7101 -2.5864  0.0946
 7195TIP3    H221550   6.303   5.955   1.347  0.5911  0.6750  1.8179
 7196TIP3   OH221551   1.853   4.107   0.940 -0.4078 -0.3825  0.1141
 7196TIP3    H121552   1.933   4.160   0.945  0.6368 -1.7350 -1.0256
 7196TIP3    H221553   1.799   4.150   0.874  0.7481 -1.0644 -1.3412
 7197TIP3   OH221554   0.208   5.911   1.912 -0.3057 -0.1761 -0.0560
 7197TIP3    H121555   0.198   5.982   1.975  1.7729  1.2217 -1.1917
 7197TIP3    H221556   0.301   5.911   1.890 -0.7696 -1.3004 -2.3226
 7198TIP3   OH221557   1.480   1.661   2.290  0.0731 -0.3135  0.1457
 7198TIP3    H121558   1.460   1.647   2.383 -0.8504  1.4298  0.2584
 7198TIP3    H221559   1.556   1.605   2.273 -0.7224 -1.9085  1.5183
 7199TIP3   OH221560   2.832   2.045   4.919  0.3826  0.1329 -0.5555
 7199TIP3    H121561   2.817   1.953   4.943 -0.8111  0.1735 -1.0796
 7199TIP3    H221562   2.790   2.095   4.988  1.2207  0.3061 -0.1554
 7200TIP3   OH221563   4.155   2.784   2.896  0.5199 -0.1657 -0.0472
 7200TIP3    H121564   4.115   2.811   2.814  0.5195 -0.1485 -0.0413
 7200TIP3    H221565   4.178   2.866   2.940  0.8087 -0.1762 -0.1720
 7201TIP3   OH221566   3.584   4.354   0.695 -0.5002 -0.2763 -0.1817
 7201TIP3    H121567   3.591   4.275   0.748 -0.0978 -0.4936 -0.5445
 7201TIP3    H221568   3.667   4.399   0.708 -0.5983 -0.0814 -0.2319
 7202TIP3   OH221569   2.943   0.567   0.832 -0.0258 -0.2678  0.2168
 7202TIP3    H121570   2.981   0.634   0.888  1.3513 -1.1905  0.4643
 7202TIP3    H221571   2.876   0.525   0.885 -1.0880  1.0748 -0.0416
 7203TIP3   OH221572   1.148   1.120   0.339  0.1070  0.3343 -0.6955
 7203TIP3    H121573   1.066   1.072   0.353  0.1152  0.7136  0.8281
 7203TIP3    H221574   1.119   1.207   0.310  0.0017  0.2351 -0.8924
 7204TIP3   OH221575   1.147   5.599   1.574 -0.2875  0.0763 -0.3982
 7204TIP3    H121576   1.217   5.555   1.526 -0.3905 -0.7879  0.2449
 7204TIP3    H221577   1.069   5.545   1.560 -0.1894 -0.5435  1.2465
 7205TIP3   OH221578   2.805   3.403   2.439  0.5445  0.7203 -0.7126
 7205TIP3    H121579   2.777   3.361   2.521  2.1004  0.5375 -0.2421
 7205TIP3    H221580   2.851   3.334   2.391 -0.1282  0.8991 -1.6453
 7206TIP3   OH221581   5.062   3.687   2.016 -0.0425 -0.3775  0.2868
 7206TIP3    H121582   5.088   3.755   2.079  0.2746 -0.4959  0.2866
 7206TIP3    H221583   4.969   3.673   2.033  0.4248 -1.7412  2.0271
 7207TIP3   OH221584   1.808   5.641   2.200 -0.0085  1.2176  0.3032
 7207TIP3    H121585   1.749   5.594   2.259  1.1097  0.2919  0.7095
 7207TIP3    H221586   1.749   5.681   2.135 -1.0705  0.1867  0.5970
 7208TIP3   OH221587   2.266   1.843   1.850  0.4912  0.1289 -0.7660
 7208TIP3    H121588   2.302   1.913   1.796  2.9703  0.4337  1.1357
 7208TIP3    H221589   2.322   1.839   1.927 -1.5352 -1.7931  0.7712
 7209TIP3   OH221590   6.488   4.323   4.263 -0.3688  0.5203 -0.5119
 7209TIP3    H121591   6.555   4.273   4.310 -0.9893 -0.4603 -0.6465
 7209TIP3    H221592   6.421   4.341   4.329 -0.1716  1.1595 -0.4744
 7210TIP3   OH221593   2.752   6.617   3.977  0.1915 -0.8340  0.0475
 7210TIP3    H121594   2.672   6.640   4.024 -0.3138 -2.8914  0.2797
 7210TIP3    H221595   2.799   6.700   3.968 -1.6148  0.3015  0.5391
 7211TIP3   OH221596   1.871   0.304   2.169  0.2338  0.2348  0.6817
 7211TIP3    H121597   1.960   0.277   2.148 -0.9911 -1.9592 -2.5308
 7211TIP3    H221598   1.830   0.226   2.208 -0.0930  1.5229  3.0888
 7212TIP3   OH221599   3.437   0.554   5.080  0.0599 -0.5991 -0.2629
 7212TIP3    H121600   3.527   0.579   5.101 -0.1881  1.3707 -1.2882
 7212TIP3    H221601   3.388   0.636   5.086 -1.5979 -1.5750 -0.0867
 7213TIP3   OH221602   5.765   6.252   0.779 -0.4405 -0.0351  0.0119
 7213TIP3    H121603   5.711   6.178   0.749 -0.5396 -0.0158  0.1411
 7213TIP3    H221604   5.801   6.222   0.863  1.0107 -0.6679 -0.8024
 7214TIP3   OH221605   6.160   0.158   1.540 -0.1180  0.2411 -0.1194
 7214TIP3    H121606   6.066   0.176   1.538 -0.1331  0.4426  1.4018
 7214TIP3    H221607   6.201   0.241   1.562  0.2519 -0.2399  1.1144
 7215TIP3   OH221608   6.675   5.457   4.009 -0.7419  0.2139  0.1047
 7215TIP3    H121609   6.689   5.550   4.026  2.4460  0.0575 -1.0032
 7215TIP3    H221610   6.686   5.449   3.914  1.6390 -1.6026  0.4732
 7216TIP3   OH221611   0.966   3.440   5.789 -0.7733 -0.4156  0.1351
 7216TIP3    H121612   0.890   3.445   5.731  0.5187 -2.6014 -1.9121
 7216TIP3    H221613   0.936   3.389   5.864 -1.3358 -1.3924 -0.7286
 7217TIP3   OH221614   3.943   6.635   0.780 -0.2763  0.2231  0.3164
 7217TIP3    H121615   3.943   6.649   0.685  0.2660  0.0876  0.2938
 7217TIP3    H221616   3.984   6.714   0.815 -1.6971  0.8977  0.5461
 7218TIP3   OH221617   5.700   2.573   0.489  0.3397  0.6881 -0.5815
 7218TIP3    H121618   5.665   2.522   0.562  1.5097  1.7107  0.7331
 7218TIP3    H221619   5.671   2.525   0.411 -0.5989 -0.6526  0.5332
 7219TIP3   OH221620   2.884   3.223   3.466  0.3861  0.1605  0.0812
 7219TIP3    H121621   2.791   3.244   3.452 -0.2830 -1.5811  1.4512
 7219TIP3    H221622   2.893   3.132   3.436  1.5995  0.2348  0.1806
 7220TIP3   OH221623   2.193   0.114   1.167 -0.0698 -0.4819  0.5239
 7220TIP3    H121624   2.232   0.060   1.098 -2.4308  0.5634 -1.8078
 7220TIP3    H221625   2.237   0.199   1.158  0.7367 -0.7847  1.4324
 7221TIP3   OH221626   3.519   5.031   4.858  0.0225  0.7778  0.0660
 7221TIP3    H121627   3.604   5.039   4.902 -0.9940 -1.6147  2.7935
 7221TIP3    H221628   3.526   4.951   4.806 -0.7266  0.1191  0.9287
 7222TIP3   OH221629   2.060   3.663   3.684  0.0877  0.8929 -0.2640
 7222TIP3    H121630   1.975   3.664   3.640  0.0203  0.9173 -0.1333
 7222TIP3    H221631   2.040   3.642   3.775  0.2191  0.9278 -0.2269
 7223TIP3   OH221632   1.906   4.337   1.132 -0.8247  0.7025 -0.6778
 7223TIP3    H121633   1.829   4.283   1.116 -1.8314  2.4901 -2.3009
 7223TIP3    H221634   1.871   4.425   1.147  0.8071  1.1789  0.7307
 7224TIP3   OH221635   4.410   5.763   4.257  0.0723 -0.1364  0.4564
 7224TIP3    H121636   4.426   5.700   4.187 -1.1089  0.6671 -0.5658
 7224TIP3    H221637   4.417   5.848   4.215 -0.5265  0.3680  1.3444
 7225TIP3   OH221638   3.734   5.944   4.780 -0.8175 -0.2431  0.0588
 7225TIP3    H121639   3.804   5.933   4.716  1.1392  0.3447  1.9603
 7225TIP3    H221640   3.666   5.993   4.734  0.3323 -0.2004 -1.6578
 7226TIP3   OH221641   1.315  -0.025   5.202 -0.1714 -0.7408 -0.5720
 7226TIP3    H121642   1.321   0.057   5.250  2.4895 -1.1840  0.0451
 7226TIP3    H221643   1.231  -0.021   5.157 -1.0786  1.3460  1.1280
 7227TIP3   OH221644   4.989   4.928   4.639 -0.2606  0.0942  0.1635
 7227TIP3    H121645   4.960   5.018   4.625  2.7453  1.2177  0.3943
 7227TIP3    H221646   5.006   4.923   4.733  0.7104 -0.2839 -0.0157
 7228TIP3   OH221647   1.758   1.210   5.241  0.5528 -0.1848 -0.0834
 7228TIP3    H121648   1.724   1.124   5.216  0.1642 -0.1197  0.2223
 7228TIP3    H221649   1.746   1.214   5.336 -0.1242  0.5084 -0.1921
 7229TIP3   OH221650   5.154   0.420   5.310 -0.0433 -0.1366 -0.2250
 7229TIP3    H121651   5.236   0.392   5.270 -1.1975 -1.2391 -1.9523
 7229TIP3    H221652   5.101   0.453   5.237 -2.2326 -2.2319  0.2658
 7230TIP3   OH221653   1.199   6.479   3.340  0.5870  0.3255  0.3621
 7230TIP3    H121654   1.268   6.412   3.335 -0.1980 -0.8330  3.2574
 7230TIP3    H221655   1.230   6.549   3.283  2.3049 -1.7235 -1.4123
 7231TIP3   OH221656   5.925   2.825   3.883  0.2718  0.8596  0.4144
 7231TIP3    H121657   6.014   2.818   3.919 -0.5353  1.4983  2.7210
 7231TIP3    H221658   5.883   2.892   3.936 -1.2922  1.3492 -1.3389
 7232TIP3   OH221659   3.233   2.247   5.159 -0.5236  0.0872 -0.0984
 7232TIP3    H121660   3.177   2.174   5.131  0.9214 -0.7561 -0.9857
 7232TIP3    H221661   3.313   2.235   5.107  0.2943  1.4896  0.8019
 7233TIP3   OH221662   0.752   3.490   4.174  0.2071  0.1302  0.0502
 7233TIP3    H121663   0.701   3.491   4.094  1.3487  1.0008 -0.7007
 7233TIP3    H221664   0.815   3.419   4.162  0.0803 -0.0339  0.3618
 7234TIP3   OH221665   0.141   5.122   1.140  0.6261 -0.7577 -0.2009
 7234TIP3    H121666   0.091   5.046   1.110  2.4295 -2.5566  1.0850
 7234TIP3    H221667   0.172   5.097   1.227  2.2611  0.9951 -0.2228
 7235TIP3   OH221668   4.745   3.100   3.935  0.2755  0.6862  0.2355
 7235TIP3    H121669   4.699   3.044   3.872  1.0911  0.8074 -0.4903
 7235TIP3    H221670   4.718   3.067   4.020 -1.6780  1.1786 -0.1324
 7236TIP3   OH221671   1.559   2.774   1.441  0.2595 -0.1319  0.4822
 7236TIP3    H121672   1.581   2.767   1.348  0.1980 -0.3765  0.4862
 7236TIP3    H221673   1.586   2.690   1.478  0.5479  0.0717  0.7402
 7237TIP3   OH221674   6.077   1.367   4.576 -0.1564 -0.5031  0.6247
 7237TIP3    H121675   5.994   1.323   4.590 -0.0420 -0.3541  1.8853
 7237TIP3    H221676   6.080   1.435   4.644 -0.5368  1.7881 -1.4930
 7238TIP3   OH221677   4.418   0.141   4.429 -0.0209 -0.0167 -0.3912
 7238TIP3    H121678   4.459   0.227   4.426 -2.1891  1.1925  1.4708
 7238TIP3    H221679   4.359   0.140   4.354 -1.9063  1.2664  0.9820
 7239TIP3   OH221680   6.873   4.756   2.900 -0.5027 -0.1730 -0.2622
 7239TIP3    H121681   6.904   4.804   2.976 -0.4858  0.8597 -0.9023
 7239TIP3    H221682   6.940   4.689   2.885  1.4592  1.9356 -1.5583
 7240TIP3   OH221683   4.722   1.290   4.049  0.1547 -0.1368 -0.1674
 7240TIP3    H121684   4.743   1.197   4.059 -1.1445 -0.4300 -0.0499
 7240TIP3    H221685   4.733   1.308   3.956 -0.9717 -0.7746 -0.4366
 7241TIP3   OH221686   5.207   1.392   5.597  0.1281  0.4878 -0.3200
 7241TIP3    H121687   5.189   1.486   5.603  2.2007  0.9835 -0.8862
 7241TIP3    H221688   5.264   1.374   5.672 -0.7196 -0.4695  0.1239
 7242TIP3   OH221689   5.347   6.708   3.397 -0.4078 -0.7147  0.5051
 7242TIP3    H121690   5.344   6.662   3.481  0.9525 -0.9649  0.4455
 7242TIP3    H221691   5.369   6.639   3.333 -2.7078 -0.7821 -0.2855
 7243TIP3   OH221692   2.628   4.096   3.187  0.2359  0.4208 -0.1993
 7243TIP3    H121693   2.572   4.157   3.140  1.3823  0.9478 -0.9220
 7243TIP3    H221694   2.667   4.040   3.119  0.5953  0.0728  0.2789
 7244TIP3   OH221695   2.547   4.204   2.708  0.3560 -0.1404 -0.5553
 7244TIP3    H121696   2.493   4.273   2.668  0.2531 -0.0171 -0.2057
 7244TIP3    H221697   2.635   4.222   2.677  0.3737  0.3051 -0.2574
 7245TIP3   OH221698   0.437   3.461   2.232 -0.3953  0.4791  0.5073
 7245TIP3    H121699   0.375   3.441   2.303  0.3871 -1.0594  0.7926
 7245TIP3    H221700   0.399   3.418   2.155  0.3413 -0.5171  0.6961
 7246TIP3   OH221701   5.420   3.790   4.055 -0.1298  0.4555 -0.2878
 7246TIP3    H121702   5.327   3.773   4.040 -0.8591  3.6300 -0.2348
 7246TIP3    H221703   5.448   3.840   3.978  1.3918 -0.0137 -0.0576
 7247TIP3   OH221704   5.531   3.407   0.651 -0.1345  0.0338  0.0949
 7247TIP3    H121705   5.456   3.443   0.697 -0.2932  0.6359 -0.6219
 7247TIP3    H221706   5.605   3.462   0.678  0.6331 -2.1287  2.8731
 7248TIP3   OH221707   3.435   5.243   1.706  0.1988 -0.5544 -0.0843
 7248TIP3    H121708   3.469   5.240   1.795 -0.4237 -1.3317  0.1428
 7248TIP3    H221709   3.340   5.237   1.716  0.1174 -0.5146 -0.7861
 7249TIP3   OH221710   4.166   0.945   4.845 -0.5947  0.0520 -0.2362
 7249TIP3    H121711   4.199   1.023   4.889 -1.1894 -0.0755  0.4472
 7249TIP3    H221712   4.179   0.874   4.908  0.1906 -0.4624 -0.9522
 7250TIP3   OH221713   3.272   6.419   3.829  0.9326 -0.5024  0.0650
 7250TIP3    H121714   3.184   6.456   3.828  0.8547 -0.6866  0.0612
 7250TIP3    H221715   3.294   6.410   3.921  0.9009 -0.5616  0.0673
 7251TIP3   OH221716   2.620   2.430   5.226 -0.6264  0.5800  0.3482
 7251TIP3    H121717   2.656   2.446   5.313 -0.9003  1.7315  0.2651
 7251TIP3    H221718   2.675   2.482   5.168 -1.3296  0.9786  0.0183
 7252TIP3   OH221719   3.979   4.050   1.143 -0.1558 -0.5980  0.0833
 7252TIP3    H121720   3.996   4.099   1.063  0.5301 -2.0984 -0.7420
 7252TIP3    H221721   3.936   4.112   1.202  1.6031  1.2657 -0.4995
 7253TIP3   OH221722   4.703   3.264   4.895  0.8741 -0.4020 -0.0541
 7253TIP3    H121723   4.735   3.297   4.811  1.9896  1.7142  1.1100
 7253TIP3    H221724   4.632   3.324   4.918  2.3613  0.7601  1.7258
 7254TIP3   OH221725   5.051   4.464   0.743 -0.2331 -0.0468 -0.8372
 7254TIP3    H121726   5.093   4.450   0.828 -1.0261  0.3006 -0.3771
 7254TIP3    H221727   5.077   4.553   0.718  0.5254 -0.3844 -1.2704
 7255TIP3   OH221728   3.391   5.269   5.168  0.6608 -0.2791 -0.0475
 7255TIP3    H121729   3.312   5.215   5.165  0.8523 -0.6325  0.8838
 7255TIP3    H221730   3.419   5.276   5.077 -1.1968  0.9916 -0.5817
 7256TIP3   OH221731   0.569   5.603   2.455 -0.0158  0.2094 -0.2772
 7256TIP3    H121732   0.575   5.568   2.367 -0.8271 -1.0012  0.1258
 7256TIP3    H221733   0.483   5.645   2.459 -0.0115  0.1973 -0.0338
 7257TIP3   OH221734   2.845   6.708   1.892  0.7987 -0.1110  0.4236
 7257TIP3    H121735   2.924   6.726   1.943  1.1945  2.1004 -0.8175
 7257TIP3    H221736   2.869   6.636   1.835  1.9703  0.5595  0.0351
 7258TIP3   OH221737   2.338   2.112   0.140  0.3984  0.8197  0.9490
 7258TIP3    H121738   2.330   2.117   0.236  0.1747  0.7891  0.9321
 7258TIP3    H221739   2.431   2.123   0.124  0.5883 -0.2370  1.2406
 7259TIP3   OH221740   3.379   4.734   0.618  0.3707 -0.3958  0.3831
 7259TIP3    H121741   3.426   4.712   0.698  0.2888 -1.7763  0.0859
 7259TIP3    H221742   3.348   4.649   0.585 -0.6666  0.2787 -0.4412
 7260TIP3   OH221743   6.494   3.337   4.479  0.0221 -0.2738 -0.0062
 7260TIP3    H121744   6.399   3.336   4.476  0.0047  0.9727 -0.2429
 7260TIP3    H221745   6.516   3.401   4.547  0.6905 -1.1759  0.6477
 7261TIP3   OH221746   2.022   4.606   0.354  0.0762 -0.4667 -0.1091
 7261TIP3    H121747   1.966   4.537   0.390  1.2571 -2.1669 -1.3668
 7261TIP3    H221748   1.979   4.632   0.273  0.8479 -1.5425 -0.9066
 7262TIP3   OH221749   4.885   4.155   2.601  0.0541  0.1679  0.1121
 7262TIP3    H121750   4.840   4.071   2.593  1.8531 -0.8164 -0.0728
 7262TIP3    H221751   4.816   4.216   2.627 -1.4471 -1.1896 -0.5051
 7263TIP3   OH221752   4.268   5.999   0.350 -0.3042  0.1060 -0.2999
 7263TIP3    H121753   4.334   6.009   0.281 -1.2054 -1.0932 -1.3859
 7263TIP3    H221754   4.273   5.906   0.374 -0.7743  0.2739  0.4636
 7264TIP3   OH221755   4.615   3.981   0.640 -0.1444 -0.2143 -0.9189
 7264TIP3    H121756   4.683   4.039   0.607  0.4340 -0.8329 -0.8364
 7264TIP3    H221757   4.560   3.963   0.564 -1.9508  2.5645 -0.4109
 7265TIP3   OH221758   5.439   3.900   5.072 -0.4634 -0.3000  0.0913
 7265TIP3    H121759   5.500   3.969   5.047  0.4174 -1.0490  0.1480
 7265TIP3    H221760   5.415   3.858   4.989  0.3240 -1.0148  0.2184
 7266TIP3   OH221761   5.684   3.591   5.508 -0.1151  0.4516 -0.2506
 7266TIP3    H121762   5.595   3.624   5.515 -0.5015 -0.4971 -0.4793
 7266TIP3    H221763   5.679   3.503   5.546  0.2413 -0.4442 -2.1562
 7267TIP3   OH221764   7.046   1.127   1.075  0.8512 -0.6537 -0.3901
 7267TIP3    H121765   7.082   1.098   0.991  2.5944  1.5179 -0.4814
 7267TIP3    H221766   6.973   1.184   1.051  1.8226  0.5880 -0.5403
 7268TIP3   OH221767   4.691   4.987   5.795  1.3924  0.2587  0.2032
 7268TIP3    H121768   4.706   5.022   5.882  1.1156 -0.5329  0.5747
 7268TIP3    H221769   4.629   5.048   5.755  1.2369  0.4186  0.6849
 7269TIP3   OH221770   7.163   1.469   1.009  0.5023 -0.3255  0.4495
 7269TIP3    H121771   7.218   1.433   1.078  2.0977  0.1961 -0.5040
 7269TIP3    H221772   7.172   1.564   1.017  1.5314 -0.2559 -1.0527
 7270TIP3   OH221773   1.504   6.753   5.563 -0.8948 -0.4914  0.3309
 7270TIP3    H121774   1.487   6.704   5.644  0.3254 -0.5751  0.5659
 7270TIP3    H221775   1.594   6.728   5.539 -1.0447 -0.0354 -0.7461
 7271TIP3   OH221776   1.441   4.030   1.082  0.0448  0.6624  0.3661
 7271TIP3    H121777   1.486   3.950   1.056  0.5381  1.3335 -0.9506
 7271TIP3    H221778   1.370   4.000   1.139 -1.5266 -1.0488 -2.2372
 7272TIP3   OH221779   0.448   3.276   3.707 -0.2639  0.3095  0.0968
 7272TIP3    H121780   0.541   3.287   3.687 -0.2015  1.0160  0.7053
 7272TIP3    H221781   0.442   3.190   3.747  0.3610  0.7678  1.2438
 7273TIP3   OH221782   2.826   1.845   2.347 -0.0964  0.2452  0.4155
 7273TIP3    H121783   2.730   1.852   2.344 -0.0881  1.2514  1.7379
 7273TIP3    H221784   2.853   1.909   2.412  1.4247 -0.6582  0.7249
 7274TIP3   OH221785   3.895   5.235   3.707  0.0608  0.2414  0.1405
 7274TIP3    H121786   3.803   5.248   3.733  0.4632  0.7554  1.3986
 7274TIP3    H221787   3.944   5.245   3.788  1.2452  0.0298 -0.5297
 7275TIP3   OH221788   0.003   4.051   1.672 -0.3850 -0.2572 -0.3162
 7275TIP3    H121789  -0.056   3.981   1.702  0.6176 -1.5065 -1.1378
 7275TIP3    H221790   0.091   4.015   1.682  0.0838 -0.2543 -3.3198
 7276TIP3   OH221791   5.697   3.784   0.675  0.0679  0.5203 -0.2862
 7276TIP3    H121792   5.748   3.858   0.644  0.7646  0.3195  0.3546
 7276TIP3    H221793   5.754   3.708   0.662 -1.7752 -0.4668 -3.9924
 7277TIP3   OH221794   6.130   5.045   3.505 -0.1939 -0.9684  0.1003
 7277TIP3    H121795   6.130   5.079   3.595 -0.5927 -0.9746  0.1057
 7277TIP3    H221796   6.145   5.122   3.450 -0.8504 -0.8133  0.1257
 7278TIP3   OH221797   5.544   6.506  -0.014 -0.3476  0.1791 -0.4018
 7278TIP3    H121798   5.475   6.566  -0.041  0.3913  1.1466 -0.1683
 7278TIP3    H221799   5.524   6.485   0.077 -0.3782  0.3926 -0.3590
 7279TIP3   OH221800   2.491   6.318   4.324 -0.3075 -0.3179  0.1027
 7279TIP3    H121801   2.505   6.225   4.342  1.7303 -0.1011 -0.0602
 7279TIP3    H221802   2.481   6.359   4.410 -0.7049 -0.6191  0.1992
 7280TIP3   OH221803   5.391   6.236   0.697 -0.0585  0.3944 -0.0586
 7280TIP3    H121804   5.449   6.305   0.730  1.5559  0.0913 -2.0689
 7280TIP3    H221805   5.437   6.154   0.716 -1.2549 -0.0789  0.9500
 7281TIP3   OH221806   1.089   1.591   0.776  0.1648 -0.5107 -0.2076
 7281TIP3    H121807   1.101   1.545   0.859 -1.3807 -0.2721  0.1899
 7281TIP3    H221808   1.036   1.668   0.799 -1.5461 -1.1935 -1.5848
 7282TIP3   OH221809   3.915   4.793   3.949 -0.2149 -0.6299 -0.4418
 7282TIP3    H121810   3.851   4.846   3.901  0.8761  1.4059  0.2546
 7282TIP3    H221811   3.926   4.714   3.895 -0.1353  0.8886 -2.7720
 7283TIP3   OH221812   1.710   6.548   4.788  0.1852 -0.4069  0.0515
 7283TIP3    H121813   1.695   6.513   4.876 -0.2752 -0.9619 -0.2410
 7283TIP3    H221814   1.621   6.560   4.753  0.3712 -1.9058 -1.0079
 7284TIP3   OH221815   5.292   5.593   3.145 -0.3292  0.0151 -0.0043
 7284TIP3    H121816   5.377   5.560   3.174  0.1399  0.5255 -0.7613
 7284TIP3    H221817   5.266   5.534   3.074 -0.4593  0.0510  0.0129
 7285TIP3   OH221818   5.264   2.468   3.628  0.0316  0.9392 -0.0534
 7285TIP3    H121819   5.266   2.411   3.551 -1.3861  0.4449  0.2351
 7285TIP3    H221820   5.326   2.428   3.689  1.9059  1.8807 -1.2562
 7286TIP3   OH221821   1.409   4.399   3.612  0.5738 -0.0956  0.4200
 7286TIP3    H121822   1.501   4.408   3.637  1.2397 -1.5015 -1.3312
 7286TIP3    H221823   1.397   4.306   3.596 -1.8405 -0.3334  2.8758
 7287TIP3   OH221824   5.058   6.778   3.334  0.1676  0.3099  0.6557
 7287TIP3    H121825   5.141   6.737   3.360  1.1582  1.6902 -0.1586
 7287TIP3    H221826   5.039   6.740   3.248 -0.6911 -0.8699  1.3421
 7288TIP3   OH221827   6.901   2.920   5.389 -0.0410  0.1498  1.4210
 7288TIP3    H121828   6.943   2.931   5.303 -1.8547 -0.3610  0.4063
 7288TIP3    H221829   6.970   2.889   5.446  1.1582  0.1962  0.0514
 7289TIP3   OH221830   5.375   1.527   5.381  0.0234 -0.2609  0.5149
 7289TIP3    H121831   5.334   1.601   5.336  0.0355  0.7806  2.1253
 7289TIP3    H221832   5.302   1.483   5.425  0.1161 -0.7757  0.1543
 7290TIP3   OH221833   4.397   4.652   4.843 -0.0222 -0.7472  0.3487
 7290TIP3    H121834   4.339   4.587   4.883 -1.1310 -0.6810 -1.0470
 7290TIP3    H221835   4.451   4.601   4.782  0.0314 -0.5494  0.2283
 7291TIP3   OH221836   3.160   3.114   4.951  0.1568  0.2845  0.0283
 7291TIP3    H121837   3.127   3.148   4.868 -0.7912  0.1001  0.3146
 7291TIP3    H221838   3.091   3.136   5.014  0.7094  0.1175  0.6968
 7292TIP3   OH221839   5.078   1.544   5.112 -0.1565  0.3632 -0.1500
 7292TIP3    H121840   5.068   1.484   5.038 -1.2397  1.2828 -0.7896
 7292TIP3    H221841   5.127   1.618   5.076  1.4131 -0.2356  0.7055
 7293TIP3   OH221842   1.058   4.422   2.378 -0.0273 -0.4534  0.1835
 7293TIP3    H121843   1.110   4.466   2.446  0.6353 -0.4294 -0.3258
 7293TIP3    H221844   0.986   4.381   2.426 -0.9301  1.5466  0.6017
 7294TIP3   OH221845   3.070   6.594   3.141 -0.1448  0.9232  0.1090
 7294TIP3    H121846   3.031   6.670   3.185  0.1853  0.4094  1.3262
 7294TIP3    H221847   3.154   6.581   3.184 -0.7138 -0.8699  0.8138
 7295TIP3   OH221848   1.700   0.813   3.693  0.1668 -0.1809 -0.2377
 7295TIP3    H121849   1.628   0.840   3.750 -0.6325 -1.2302 -0.7111
 7295TIP3    H221850   1.729   0.894   3.650 -2.6450 -0.0957 -2.1963
 7296TIP3   OH221851   2.990   5.123   3.958 -0.0055 -0.1175  0.0660
 7296TIP3    H121852   2.967   5.048   4.014 -3.3603  0.8066  0.1645
 7296TIP3    H221853   2.977   5.091   3.869  0.8248 -0.2668 -0.0118
 7297TIP3   OH221854   3.714   2.382   4.423  0.4591  0.0593  0.6446
 7297TIP3    H121855   3.672   2.350   4.503 -0.1427  0.9487  0.6915
 7297TIP3    H221856   3.808   2.368   4.438  0.4866  1.5768  2.1454
 7298TIP3   OH221857   7.224   5.663   4.669 -0.0696 -0.1043 -0.2609
 7298TIP3    H121858   7.198   5.615   4.590 -0.1910 -0.9145  0.2606
 7298TIP3    H221859   7.141   5.686   4.711  0.0053 -0.7738  0.2708
 7299TIP3   OH221860   5.353   2.337   3.003 -0.0695 -0.4783 -0.4634
 7299TIP3    H121861   5.356   2.344   3.098 -3.2208 -1.2716 -0.1947
 7299TIP3    H221862   5.443   2.353   2.975  0.1581  5.2261  2.1697
 7300TIP3   OH221863   1.787   1.063   3.624  0.5691  0.0183  0.0448
 7300TIP3    H121864   1.836   1.129   3.673 -0.0303  0.2735  0.3147
 7300TIP3    H221865   1.840   1.047   3.546  0.0276  1.9488 -0.7859
 7301TIP3   OH221866   6.455   1.506   1.596  0.4389 -0.0145  0.6085
 7301TIP3    H121867   6.501   1.430   1.561  0.1326  1.0886 -2.4202
 7301TIP3    H221868   6.512   1.539   1.665  1.5072 -1.8275  0.6482
 7302TIP3   OH221869   0.903   4.686   5.635 -0.4246 -0.5017 -0.5316
 7302TIP3    H121870   0.822   4.635   5.647  0.6499 -2.2413 -0.3134
 7302TIP3    H221871   0.937   4.658   5.550  0.4478 -0.5155 -0.1859
 7303TIP3   OH221872   6.391   0.978   3.509 -0.2570 -0.1232 -0.1566
 7303TIP3    H121873   6.346   0.931   3.439 -2.3447  1.7926 -0.2386
 7303TIP3    H221874   6.337   0.963   3.587  1.4291 -1.3151  0.8475
 7304TIP3   OH221875   3.309   4.273   5.075  0.1719  0.6445  0.1645
 7304TIP3    H121876   3.238   4.222   5.114  1.2299 -1.2285 -0.2478
 7304TIP3    H221877   3.378   4.272   5.141  0.7658  0.2138 -0.4514
 7305TIP3   OH221878   1.006   1.326   1.541  0.1491  0.0680 -0.1273
 7305TIP3    H121879   0.929   1.309   1.595  2.0762 -1.0628  2.4829
 7305TIP3    H221880   1.037   1.411   1.570 -0.7810  1.1556 -2.1359
 7306TIP3   OH221881   1.394   3.189   2.792  0.2101 -0.4200 -0.3792
 7306TIP3    H121882   1.393   3.267   2.847 -2.2346 -0.5107 -0.1986
 7306TIP3    H221883   1.352   3.217   2.711 -2.8910 -2.0086  0.5238
 7307TIP3   OH221884   4.136   0.845   4.267 -0.0541 -0.0981 -0.0861
 7307TIP3    H121885   4.205   0.837   4.333  0.7482 -0.8203 -0.9825
 7307TIP3    H221886   4.172   0.803   4.189 -1.4547 -0.3737 -0.6219
 7308TIP3   OH221887   5.939   1.743   2.670  0.1662 -0.1087  0.2472
 7308TIP3    H121888   5.849   1.767   2.690 -0.1336 -1.2033  0.2683
 7308TIP3    H221889   5.973   1.706   2.751  0.8381  0.8171  0.4109
 7309TIP3   OH221890   1.282   2.357   4.831  0.1550 -0.7094 -0.3074
 7309TIP3    H121891   1.231   2.315   4.900 -1.1683 -0.7605 -1.2745
 7309TIP3    H221892   1.268   2.302   4.754 -1.3576  1.2378 -1.5147
 7310TIP3   OH221893   1.510   0.163   0.153 -0.1428 -0.3923 -0.2661
 7310TIP3    H121894   1.597   0.179   0.117  0.4315 -2.6814 -0.0997
 7310TIP3    H221895   1.472   0.098   0.094 -1.5417  0.1623 -0.0138
 7311TIP3   OH221896   5.637   1.181   4.426  0.6015  0.1546 -0.2219
 7311TIP3    H121897   5.710   1.155   4.482  1.3539  1.7925 -0.3814
 7311TIP3    H221898   5.575   1.224   4.485 -0.1421 -0.9896 -0.1325
 7312TIP3   OH221899   7.157   4.605   4.205  0.0654  0.1444  0.2031
 7312TIP3    H121900   7.167   4.663   4.281 -0.1015 -0.1311  0.4351
 7312TIP3    H221901   7.234   4.624   4.151 -0.0148  0.6254  0.2476
 7313TIP3   OH221902   3.105   2.867   4.058  0.0296  0.2225 -0.3527
 7313TIP3    H121903   3.110   2.771   4.062 -1.4385  0.1621  1.3951
 7313TIP3    H221904   3.196   2.895   4.068  0.4881 -0.9814 -0.8827
 7314TIP3   OH221905   1.947   2.559   3.803 -0.6074  0.1623  0.6123
 7314TIP3    H121906   2.008   2.555   3.877 -0.6166 -2.7626  0.5697
 7314TIP3    H221907   1.991   2.511   3.733 -1.6767  0.7052 -0.4790
 7315TIP3   OH221908   0.296   6.214   0.781  0.4181  0.5888 -0.0157
 7315TIP3    H121909   0.372   6.182   0.733  0.5427  0.1991  0.4339
 7315TIP3    H221910   0.304   6.174   0.868 -1.3682 -1.0427 -0.5687
 7316TIP3   OH221911   4.870   1.514   4.732 -0.1108 -0.2080 -0.0908
 7316TIP3    H121912   4.952   1.472   4.709 -0.1761 -1.2362  1.4477
 7316TIP3    H221913   4.805   1.471   4.677  0.3173  0.4648 -1.1610
 7317TIP3   OH221914   3.640   0.371   4.297 -0.6811 -0.2964 -0.3005
 7317TIP3    H121915   3.702   0.409   4.359  0.8219 -1.2400 -1.1428
 7317TIP3    H221916   3.692   0.308   4.247 -2.2107 -0.7275 -1.4397
 7318TIP3   OH221917   1.749   3.498   3.065 -0.2273  0.6996  0.0596
 7318TIP3    H121918   1.751   3.499   2.970 -1.0951 -1.8462 -0.0744
 7318TIP3    H221919   1.831   3.455   3.091 -0.5574  0.2428  0.3719
 7319TIP3   OH221920   1.153   2.587   3.003 -0.1106  0.3326 -0.0496
 7319TIP3    H121921   1.203   2.506   2.993 -1.3341 -0.4915  0.3181
 7319TIP3    H221922   1.123   2.607   2.914 -1.8220 -0.9775  0.1822
 7320TIP3   OH221923   3.653   0.843   1.974  0.3510 -0.2854 -0.5989
 7320TIP3    H121924   3.738   0.850   1.931  0.1025  0.7645 -0.9518
 7320TIP3    H221925   3.620   0.757   1.946  1.0238 -0.4372 -0.9614
 7321TIP3   OH221926   0.396   4.134   4.926  0.4670 -0.5378 -0.1103
 7321TIP3    H121927   0.304   4.117   4.948  0.6696 -0.3125  0.9940
 7321TIP3    H221928   0.393   4.203   4.860 -0.1266  0.5635  1.0295
 7322TIP3   OH221929   0.033   4.948   3.408  0.1781  0.3146 -0.0479
 7322TIP3    H121930   0.071   4.861   3.411 -1.3383 -0.3603  0.8394
 7322TIP3    H221931   0.001   4.963   3.498 -2.7137  0.2941 -0.9633
 7323TIP3   OH221932   2.336   2.126   1.945 -0.5822  0.3479  0.0187
 7323TIP3    H121933   2.258   2.103   1.894 -1.0106  1.3485  0.1878
 7323TIP3    H221934   2.332   2.071   2.022 -0.1598 -0.8802 -0.8072
 7324TIP3   OH221935   5.582   6.179   4.362  0.2009 -0.3357 -1.2140
 7324TIP3    H121936   5.523   6.250   4.389 -1.2218 -1.1469 -2.0542
 7324TIP3    H221937   5.645   6.221   4.304  1.3044  0.7964  0.6930
 7325TIP3   OH221938   1.476   2.447   4.433  0.1455 -0.0257  0.4732
 7325TIP3    H121939   1.489   2.362   4.392  2.0753  0.5274 -0.1399
 7325TIP3    H221940   1.407   2.489   4.381  1.2905 -0.0465 -1.1415
 7326TIP3   OH221941   6.501   3.646   1.314 -0.1707  0.8220 -0.1839
 7326TIP3    H121942   6.481   3.563   1.271  1.1557 -1.0464  2.5298
 7326TIP3    H221943   6.584   3.674   1.276  0.4772 -0.2686  0.3966
 7327TIP3   OH221944   3.338   5.657   5.141 -0.2113 -0.3833 -0.1555
 7327TIP3    H121945   3.346   5.747   5.109  0.8593 -0.2504  0.4612
 7327TIP3    H221946   3.368   5.660   5.231 -2.0461 -0.9954  0.5308
 7328TIP3   OH221947   1.581   2.250   5.234 -0.6533 -0.4961  0.0892
 7328TIP3    H121948   1.612   2.311   5.168 -3.1953 -0.5973 -1.2770
 7328TIP3    H221949   1.532   2.184   5.186  0.4401 -2.6480  1.7198
 7329TIP3   OH221950   0.367   5.754   5.208 -0.1838  0.6986 -0.2878
 7329TIP3    H121951   0.452   5.747   5.252 -1.2624  0.5026  1.9361
 7329TIP3    H221952   0.377   5.827   5.147  2.4294 -1.1539 -2.3144
 7330TIP3   OH221953   6.210   1.353   5.165 -0.2549  0.1858  0.2307
 7330TIP3    H121954   6.146   1.423   5.172  0.9487  1.4597 -0.8886
 7330TIP3    H221955   6.185   1.305   5.086  0.1485  0.7072 -0.2281
 7331TIP3   OH221956   5.005   2.468   4.854 -0.7566 -0.2526 -0.0406
 7331TIP3    H121957   5.031   2.558   4.835 -1.8905  0.0744 -0.1522
 7331TIP3    H221958   4.913   2.464   4.827 -0.4496 -1.7419 -0.9877
 7332TIP3   OH221959   5.269   1.021   1.043 -0.9051  0.0168 -0.1989
 7332TIP3    H121960   5.239   1.020   1.134 -2.6019  0.3792 -0.7171
 7332TIP3    H221961   5.233   1.102   1.007  1.7050  1.0960 -0.6095
 7333TIP3   OH221962   1.320   0.254   3.297  0.1271  0.4176 -0.4821
 7333TIP3    H121963   1.349   0.213   3.215  0.6272  1.3969 -0.8118
 7333TIP3    H221964   1.374   0.214   3.365  2.1289  1.9869 -1.0476
 7334TIP3   OH221965   0.815   0.804   1.300  0.1238  0.2650 -0.7067
 7334TIP3    H121966   0.807   0.837   1.210  0.8099 -0.5407 -1.0700
 7334TIP3    H221967   0.898   0.757   1.302 -0.4502 -0.7711  0.0123
 7335TIP3   OH221968   3.902   0.278   3.739 -0.0027 -0.5373 -0.4357
 7335TIP3    H121969   3.884   0.258   3.831  0.8353 -1.3480 -0.4394
 7335TIP3    H221970   3.836   0.228   3.691  0.2484 -0.9756 -0.3224
 7336TIP3   OH221971   2.263   0.356   2.636 -0.0726  0.6520 -0.1558
 7336TIP3    H121972   2.215   0.384   2.558 -1.2474  2.0579  1.0057
 7336TIP3    H221973   2.336   0.304   2.602 -1.9831 -0.9907 -2.0282
 7337TIP3   OH221974   4.309   4.768   0.417 -0.1700 -0.4264  0.1101
 7337TIP3    H121975   4.289   4.675   0.421 -0.3578 -0.6137 -2.9409
 7337TIP3    H221976   4.238   4.805   0.365  1.2335  0.9675 -0.8830
 7338TIP3   OH221977   2.616   1.844   5.061  0.4936 -1.1275  0.0473
 7338TIP3    H121978   2.583   1.826   4.973  0.1197  0.1807 -0.1010
 7338TIP3    H221979   2.603   1.762   5.108  1.1989 -2.0208 -1.2442
 7339TIP3   OH221980   5.826   6.338   3.904 -0.1158 -0.5213  0.9527
 7339TIP3    H121981   5.862   6.426   3.917 -0.0229 -0.2838 -0.7027
 7339TIP3    H221982   5.857   6.313   3.817  1.1719 -2.8439  1.9905
 7340TIP3   OH221983   2.809   0.343   0.999  0.1295  0.0596  0.4545
 7340TIP3    H121984   2.822   0.280   0.928 -1.4287  1.1141 -0.8384
 7340TIP3    H221985   2.860   0.307   1.072  1.5608 -1.2107 -1.0772
 7341TIP3   OH221986   0.799   6.434   3.562 -0.2599 -0.2769 -0.2973
 7341TIP3    H121987   0.709   6.452   3.588 -0.6232 -0.1160 -1.6113
 7341TIP3    H221988   0.842   6.520   3.566 -0.5791 -0.0630 -1.1847
 7342TIP3   OH221989   2.580   2.660   1.857  0.2425 -0.6201  0.8254
 7342TIP3    H121990   2.549   2.600   1.925  0.1436 -1.1441  0.3291
 7342TIP3    H221991   2.584   2.606   1.778  0.3362 -0.0143  0.4110
 7343TIP3   OH221992   1.914   1.777   3.415 -0.1600  0.4901 -0.3883
 7343TIP3    H121993   1.979   1.721   3.373  1.5890 -0.2036  2.9524
 7343TIP3    H221994   1.941   1.866   3.391  0.6806  0.1349 -0.8138
 7344TIP3   OH221995   3.669   6.244   2.888  0.4598  0.1480  0.4304
 7344TIP3    H121996   3.581   6.212   2.905  0.1536  1.6360  1.8890
 7344TIP3    H221997   3.723   6.165   2.884 -1.1748 -0.9855 -2.6516
 7345TIP3   OH221998   0.700   1.428   4.534 -0.3461  0.5188 -0.1779
 7345TIP3    H121999   0.705   1.505   4.477  0.5704  0.8071  0.2739
 7345TIP3    H222000   0.774   1.374   4.507 -0.3075  0.3392  0.2810
 7346TIP3   OH222001   6.976   2.615   1.828  0.3916  0.3448  0.3909
 7346TIP3    H122002   6.961   2.574   1.913 -0.1343 -1.0894 -0.3613
 7346TIP3    H222003   7.066   2.591   1.806 -0.8079 -3.2991 -1.4461
 7347TIP3   OH222004   0.981   4.212   3.956 -0.1726  0.1329  0.6604
 7347TIP3    H122005   0.920   4.182   3.889 -0.9773 -0.1865  1.5133
 7347TIP3    H222006   1.031   4.281   3.913 -1.1002  0.3633 -0.0881
 7348TIP3   OH222007   1.220   5.012   2.768  0.1574  0.1736  0.2311
 7348TIP3    H122008   1.302   5.002   2.720  0.9048 -0.6856  1.6356
 7348TIP3    H222009   1.161   4.948   2.727 -0.3317  1.7754 -1.7314
 7349TIP3   OH222010   0.256   2.144   5.469  0.0320 -0.4948  0.1513
 7349TIP3    H122011   0.323   2.160   5.402 -0.0587 -0.5189  0.0551
 7349TIP3    H222012   0.237   2.231   5.505  0.0082 -0.4692  0.0764
 7350TIP3   OH222013   3.082   1.563   5.069 -0.4723  0.4157 -0.5941
 7350TIP3    H122014   3.053   1.604   5.150  1.2744  1.3782 -0.4080
 7350TIP3    H222015   3.138   1.629   5.028  0.8547 -1.0701 -1.2429
 7351TIP3   OH222016   6.712   1.299   4.674 -0.0743  0.2728 -0.1651
 7351TIP3    H122017   6.637   1.352   4.701 -0.4098 -0.2696 -0.0348
 7351TIP3    H222018   6.683   1.254   4.595  0.2780  0.4205 -0.3842
 7352TIP3   OH222019   0.988   2.545   5.302 -0.3065  0.4476  0.3680
 7352TIP3    H122020   1.013   2.455   5.322  1.4145  0.6904 -0.5026
 7352TIP3    H222021   0.981   2.588   5.387  0.6866 -0.0737  0.7292
 7353TIP3   OH222022   4.076   2.605   3.091  0.2619  0.0939  0.0299
 7353TIP3    H122023   4.076   2.672   3.023 -0.0635  0.2065  0.1377
 7353TIP3    H222024   4.081   2.654   3.173 -1.9197  0.1177  0.2095
 7354TIP3   OH222025   3.558   5.730   0.958  0.7520  0.3467  0.0696
 7354TIP3    H122026   3.581   5.638   0.970  1.0900  0.3016 -0.7843
 7354TIP3    H222027   3.642   5.776   0.963  0.5112  0.6821  1.0868
 7355TIP3   OH222028   0.185   0.108   1.726  0.3507 -0.0894 -0.6321
 7355TIP3    H122029   0.121   0.173   1.755 -0.3178 -1.3512  0.8649
 7355TIP3    H222030   0.136   0.053   1.664  1.3437  1.6592 -3.1530
 7356TIP3   OH222031   6.463   5.657   1.768  0.7111  0.5851 -0.0697
 7356TIP3    H122032   6.435   5.574   1.730 -3.1970  2.0248 -0.7565
 7356TIP3    H222033   6.503   5.705   1.695 -1.3314  1.0144 -0.9931
 7357TIP3   OH222034   1.223   4.159   3.101  0.3579  0.3761 -0.1603
 7357TIP3    H122035   1.163   4.170   3.027 -2.8631  1.1179  2.3433
 7357TIP3    H222036   1.224   4.244   3.144  1.1711 -0.3488  1.3252
 7358TIP3   OH222037   6.714   5.552   3.472  0.6712  0.4519 -0.1220
 7358TIP3    H122038   6.678   5.607   3.542  1.5874  0.0115  0.7270
 7358TIP3    H222039   6.654   5.564   3.398 -1.1252 -0.1592  1.1687
 7359TIP3   OH222040   0.479   3.953   1.023 -0.2670  0.1927  0.1684
 7359TIP3    H122041   0.395   3.923   0.990 -1.7840  0.5271  3.3622
 7359TIP3    H222042   0.470   4.048   1.029  0.6400  0.3085 -0.1625
 7360TIP3   OH222043   3.344   2.179   0.501 -0.3594 -0.3396  0.3037
 7360TIP3    H122044   3.439   2.169   0.506 -0.4636 -1.1656  0.7338
 7360TIP3    H222045   3.324   2.249   0.564  0.1257  1.1162 -1.0751
 7361TIP3   OH222046   2.851   4.651   4.476 -0.0193  0.3567 -0.3621
 7361TIP3    H122047   2.864   4.745   4.493 -0.6321  0.5145 -0.7180
 7361TIP3    H222048   2.847   4.645   4.380  0.3140 -0.0791 -0.3524
 7362TIP3   OH222049   2.327   4.463   3.026 -0.1990  0.1130 -0.2521
 7362TIP3    H122050   2.331   4.554   3.055  0.0878  0.0164  0.0130
 7362TIP3    H222051   2.266   4.464   2.953  1.3088  0.8797 -1.5757
 7363TIP3   OH222052   7.125   2.566   0.923  0.2449  0.2029 -0.2209
 7363TIP3    H122053   7.195   2.542   0.863 -0.5247 -0.4493 -0.8849
 7363TIP3    H222054   7.066   2.491   0.924 -0.2279  0.5627  0.6571
 7364TIP3   OH222055   1.110   6.614   1.635 -0.7546 -0.3186 -0.3201
 7364TIP3    H122056   1.162   6.541   1.669 -0.9706 -0.3139  0.0208
 7364TIP3    H222057   1.032   6.573   1.598 -0.8299 -0.2649 -0.2185
 7365TIP3   OH222058   6.526   3.982   0.044  0.3188 -0.2727 -0.1683
 7365TIP3    H122059   6.515   4.058   0.103  0.3563  0.1128 -0.6525
 7365TIP3    H222060   6.438   3.966   0.010  0.4716  0.1346 -0.7715
 7366TIP3   OH222061   2.644   4.720  -0.024  0.2814 -0.3657 -0.2923
 7366TIP3    H122062   2.673   4.691   0.062  0.3990  0.8811  0.1083
 7366TIP3    H222063   2.549   4.727  -0.017  0.4666  3.1513  0.9472
 7367TIP3   OH222064   2.744   2.340   2.429 -0.1563 -0.3019  0.3002
 7367TIP3    H122065   2.712   2.269   2.485 -1.4492 -0.6118 -0.7763
 7367TIP3    H222066   2.824   2.305   2.391 -0.7665 -1.2091 -0.2050
 7368TIP3   OH222067   2.802   6.497   2.591 -0.6664 -0.4332  0.0370
 7368TIP3    H122068   2.783   6.446   2.670 -0.6041 -0.2649  0.1607
 7368TIP3    H222069   2.821   6.431   2.524 -1.7296 -0.6156 -0.1058
 7369TIP3   OH222070   5.128   5.295   2.361 -0.2447  0.1923  0.4391
 7369TIP3    H122071   5.107   5.215   2.313 -3.5964 -0.2138  2.2815
 7369TIP3    H222072   5.059   5.356   2.338  0.1922  1.2764  1.8243
 7370TIP3   OH222073   3.650   2.938   5.013  0.8064  0.7301 -0.1060
 7370TIP3    H122074   3.564   2.979   5.022  0.7630  0.5999  0.0764
 7370TIP3    H222075   3.634   2.845   5.031  1.0205  0.7356  0.1094
 7371TIP3   OH222076   0.575   6.216   5.787 -0.4382  0.2512  0.0769
 7371TIP3    H122077   0.591   6.189   5.697 -0.2279  0.4760  0.0465
 7371TIP3    H222078   0.637   6.287   5.802 -1.3047  1.0327  0.0061
 7372TIP3   OH222079   1.694   5.818   3.553 -0.1729 -0.3158 -0.2599
 7372TIP3    H122080   1.737   5.888   3.504 -0.0445 -0.7628 -0.7818
 7372TIP3    H222081   1.634   5.777   3.490 -0.2484 -0.6810  0.0446
 7373TIP3   OH222082   1.007   2.916   5.768 -0.4022  0.2003  0.7298
 7373TIP3    H122083   1.040   2.876   5.849  0.7946 -0.8657 -0.2369
 7373TIP3    H222084   1.081   2.909   5.707 -1.5129  0.3429 -0.6646
 7374TIP3   OH222085   4.228   3.753   0.342  0.8706 -0.3437  0.1113
 7374TIP3    H122086   4.169   3.829   0.339  2.0946  0.6657  0.7696
 7374TIP3    H222087   4.234   3.724   0.250 -0.6717 -0.5179  0.0393
 7375TIP3   OH222088   1.058   6.044   2.389  0.5618  0.1340 -0.2721
 7375TIP3    H122089   1.080   6.007   2.474 -2.2431 -2.2484 -0.4410
 7375TIP3    H222090   1.093   5.981   2.325 -1.4846 -0.6744 -0.6668
 7376TIP3   OH222091   1.458   6.022   4.471 -0.1495  0.3036  0.9320
 7376TIP3    H122092   1.527   5.988   4.528 -0.5063 -0.9863  0.6393
 7376TIP3    H222093   1.420   6.095   4.520  0.2373 -0.1105  1.8828
 7377TIP3   OH222094   6.342   0.029   1.315 -0.4230 -0.3335 -0.4242
 7377TIP3    H122095   6.286  -0.041   1.282 -1.3911 -0.0543  0.5798
 7377TIP3    H222096   6.299   0.110   1.288  0.5176 -0.0919 -1.2935
 7378TIP3   OH222097   0.383   2.779   5.447 -0.0026 -0.1622 -0.6413
 7378TIP3    H122098   0.354   2.816   5.364 -1.0626  0.5879  0.0401
 7378TIP3    H222099   0.416   2.854   5.497  0.0650 -0.5098 -0.1521
 7379TIP3   OH222100   6.617   1.288   1.779  0.1659  0.0742 -0.3894
 7379TIP3    H122101   6.696   1.338   1.760  0.9294 -0.8788  0.1673
 7379TIP3    H222102   6.612   1.284   1.874 -1.3879  1.3572 -0.3712
 7380TIP3   OH222103   6.523   2.212   2.888  0.0241  0.1689 -0.2527
 7380TIP3    H122104   6.446   2.239   2.937 -0.9401 -0.9726 -1.0659
 7380TIP3    H222105   6.571   2.294   2.871 -1.5530  1.0534 -0.6340
 7381TIP3   OH222106   4.672   5.562   2.213 -0.9519  0.1016  0.2136
 7381TIP3    H122107   4.667   5.634   2.276 -1.4136 -0.0980  0.4105
 7381TIP3    H222108   4.597   5.577   2.155  0.5337  1.3881 -1.4928
 7382TIP3   OH222109   4.165   2.150   2.272  0.5510 -0.2149 -0.0434
 7382TIP3    H122110   4.229   2.091   2.231  0.6857 -0.8319  1.0359
 7382TIP3    H222111   4.080   2.115   2.245  0.6327 -0.8483  0.5131
 7383TIP3   OH222112   2.308   0.578   5.176 -0.2078  0.1037 -0.2658
 7383TIP3    H122113   2.283   0.594   5.267  0.3772  0.9671 -0.2550
 7383TIP3    H222114   2.224   0.568   5.130 -0.5159  0.2290  0.2569
 7384TIP3   OH222115   2.032   5.348   5.608 -0.0543  0.1627  0.5844
 7384TIP3    H122116   1.980   5.386   5.537 -0.1483 -1.3322 -0.1849
 7384TIP3    H222117   1.967   5.324   5.674 -0.3712 -1.5121 -0.2871
 7385TIP3   OH222118   0.806   0.728   4.975 -0.0763 -0.7610  0.3734
 7385TIP3    H122119   0.720   0.765   4.994 -0.9546 -2.3508 -0.2754
 7385TIP3    H222120   0.868   0.783   5.024 -1.1475  2.1005 -1.2725
 7386TIP3   OH222121   3.957   4.901   2.719  0.4455  0.4356  0.6145
 7386TIP3    H122122   4.047   4.917   2.693  0.0442 -0.4345 -1.5404
 7386TIP3    H222123   3.914   4.987   2.714  0.2588  0.2806 -2.4695
 7387TIP3   OH222124   3.975   3.988   5.268  0.4490  0.1393  0.4638
 7387TIP3    H122125   3.948   3.904   5.231 -0.0941 -0.2136  1.6085
 7387TIP3    H222126   4.066   3.998   5.241  0.7647 -1.1975  0.9538
 7388TIP3   OH222127   1.587   3.083   2.348  0.2588  0.0557  0.5519
 7388TIP3    H122128   1.581   3.038   2.432  1.8149 -2.3577 -0.5351
 7388TIP3    H222129   1.509   3.054   2.300  0.9314 -1.0455  0.0884
 7389TIP3   OH222130   2.775   6.526   1.233  0.7391 -0.1603 -0.2374
 7389TIP3    H122131   2.856   6.576   1.231 -0.1932  1.4120 -1.4092
 7389TIP3    H222132   2.749   6.518   1.141  0.5366 -2.3637 -0.0514
 7390TIP3   OH222133   2.268   1.178   5.177  0.5481 -0.2185 -0.6651
 7390TIP3    H122134   2.304   1.257   5.217  0.5378  0.5043 -2.0556
 7390TIP3    H222135   2.344   1.120   5.167  0.4927 -0.5636  0.7004
 7391TIP3   OH222136   1.165   3.926   5.273 -0.1061 -0.0445 -0.0415
 7391TIP3    H122137   1.075   3.958   5.275 -0.1636 -0.2162  0.2336
 7391TIP3    H222138   1.193   3.926   5.364  0.1897  0.0520 -0.1298
 7392TIP3   OH222139   6.930   1.829   3.115  0.4245 -0.0443  0.1014
 7392TIP3    H122140   6.971   1.754   3.072 -1.1282 -1.9076  1.7258
 7392TIP3    H222141   6.903   1.797   3.201 -0.0042  2.4842  1.0118
 7393TIP3   OH222142   2.553   3.675   2.246  0.2972 -0.4924 -0.8015
 7393TIP3    H122143   2.498   3.718   2.312  0.5216 -0.1333 -0.8406
 7393TIP3    H222144   2.567   3.743   2.179 -0.2922 -0.9829 -1.4417
 7394TIP3   OH222145   5.444   4.868   5.398  0.1345 -0.9946  0.1165
 7394TIP3    H122146   5.509   4.810   5.439  2.2034  0.5786 -0.7482
 7394TIP3    H222147   5.370   4.867   5.459  0.5664 -3.5319  0.7229
 7395TIP3   OH222148   4.110   5.329   3.363  0.3450  0.5460  0.2705
 7395TIP3    H122149   4.037   5.391   3.361  0.9797  1.2962 -0.4466
 7395TIP3    H222150   4.135   5.317   3.272  0.3539 -0.6436  0.4137
 7396TIP3   OH222151   3.236   1.517   5.418  0.5817  0.0711 -0.4648
 7396TIP3    H122152   3.167   1.455   5.445  0.5676 -0.5656 -1.8938
 7396TIP3    H222153   3.257   1.565   5.498 -0.5542 -0.6727  0.3136
 7397TIP3   OH222154   1.036   5.271   0.350  0.5295 -0.4811 -0.0274
 7397TIP3    H122155   1.116   5.242   0.306  1.0815  0.5153  0.2662
 7397TIP3    H222156   1.025   5.361   0.321 -0.3110 -0.5093  0.1951
 7398TIP3   OH222157   1.931   4.726   4.036 -0.3675 -0.0745 -0.3077
 7398TIP3    H122158   1.961   4.654   3.980  0.1232 -0.4147  0.3652
 7398TIP3    H222159   1.986   4.800   4.011  0.3139 -0.4037  0.1608
 7399TIP3   OH222160   6.721   2.515   1.271  0.0913 -0.1059 -0.1434
 7399TIP3    H122161   6.630   2.489   1.263 -0.5456  1.9245 -0.0160
 7399TIP3    H222162   6.748   2.536   1.181  0.0934  0.3246 -0.0454
 7400TIP3   OH222163   0.833   3.505   3.403  0.2406  0.3097  0.1422
 7400TIP3    H122164   0.902   3.441   3.421 -0.7487 -1.6947 -2.5887
 7400TIP3    H222165   0.760   3.453   3.369 -1.4286  2.6995 -0.1836
 7401TIP3   OH222166   2.425   3.507   1.195  0.6602 -0.6024  0.0245
 7401TIP3    H122167   2.434   3.601   1.209  1.4905 -0.7301  0.3859
 7401TIP3    H222168   2.433   3.469   1.282  2.6329 -1.1658 -0.3530
 7402TIP3   OH222169   5.085   2.495   5.312 -0.4030  0.1832  0.3038
 7402TIP3    H122170   5.061   2.503   5.404 -1.4543  0.6779  0.0028
 7402TIP3    H222171   5.171   2.455   5.313 -0.2922  0.4182  1.5148
 7403TIP3   OH222172   5.532   0.843   1.840  0.0656  0.2132 -0.1591
 7403TIP3    H122173   5.445   0.864   1.808 -0.1913 -0.1243  0.3022
 7403TIP3    H222174   5.530   0.748   1.853 -0.1987  0.4467  1.8517
 7404TIP3   OH222175   0.094   6.630   5.194  0.3231  0.3956  0.3035
 7404TIP3    H122176   0.054   6.596   5.273 -3.0864 -0.6967 -1.6727
 7404TIP3    H222177   0.082   6.560   5.129  1.6338  1.7954 -1.5615
 7405TIP3   OH222178   6.103   5.645   2.322  0.7704  0.3210  0.0125
 7405TIP3    H122179   6.033   5.599   2.369  2.7235 -3.0443 -0.0708
 7405TIP3    H222180   6.165   5.670   2.390  1.1125  0.2109 -0.2615
 7406TIP3   OH222181   1.397   6.583   4.380 -0.7408 -0.1138 -0.0984
 7406TIP3    H122182   1.334   6.511   4.380 -0.1385 -0.6864 -2.0106
 7406TIP3    H222183   1.346   6.660   4.356 -0.8108 -0.5012 -1.2407
 7407TIP3   OH222184   6.727   6.765   0.913  0.1543 -0.0104 -0.2312
 7407TIP3    H122185   6.671   6.741   0.987  0.1704 -0.1275 -0.2564
 7407TIP3    H222186   6.680   6.835   0.868 -0.4222 -0.7500 -0.8012
 7408TIP3   OH222187   6.450   5.683   2.859  0.4929 -0.1026  0.2245
 7408TIP3    H122188   6.494   5.653   2.780  1.8904 -0.1536  0.9997
 7408TIP3    H222189   6.378   5.739   2.827 -0.0289 -1.4865 -1.1078
 7409TIP3   OH222190   6.259   4.393   3.251 -0.0605 -0.2862 -0.5469
 7409TIP3    H122191   6.300   4.434   3.174  0.8176  0.3269  0.2248
 7409TIP3    H222192   6.274   4.455   3.322 -4.2037  1.0434 -0.5616
 7410TIP3   OH222193   4.239   4.963   2.645 -0.4586  0.3271  0.4684
 7410TIP3    H122194   4.222   4.869   2.640 -0.1127  0.2480  0.7486
 7410TIP3    H222195   4.328   4.970   2.680 -0.0713  0.7430 -0.5634
 7411TIP3   OH222196   3.481   5.407   1.959  0.2538  0.5485  0.0917
 7411TIP3    H122197   3.397   5.362   1.952  0.2021  0.7299 -0.5423
 7411TIP3    H222198   3.492   5.424   2.052  0.6249 -1.4459  0.4649
 7412TIP3   OH222199   6.238   6.219   4.674  0.0980  0.0455 -0.3866
 7412TIP3    H122200   6.230   6.148   4.738  0.0278 -0.1389 -0.6011
 7412TIP3    H222201   6.267   6.294   4.726 -1.3077  0.2740  0.1239
 7413TIP3   OH222202   3.635   3.516   0.905  0.4279  0.1036  0.3225
 7413TIP3    H122203   3.727   3.490   0.914  0.5028 -0.3971 -1.5988
 7413TIP3    H222204   3.589   3.435   0.887 -0.6394  0.1563  2.4749
 7414TIP3   OH222205   6.268   4.884   4.004 -0.8352  0.2052  0.0889
 7414TIP3    H122206   6.186   4.866   4.049 -0.9679  2.3246  0.8262
 7414TIP3    H222207   6.243   4.929   3.923 -0.4969 -1.8950 -1.2670
 7415TIP3   OH222208   0.572   5.665   0.778  0.1944 -0.8074 -0.1313
 7415TIP3    H122209   0.487   5.662   0.736  0.3464 -1.6744 -0.4121
 7415TIP3    H222210   0.558   5.712   0.860 -0.3034  0.0581 -0.7012
 7416TIP3   OH222211   1.068   4.426   0.378  0.4850 -0.1482 -0.0708
 7416TIP3    H122212   1.049   4.384   0.294 -0.7482 -1.0116  0.6057
 7416TIP3    H222213   1.118   4.360   0.427  1.1640  0.3329 -0.0945
 7417TIP3   OH222214   4.430   0.864   1.623  0.1340 -0.8246  0.4439
 7417TIP3    H122215   4.389   0.787   1.663 -0.1657 -1.1207 -0.4055
 7417TIP3    H222216   4.516   0.833   1.594 -0.0978 -0.9240 -0.1522
 7418TIP3   OH222217   1.235   3.700   3.944  0.0501  0.0505  0.4325
 7418TIP3    H122218   1.169   3.632   3.953  0.9673 -1.1189 -1.2803
 7418TIP3    H222219   1.185   3.782   3.946 -1.0429 -0.5660  2.8737
 7419TIP3   OH222220   3.726   5.377   4.719  0.5235  0.0336  0.3205
 7419TIP3    H122221   3.800   5.436   4.704  1.5283 -1.2026  0.1833
 7419TIP3    H222222   3.764   5.289   4.708 -0.0459 -0.8051  3.8852
 7420TIP3   OH222223   0.372   5.438   2.614  0.2079  0.1834 -0.7996
 7420TIP3    H122224   0.420   5.398   2.541  1.1735  1.4585 -0.8837
 7420TIP3    H222225   0.436   5.493   2.659 -0.3859 -0.5182  1.0052
 7421TIP3   OH222226   2.584   3.686   5.050  0.1106 -0.1740 -0.1276
 7421TIP3    H122227   2.510   3.704   5.107  1.0900 -1.6413  1.7346
 7421TIP3    H222228   2.658   3.731   5.091  0.5490  0.0703 -1.1474
 7422TIP3   OH222229   2.160   5.203   1.777  0.2591  0.3878 -0.3074
 7422TIP3    H122230   2.229   5.237   1.721  1.4719 -1.1254  0.1868
 7422TIP3    H222231   2.179   5.242   1.863  1.6917 -1.4444  0.2759
 7423TIP3   OH222232   2.528   3.010   0.297 -0.5091  0.0088  0.7172
 7423TIP3    H122233   2.441   3.005   0.258 -0.1720 -0.6394  0.0081
 7423TIP3    H222234   2.535   3.099   0.330 -1.0110  0.4201 -0.2506
 7424TIP3   OH222235   2.900   5.779   2.240 -0.0781  0.4316  0.6849
 7424TIP3    H122236   2.994   5.762   2.233 -0.6305 -2.7207 -0.9505
 7424TIP3    H222237   2.874   5.736   2.321 -0.2037  0.9902  0.9476
 7425TIP3   OH222238   6.667   2.130   3.711 -0.2640  0.1088  0.5702
 7425TIP3    H122239   6.706   2.141   3.798 -0.4923  2.3195  0.4383
 7425TIP3    H222240   6.631   2.041   3.713  1.2109 -0.5259  2.1201
 7426TIP3   OH222241   2.354   1.415   4.629  0.3150 -0.1679 -0.0674
 7426TIP3    H122242   2.406   1.462   4.694  1.5222 -0.0768 -1.0665
 7426TIP3    H222243   2.409   1.342   4.601 -0.0118 -0.0002 -1.2317
 7427TIP3   OH222244   2.992   4.932   5.023  0.4075 -0.4787  0.0389
 7427TIP3    H122245   2.912   4.937   5.075 -0.0638 -1.0561 -0.6052
 7427TIP3    H222246   3.059   4.976   5.076 -0.5769  1.0232  0.0821
 7428TIP3   OH222247   5.706   3.483   1.196  0.1028 -0.3239  0.2466
 7428TIP3    H122248   5.775   3.544   1.169  0.2402 -0.4790  0.2481
 7428TIP3    H222249   5.731   3.456   1.284 -0.5901  0.5446  0.7303
 7429TIP3   OH222250   2.737   2.288   3.399 -0.2555 -0.1383  0.6028
 7429TIP3    H122251   2.690   2.350   3.454 -2.0058 -2.7774  2.2929
 7429TIP3    H222252   2.780   2.228   3.461  2.6982  0.1962 -0.9259
 7430TIP3   OH222253   4.559   1.249   3.669  0.4192 -0.2900  0.3206
 7430TIP3    H122254   4.638   1.215   3.711  1.3388  0.6132 -0.5983
 7430TIP3    H222255   4.565   1.219   3.578 -1.0718 -1.4553  0.5623
 7431TIP3   OH222256   6.596   0.302   3.241  0.2816 -0.6251 -0.0031
 7431TIP3    H122257   6.579   0.238   3.172  0.2976 -1.3778  0.6807
 7431TIP3    H222258   6.687   0.288   3.266  0.3026 -0.2923  0.1180
 7432TIP3   OH222259   4.760   0.167   4.425  0.2554 -0.0835 -0.0491
 7432TIP3    H122260   4.694   0.214   4.374 -1.1472 -3.0921 -1.2550
 7432TIP3    H222261   4.836   0.225   4.425 -1.1140  1.8658 -1.9179
 7433TIP3   OH222262   2.886   6.010   5.536  0.5199 -0.5324 -0.0166
 7433TIP3    H122263   2.971   6.048   5.558  0.3373 -0.9080  1.4075
 7433TIP3    H222264   2.904   5.918   5.517  0.4028 -0.6824  0.5771
 7434TIP3   OH222265   6.468   5.799   4.506  0.5301 -0.0947  0.6504
 7434TIP3    H122266   6.373   5.796   4.511  0.4270  0.8949 -0.2665
 7434TIP3    H222267   6.492   5.881   4.549  1.0786 -0.9014  1.9350
 7435TIP3   OH222268   0.330   0.799   5.711 -1.0208  0.0458  0.2640
 7435TIP3    H122269   0.306   0.717   5.754  0.8060 -0.3001  0.7118
 7435TIP3    H222270   0.385   0.844   5.775  1.9454 -0.5480 -1.6617
 7436TIP3   OH222271   2.532   1.584   4.310  0.1982 -0.2886  0.1238
 7436TIP3    H122272   2.560   1.552   4.224 -0.6688 -1.6685  0.3244
 7436TIP3    H222273   2.612   1.586   4.362  0.5240 -0.7080 -0.3442
 7437TIP3   OH222274   4.144   4.568   3.199  0.3741 -0.2797  0.5007
 7437TIP3    H122275   4.063   4.518   3.212  0.5151 -0.9280 -0.8820
 7437TIP3    H222276   4.141   4.637   3.265 -1.6225  0.0974  0.0860
 7438TIP3   OH222277   0.118   5.475   0.677  0.3115 -0.0707  0.1373
 7438TIP3    H122278   0.126   5.464   0.772  0.3695  0.6577  0.2189
 7438TIP3    H222279   0.178   5.409   0.641 -0.0638 -0.6732  0.5890
 7439TIP3   OH222280   1.546   2.296   1.256  0.3063  1.1312 -0.1455
 7439TIP3    H122281   1.560   2.360   1.186 -0.6850  1.5544  0.0316
 7439TIP3    H222282   1.451   2.291   1.266  0.2696 -1.1476 -0.8762
 7440TIP3   OH222283   5.385   3.071   1.531 -0.3753  0.1894 -0.2771
 7440TIP3    H122284   5.366   3.156   1.572 -1.2211  1.2276 -2.6542
 7440TIP3    H222285   5.470   3.083   1.489 -0.7393  0.0393 -1.0632
 7441TIP3   OH222286   4.407   6.268   3.710  0.0368 -0.2647 -0.2986
 7441TIP3    H122287   4.325   6.307   3.680 -0.4988 -0.9895  0.1743
 7441TIP3    H222288   4.395   6.174   3.696  0.8829 -0.3593 -0.4445
 7442TIP3   OH222289   3.730   3.267   3.286  0.1722 -0.1886 -0.4249
 7442TIP3    H122290   3.777   3.236   3.363 -0.1652 -1.3235 -0.6613
 7442TIP3    H222291   3.640   3.236   3.298 -0.3240  1.1347 -0.4367
 7443TIP3   OH222292   4.837   5.574   3.059  0.1777  0.4923  0.1487
 7443TIP3    H122293   4.793   5.550   2.978 -0.1664 -2.8837  1.1911
 7443TIP3    H222294   4.766   5.595   3.120  0.3483  1.2819  0.0807
 7444TIP3   OH222295   4.995   5.000   5.668  0.7560  0.1167  0.0257
 7444TIP3    H122296   4.975   5.093   5.670 -0.4735 -0.1323  0.0003
 7444TIP3    H222297   4.920   4.960   5.624  0.3494 -1.0977  1.7067
 7445TIP3   OH222298   5.560   5.747   0.873 -0.3052 -0.0658 -0.1935
 7445TIP3    H122299   5.563   5.657   0.843  1.5214  0.2567 -1.1104
 7445TIP3    H222300   5.530   5.797   0.796  0.6265  0.3201 -0.3203
 7446TIP3   OH222301   4.653   2.128   4.527 -0.0853 -0.0999 -0.3712
 7446TIP3    H122302   4.575   2.079   4.498 -1.0000  1.7094 -1.1056
 7446TIP3    H222303   4.687   2.077   4.600 -1.3660 -1.4884 -0.6844
 7447TIP3   OH222304   4.716   1.917   3.050  0.3835  0.4282 -0.3315
 7447TIP3    H122305   4.766   1.837   3.065 -0.6378 -0.4006 -1.2420
 7447TIP3    H222306   4.729   1.969   3.130 -1.3864 -1.9243  1.6028
 7448TIP3   OH222307   4.855   3.488   0.738 -0.5298 -0.4075  0.1624
 7448TIP3    H122308   4.882   3.459   0.651  2.7949  2.0362  0.1798
 7448TIP3    H222309   4.905   3.434   0.798  2.0753  1.8622  0.2650
 7449TIP3   OH222310   3.443   0.858   1.718 -0.1164 -0.3243  0.3106
 7449TIP3    H122311   3.528   0.847   1.674  0.0829  3.4213 -0.5806
 7449TIP3    H222312   3.378   0.838   1.651  0.1674  1.6809 -0.6215
 7450TIP3   OH222313   0.882   0.385   5.822  0.2163 -0.3314  0.3754
 7450TIP3    H122314   0.924   0.301   5.806 -0.1735 -0.5638  0.5590
 7450TIP3    H222315   0.789   0.364   5.828 -0.1487  0.3929 -1.7553
 7451TIP3   OH222316   5.877   1.526   3.564  1.1614 -0.2135  0.2566
 7451TIP3    H122317   5.881   1.575   3.482  1.9337 -1.5237 -0.5092
 7451TIP3    H222318   5.803   1.466   3.553  0.9099 -0.0032  0.7542
 7452TIP3   OH222319   1.941   3.871   5.542  0.4469 -0.3687  0.0815
 7452TIP3    H122320   1.946   3.775   5.538  0.9595 -0.4168  1.3542
 7452TIP3    H222321   1.983   3.893   5.625  1.4986  1.0579 -0.7827
 7453TIP3   OH222322   3.912   6.083   1.264 -0.0341 -0.1779 -0.2587
 7453TIP3    H122323   3.975   6.146   1.298  0.7523 -0.2091 -1.5849
 7453TIP3    H222324   3.950   6.054   1.181 -1.0225 -1.4091 -0.3064
 7454TIP3   OH222325   3.022   4.859   1.633 -0.1884 -0.0899 -0.3359
 7454TIP3    H122326   3.078   4.852   1.556 -0.4867  0.5479 -0.6150
 7454TIP3    H222327   3.064   4.927   1.686  0.4029 -1.0020  0.4023
 7455TIP3   OH222328   4.569   5.669   0.372 -0.0337  0.0871 -0.1085
 7455TIP3    H122329   4.661   5.668   0.347 -0.3602  0.0432 -1.3921
 7455TIP3    H222330   4.553   5.582   0.407  0.3106 -0.0609 -0.3092
 7456TIP3   OH222331   2.486   2.352   0.451 -0.5108 -0.0784  0.1304
 7456TIP3    H122332   2.442   2.437   0.440 -1.5096 -0.8815 -2.9625
 7456TIP3    H222333   2.426   2.288   0.413  1.3196 -1.8644  0.0401
 7457TIP3   OH222334   7.154   1.355   2.509 -0.0746 -0.1612  0.2696
 7457TIP3    H122335   7.207   1.383   2.584  0.3372  0.8285 -0.3773
 7457TIP3    H222336   7.102   1.432   2.486  0.3228 -0.2345 -0.9004
 7458TIP3   OH222337   0.351   0.415   1.875  0.0914 -0.5476  0.1810
 7458TIP3    H122338   0.324   0.499   1.913  0.9652 -0.2537  0.1714
 7458TIP3    H222339   0.345   0.427   1.781  2.1163  0.1981  0.0935
 7459TIP3   OH222340   4.199   2.075   5.576  0.0027  0.2462  0.0709
 7459TIP3    H122341   4.213   1.980   5.569 -3.1272 -0.2705 -1.3179
 7459TIP3    H222342   4.194   2.092   5.670 -1.6497 -1.4850  0.3776
 7460TIP3   OH222343   5.324   2.955   1.246  0.1043  0.2995 -0.1085
 7460TIP3    H122344   5.260   2.887   1.268 -0.3738  0.1766 -1.7209
 7460TIP3    H222345   5.369   2.974   1.328 -0.6030 -1.0795  0.6270
 7461TIP3   OH222346   3.370   4.369   0.511 -0.5383  0.6967 -0.2661
 7461TIP3    H122347   3.386   4.388   0.418 -1.1144 -3.0639 -1.2737
 7461TIP3    H222348   3.458   4.370   0.550  0.2010 -1.3857 -1.7246
 7462TIP3   OH222349   0.186   4.383   3.957 -0.3896 -0.2945 -0.0987
 7462TIP3    H122350   0.135   4.331   4.019 -0.6420 -1.0797 -0.9442
 7462TIP3    H222351   0.219   4.320   3.894  1.4223  0.2279  0.2507
 7463TIP3   OH222352   7.097   1.097   0.801 -0.5285  0.4027 -0.4413
 7463TIP3    H122353   7.134   1.171   0.752  1.0059  0.4266  0.6901
 7463TIP3    H222354   7.130   1.019   0.757  0.4824  0.4257  0.2294
 7464TIP3   OH222355   6.109   1.776   1.708  0.1400  0.0555  0.1484
 7464TIP3    H122356   6.042   1.838   1.735  0.9348  1.1800 -0.3524
 7464TIP3    H222357   6.187   1.830   1.694  0.7363 -0.9950 -0.7740
 7465TIP3   OH222358   4.986   0.913   3.400 -0.4435  0.4409  0.4111
 7465TIP3    H122359   4.918   0.889   3.338 -2.5386  0.8188  2.4569
 7465TIP3    H222360   5.007   0.832   3.446  1.4561  0.0538 -0.9973
 7466TIP3   OH222361   2.532   0.842   5.447 -0.2245  0.1880 -0.2397
 7466TIP3    H122362   2.626   0.838   5.427  0.0394 -0.5719  1.0333
 7466TIP3    H222363   2.525   0.908   5.516 -0.4765 -0.4698  0.3745
 7467TIP3   OH222364   6.114   3.383   4.028 -0.3775 -0.1675 -0.2365
 7467TIP3    H122365   6.039   3.382   3.968 -1.0201 -0.7182  0.5649
 7467TIP3    H222366   6.189   3.363   3.972 -0.7190  1.0560 -1.1718
 7468TIP3   OH222367   5.857   5.799   2.562  0.3020 -0.8911  0.3772
 7468TIP3    H122368   5.892   5.786   2.650  1.0348 -1.3749  0.0253
 7468TIP3    H222369   5.868   5.714   2.520 -0.1949 -0.7063 -0.1305
 7469TIP3   OH222370   5.816   3.058   4.029 -0.1469 -0.2219 -0.0041
 7469TIP3    H122371   5.766   3.125   3.983 -0.7836 -1.5689 -1.3504
 7469TIP3    H222372   5.901   3.100   4.047 -1.1499  1.5453  0.8837
 7470TIP3   OH222373   4.636   4.494   1.458 -0.1596 -0.2175 -0.6524
 7470TIP3    H122374   4.617   4.566   1.398 -1.0489 -0.7570 -1.0367
 7470TIP3    H222375   4.709   4.448   1.416  1.4621  1.2973  0.3493
 7471TIP3   OH222376   4.198   0.487   1.838  0.0964  0.6341  0.4471
 7471TIP3    H122377   4.169   0.527   1.920  0.9005 -0.2575  1.1909
 7471TIP3    H222378   4.258   0.418   1.865  0.6684  0.5648 -0.9177
 7472TIP3   OH222379   6.277   3.867   4.825 -0.1716 -0.3977 -0.0949
 7472TIP3    H122380   6.303   3.787   4.779 -0.0505 -0.1965 -0.3856
 7472TIP3    H222381   6.194   3.892   4.786  0.1381  0.0065 -0.5078
 7473TIP3   OH222382   3.647   1.960   4.493 -0.6460 -0.2722  0.0195
 7473TIP3    H122383   3.672   2.010   4.415  0.9889 -0.6754  0.2479
 7473TIP3    H222384   3.711   1.986   4.559 -1.9522  0.0017  1.2351
 7474TIP3   OH222385   2.023   2.756   0.536 -0.6186 -0.3666  0.5876
 7474TIP3    H122386   2.110   2.734   0.569 -0.5449 -0.6088  0.2358
 7474TIP3    H222387   2.031   2.750   0.441 -0.4506  1.7290  0.4166
 7475TIP3   OH222388   0.419   4.709   5.675  0.0724  0.3074  0.0429
 7475TIP3    H122389   0.351   4.747   5.619 -0.3074  0.9686  0.9302
 7475TIP3    H222390   0.374   4.692   5.758  1.0693  1.1004  0.7665
 7476TIP3   OH222391   0.338   3.690   5.257  0.3590 -0.0044  0.0559
 7476TIP3    H122392   0.354   3.635   5.334  2.7545  1.3583  0.6464
 7476TIP3    H222393   0.284   3.762   5.290  0.2274 -0.1356  0.1294
 7477TIP3   OH222394   6.712   2.939   1.066 -0.4351  0.7852  0.2743
 7477TIP3    H122395   6.617   2.931   1.055 -0.2276 -0.2145 -0.9850
 7477TIP3    H222396   6.727   2.920   1.158 -1.3643  0.0039  0.2745
 7478TIP3   OH222397   3.630   3.296   4.878 -0.3956  0.8616  0.3095
 7478TIP3    H122398   3.645   3.391   4.877 -1.2616  1.0045  0.1568
 7478TIP3    H222399   3.549   3.285   4.928  0.2056  0.1167  1.1586
 7479TIP3   OH222400   3.174   4.951   3.803 -0.1636 -0.4056  0.5573
 7479TIP3    H122401   3.216   5.036   3.811 -0.5901 -0.1818  0.4025
 7479TIP3    H222402   3.228   4.903   3.740 -0.9470  0.3796 -0.7385
 7480TIP3   OH222403   0.636   6.115   1.188 -0.1632 -0.0718  0.5046
 7480TIP3    H122404   0.634   6.157   1.274  0.8300 -0.3697  0.6929
 7480TIP3    H222405   0.726   6.129   1.158  0.3780 -2.5048  0.8065
 7481TIP3   OH222406   6.611   5.848   0.461  0.1113  0.2043 -0.0213
 7481TIP3    H122407   6.551   5.825   0.389  0.5046 -2.1394  0.3137
 7481TIP3    H222408   6.696   5.859   0.419  0.4898 -1.8706  0.0803
 7482TIP3   OH222409   4.987   1.276   3.697 -0.7006  0.2609 -0.4577
 7482TIP3    H122410   4.953   1.291   3.609 -1.8034 -2.0892 -0.5264
 7482TIP3    H222411   4.910   1.284   3.754  0.0145  1.8516  0.3600
 7483TIP3   OH222412   6.758   0.765   5.601 -0.0669 -0.0408 -0.1216
 7483TIP3    H122413   6.779   0.852   5.634 -0.5305  0.3329 -0.7797
 7483TIP3    H222414   6.740   0.779   5.508  0.6262 -0.9700 -0.4062
 7484TIP3   OH222415   3.572   5.322   2.874 -0.3208  0.2292  0.1407
 7484TIP3    H122416   3.485   5.335   2.836 -0.1775 -0.6864 -0.5369
 7484TIP3    H222417   3.582   5.227   2.877  0.7228  0.3334  0.0683
 7485TIP3   OH222418   4.735   1.181   1.882 -0.4620 -0.2526 -0.5022
 7485TIP3    H122419   4.675   1.250   1.854 -2.6098 -1.4616  0.8371
 7485TIP3    H222420   4.684   1.128   1.943  1.7765 -1.7981  0.1632
 7486TIP3   OH222421   2.417   5.059   5.251  0.1870  0.1949 -0.5009
 7486TIP3    H122422   2.347   5.038   5.312  2.0366 -0.4271  1.5235
 7486TIP3    H222423   2.422   5.154   5.252 -0.3925  0.2291 -0.4237
 7487TIP3   OH222424   2.764   4.753   1.582 -0.3755 -0.4892 -0.2090
 7487TIP3    H122425   2.842   4.794   1.620 -2.0517  1.8502  0.9001
 7487TIP3    H222426   2.777   4.760   1.488 -0.1230  1.7783 -0.0638
 7488TIP3   OH222427   7.078   6.232   1.974 -0.2873 -0.5168  0.7466
 7488TIP3    H122428   7.009   6.255   2.036 -0.9468 -1.0294  0.2119
 7488TIP3    H222429   7.159   6.241   2.024 -0.8587 -1.7405  1.9320
 7489TIP3   OH222430   0.829   1.499   5.196 -0.0097  0.1713 -0.1597
 7489TIP3    H122431   0.844   1.436   5.125 -3.0275  0.1564 -0.9321
 7489TIP3    H222432   0.772   1.565   5.157 -0.6392  0.9166  1.8950
 7490TIP3   OH222433   3.241   0.861   4.033 -0.1929  0.0422  0.3398
 7490TIP3    H122434   3.262   0.954   4.042 -3.0835  1.0461 -1.6234
 7490TIP3    H222435   3.273   0.821   4.114  1.8442  2.5621  0.9078
 7491TIP3   OH222436   3.625   1.674   4.244  0.0571  0.1747  0.4959
 7491TIP3    H122437   3.687   1.666   4.172 -2.2789 -0.9333 -1.5487
 7491TIP3    H222438   3.573   1.751   4.223 -1.4368 -0.8488  0.2469
 7492TIP3   OH222439   3.315   0.333   4.982  0.0414  0.2644 -0.5490
 7492TIP3    H122440   3.355   0.413   5.016  0.5298 -0.7585  1.3958
 7492TIP3    H222441   3.387   0.285   4.941  0.3238 -0.3513  0.6127
 7493TIP3   OH222442   2.399   3.802   5.222  0.1425 -0.2499 -0.4795
 7493TIP3    H122443   2.330   3.848   5.173 -2.5353 -2.0873  1.3006
 7493TIP3    H222444   2.430   3.866   5.286 -1.4989 -0.0090  0.1175
 7494TIP3   OH222445   6.729   0.060   5.827 -0.0634  0.0977  0.0985
 7494TIP3    H122446   6.698  -0.024   5.858 -1.2794  0.4063 -0.1964
 7494TIP3    H222447   6.680   0.075   5.746 -0.7484  1.5982  0.7457
 7495TIP3   OH222448   4.075   2.905   3.729  0.5383 -0.4288 -0.0957
 7495TIP3    H122449   4.062   2.963   3.654 -0.7367 -0.5732 -0.0072
 7495TIP3    H222450   4.100   2.821   3.690 -1.4541 -0.8928 -0.4822
 7496TIP3   OH222451   4.421   1.486   3.514  0.3549  0.1790  0.2667
 7496TIP3    H122452   4.345   1.452   3.465  1.0543 -1.8360  0.4980
 7496TIP3    H222453   4.422   1.435   3.595  1.6981  0.5149  0.4780
 7497TIP3   OH222454   0.720   4.845   2.949 -0.1029 -0.0747  0.2514
 7497TIP3    H122455   0.716   4.757   2.988  2.0015 -0.1375  0.4099
 7497TIP3    H222456   0.633   4.857   2.909 -0.8550 -1.7175  1.2773
 7498TIP3   OH222457   1.522   3.490   0.916 -0.4305  0.2358  0.7394
 7498TIP3    H122458   1.564   3.429   0.977 -0.7021  0.2088  0.9002
 7498TIP3    H222459   1.432   3.459   0.909 -0.4517  0.3511  0.4673
 7499TIP3   OH222460   1.711   4.520   3.542  0.6460 -0.0933 -0.3995
 7499TIP3    H122461   1.720   4.558   3.455 -2.0620 -1.5606 -1.4149
 7499TIP3    H222462   1.725   4.426   3.530 -0.0991 -0.3664  0.6880
 7500TIP3   OH222463   2.062   3.812   2.765  0.7923 -0.3478  0.0531
 7500TIP3    H122464   2.024   3.838   2.681 -1.7415 -0.3689  1.1123
 7500TIP3    H222465   2.098   3.725   2.748  1.0839 -0.0098 -1.2087
 7501TIP3   OH222466   1.454   2.264   4.215 -0.5370 -0.0232 -0.0600
 7501TIP3    H122467   1.531   2.304   4.174 -0.7364  0.3188 -0.0997
 7501TIP3    H222468   1.424   2.199   4.151 -0.9558  0.6371 -0.5336
 7502TIP3   OH222469   0.734   2.119   0.743  0.4651 -0.6399 -0.2831
 7502TIP3    H122470   0.651   2.070   0.742 -0.0767  0.2586 -0.9515
 7502TIP3    H222471   0.727   2.178   0.669  2.6453 -2.0214 -1.7000
 7503TIP3   OH222472   4.223   0.195   0.345  0.6846  0.1120 -0.1559
 7503TIP3    H122473   4.158   0.125   0.346  0.7195  0.0197  2.3788
 7503TIP3    H222474   4.245   0.206   0.252 -1.4478 -1.2155 -0.9020
 7504TIP3   OH222475   5.471   1.968   5.436  0.0652  0.2525  0.5553
 7504TIP3    H122476   5.375   1.968   5.433  0.0573  1.8893 -0.8774
 7504TIP3    H222477   5.493   2.043   5.491  0.5449 -0.1122  0.8741
 7505TIP3   OH222478   0.716   1.173   5.121  0.3751 -0.0432 -0.1094
 7505TIP3    H122479   0.745   1.177   5.212  1.1563  0.1224 -0.3613
 7505TIP3    H222480   0.771   1.236   5.075 -0.3261  0.2061 -0.6220
 7506TIP3   OH222481   2.529   5.730   2.542  0.5045 -0.2533 -0.1012
 7506TIP3    H122482   2.549   5.705   2.632 -2.4702 -1.0361  0.4395
 7506TIP3    H222483   2.594   5.797   2.521  0.7692  0.5821  2.9273
 7507TIP3   OH222484   1.618   3.053   0.062  0.3247  0.1132  0.4519
 7507TIP3    H122485   1.672   3.010   0.127 -0.4492 -0.0202  1.0202
 7507TIP3    H222486   1.531   3.014   0.073  0.0516  0.4953 -0.2750
 7508TIP3   OH222487   6.875   4.596   4.949 -0.6267 -0.1734  0.1690
 7508TIP3    H122488   6.878   4.545   5.030 -1.4992 -0.1987  0.1950
 7508TIP3    H222489   6.807   4.554   4.897 -0.8297  0.5098 -0.1225
 7509TIP3   OH222490   0.566   1.789   0.325  0.7703 -0.1136 -0.2883
 7509TIP3    H122491   0.603   1.876   0.310  0.1527  0.6640  2.3514
 7509TIP3    H222492   0.481   1.791   0.280  1.4427  0.0117 -1.6288
 7510TIP3   OH222493   5.454   2.125   4.852  0.2818 -0.4978 -0.3468
 7510TIP3    H122494   5.362   2.106   4.868  0.1809  0.1440 -0.1379
 7510TIP3    H222495   5.498   2.104   4.934  0.6136 -2.5554 -0.9996
 7511TIP3   OH222496   2.306   1.845   3.860 -0.1543 -0.1937  0.2795
 7511TIP3    H122497   2.257   1.835   3.778 -1.0643 -0.8081  0.8841
 7511TIP3    H222498   2.391   1.807   3.842 -0.2653 -0.1053 -0.4538
 7512TIP3   OH222499   1.128   5.097   1.344  0.3745  0.2540 -0.0323
 7512TIP3    H122500   1.166   5.177   1.307 -1.4973 -0.0020 -2.8700
 7512TIP3    H222501   1.161   5.027   1.287  0.9020 -0.8562  1.5772
 7513TIP3   OH222502   4.738   3.651   4.361 -0.3170 -0.1727 -0.5380
 7513TIP3    H122503   4.689   3.652   4.443 -0.6891 -0.4638 -0.7518
 7513TIP3    H222504   4.773   3.562   4.355  0.3179  0.0649 -0.3389
 7514TIP3   OH222505   4.325   0.424   4.602  0.0158 -0.1611 -0.7306
 7514TIP3    H122506   4.341   0.504   4.653 -1.8383  0.3269 -0.8485
 7514TIP3    H222507   4.409   0.405   4.560  0.4145  1.9278 -0.9725
 7515TIP3   OH222508   5.850   3.995   3.145  0.1718  0.1937 -0.5807
 7515TIP3    H122509   5.917   4.047   3.190  0.3458  0.5209 -1.2108
 7515TIP3    H222510   5.896   3.916   3.116 -0.2066 -0.5983  0.8323
 7516TIP3   OH222511   4.970   0.956   2.343 -0.3424 -0.3504 -0.0032
 7516TIP3    H122512   4.904   0.984   2.281  0.4069  1.8274  0.1049
 7516TIP3    H222513   4.953   0.862   2.355 -1.7234 -0.4138 -1.9483
 7517TIP3   OH222514   1.668   3.927   5.680 -0.4337  0.0856 -0.0805
 7517TIP3    H122515   1.678   3.856   5.743 -1.6559  1.0875  1.3135
 7517TIP3    H222516   1.702   3.891   5.598 -0.7528 -1.9911  0.6396
 7518TIP3   OH222517   6.601   2.757   0.796 -0.4963  0.6160 -0.0395
 7518TIP3    H122518   6.530   2.708   0.838 -1.1855  0.3892 -1.3940
 7518TIP3    H222519   6.636   2.696   0.730  1.9480  0.1914  1.5274
 7519TIP3   OH222520   3.174   5.460   3.556 -0.2203  0.3126  0.2418
 7519TIP3    H122521   3.264   5.464   3.523  1.2231 -0.4968  3.6688
 7519TIP3    H222522   3.157   5.547   3.590 -0.8199  0.4891 -0.4762
 7520TIP3   OH222523   4.400   1.526   5.234 -0.1681 -0.0058 -0.0036
 7520TIP3    H122524   4.472   1.579   5.268  1.4370 -1.1725 -1.4548
 7520TIP3    H222525   4.330   1.537   5.299  0.4425  3.0115  0.2667
 7521TIP3   OH222526   5.181   5.198   2.728  0.0516 -0.1696  0.1425
 7521TIP3    H122527   5.242   5.124   2.727  0.7188  0.2987  1.9798
 7521TIP3    H222528   5.185   5.233   2.639  0.4243 -1.7611 -0.4998
 7522TIP3   OH222529   3.485   3.952   5.206  0.0630 -0.1776 -0.1378
 7522TIP3    H122530   3.541   3.907   5.269 -1.1570 -1.5697  0.0129
 7522TIP3    H222531   3.521   4.040   5.200  1.8392 -0.8184  0.4514
 7523TIP3   OH222532   6.476   1.557   5.717 -0.5477  0.4462 -0.1161
 7523TIP3    H122533   6.551   1.498   5.711 -0.7791  0.0358  0.8477
 7523TIP3    H222534   6.399   1.499   5.717 -0.9164  0.8902 -1.6977
 7524TIP3   OH222535   0.910   6.263   0.174  0.2186  0.7774  0.1244
 7524TIP3    H122536   0.856   6.314   0.233 -0.2979 -0.0810  0.4116
 7524TIP3    H222537   0.850   6.198   0.136  0.9485  0.0724  0.1419
 7525TIP3   OH222538   4.520   6.238   4.066 -0.1149 -0.2886 -0.0486
 7525TIP3    H122539   4.590   6.285   4.112 -1.0395  1.0509  0.0487
 7525TIP3    H222540   4.560   6.155   4.040  0.8701 -0.4994  1.9192
 7526TIP3   OH222541   1.588   1.534   0.054  0.1119 -0.9402 -0.1266
 7526TIP3    H122542   1.534   1.501   0.126 -0.6117 -1.3767 -0.8509
 7526TIP3    H222543   1.644   1.460   0.031  1.1136 -0.4568  0.6898
 7527TIP3   OH222544   4.469   6.337   5.074  0.4420 -0.2030 -0.0166
 7527TIP3    H122545   4.478   6.353   5.168  1.6628 -3.8954  0.6598
 7527TIP3    H222546   4.377   6.314   5.062  0.2506  0.4210  0.2246
 7528TIP3   OH222547   1.303   4.273   1.284  0.5875  0.4351  0.2915
 7528TIP3    H122548   1.343   4.302   1.201  0.8262  2.4800  1.0579
 7528TIP3    H222549   1.294   4.179   1.274  1.9289  0.4299 -1.5023
 7529TIP3   OH222550   0.703   5.287   4.534  0.4481 -0.4258 -0.0364
 7529TIP3    H122551   0.654   5.367   4.514  1.9580  0.9377  1.4298
 7529TIP3    H222552   0.655   5.218   4.488 -0.9264  1.2936 -1.3467
 7530TIP3   OH222553   3.188   4.815   4.730 -0.2835  0.3691 -0.3299
 7530TIP3    H122554   3.261   4.756   4.744 -1.4588 -1.2965 -0.9402
 7530TIP3    H222555   3.118   4.781   4.785 -2.0940 -0.9638 -3.2385
 7531TIP3   OH222556   1.440   5.723   4.109  0.3072 -0.3336  0.3267
 7531TIP3    H122557   1.362   5.739   4.163 -1.0064 -0.5730 -1.4235
 7531TIP3    H222558   1.426   5.775   4.030  0.9391 -1.9206 -0.9015
 7532TIP3   OH222559   3.687   0.286   5.140  0.2505  0.6704 -0.1929
 7532TIP3    H122560   3.704   0.378   5.161 -0.3091  1.5824 -3.3402
 7532TIP3    H222561   3.637   0.288   5.059  0.8909 -2.4524 -0.7973
 7533TIP3   OH222562   6.209   2.006   4.254  0.5716  0.8526  0.5131
 7533TIP3    H122563   6.258   1.972   4.179  1.6573  1.6583  0.8392
 7533TIP3    H222564   6.154   1.933   4.282  1.1557  0.1155 -0.2291
 7534TIP3   OH222565   4.521   1.190   5.556 -0.1792 -0.3781 -0.1301
 7534TIP3    H122566   4.596   1.132   5.566 -0.2783 -0.7478 -1.3884
 7534TIP3    H222567   4.521   1.214   5.463 -1.3615 -0.0394 -0.0636
 7535TIP3   OH222568   1.279   4.329   2.192  0.1073  0.4219 -0.8983
 7535TIP3    H122569   1.356   4.373   2.230  0.0266  0.0141 -0.2596
 7535TIP3    H222570   1.206   4.357   2.246  0.3019 -1.9064  0.6923
 7536TIP3   OH222571   3.938   2.424   4.157  0.3872 -0.0830 -0.1460
 7536TIP3    H122572   3.983   2.456   4.079  0.7274 -0.5686 -0.1546
 7536TIP3    H222573   3.850   2.402   4.126  0.1155  0.8942 -0.1242
 7537TIP3   OH222574   7.013   4.488   1.861  0.3651  0.3891 -0.0862
 7537TIP3    H122575   7.025   4.491   1.766  1.7601  0.7348  0.0769
 7537TIP3    H222576   6.947   4.420   1.875 -0.1908  0.6426 -1.3188
 7538TIP3   OH222577   0.968   3.347   2.339  0.0836  0.3769 -0.0098
 7538TIP3    H122578   0.945   3.373   2.428  0.8877  0.2889  0.2324
 7538TIP3    H222579   0.886   3.355   2.289 -0.1823  1.2286  0.5504
 7539TIP3   OH222580   3.790   2.604   5.712 -0.1145  0.2465 -0.4760
 7539TIP3    H122581   3.747   2.677   5.667  0.0146 -0.6403 -2.1206
 7539TIP3    H222582   3.884   2.623   5.704 -0.0949  0.1945 -0.3789
 7540TIP3   OH222583   5.573   4.619   5.625 -0.2938 -0.6719  0.5401
 7540TIP3    H122584   5.660   4.579   5.635  0.6868  1.2753  0.4854
 7540TIP3    H222585   5.571   4.686   5.694 -1.5419 -0.3480  0.2018
 7541TIP3   OH222586   2.998   1.908   0.002  0.1030 -0.8112 -0.2298
 7541TIP3    H122587   2.926   1.847   0.020 -0.4844  0.2372  1.1090
 7541TIP3    H222588   3.072   1.873   0.052  0.2378 -1.3044 -0.7622
 7542TIP3   OH222589   6.355   4.202   0.195 -0.1582  0.4430  0.2984
 7542TIP3    H122590   6.271   4.156   0.191  0.0073  0.2306 -1.8663
 7542TIP3    H222591   6.331   4.295   0.194 -0.3743  0.3821 -0.3598
 7543TIP3   OH222592   1.496   5.954   5.692  0.0657  0.2915  0.3641
 7543TIP3    H122593   1.524   5.966   5.601 -0.1120 -0.0492  0.2671
 7543TIP3    H222594   1.550   5.883   5.724  0.7978  1.0321  0.8135
 7544TIP3   OH222595   0.124   1.587   2.380  0.2373 -0.4331 -0.6072
 7544TIP3    H122596   0.206   1.606   2.424  0.1634  1.8082 -1.3375
 7544TIP3    H222597   0.057   1.620   2.440 -0.1605 -1.8800 -0.2022
 7545TIP3   OH222598   0.319   1.012   5.413 -0.2496  0.1531  0.1864
 7545TIP3    H122599   0.380   0.939   5.422  0.4265  0.5714 -0.8616
 7545TIP3    H222600   0.366   1.077   5.360 -0.1837  2.1017  2.4528
 7546TIP3   OH222601   1.016   0.990   1.865  0.0153  0.0720  0.3925
 7546TIP3    H122602   1.049   1.078   1.849  0.6620  0.0776  1.6231
 7546TIP3    H222603   1.094   0.935   1.871 -0.3237 -0.3925  0.6717
 7547TIP3   OH222604   6.058   2.478   4.713 -0.4240  0.2372 -0.4596
 7547TIP3    H122605   6.111   2.401   4.694  0.3057  0.6101  0.0062
 7547TIP3    H222606   5.969   2.453   4.687 -0.1981 -0.7497 -0.3253
 7548TIP3   OH222607   6.882   1.355   5.221  0.9461 -0.1505  0.5996
 7548TIP3    H122608   6.925   1.323   5.141  1.5203  0.9421  0.4473
 7548TIP3    H222609   6.931   1.315   5.292  1.2773 -0.0817  0.4124
 7549TIP3   OH222610   6.852   1.579   3.791  0.0308 -0.1323 -0.2670
 7549TIP3    H122611   6.901   1.508   3.831  0.7034  0.7807  0.5723
 7549TIP3    H222612   6.766   1.575   3.833  0.5832  0.5341  0.9764
 7550TIP3   OH222613   5.817   1.907   4.996 -0.1351 -0.6921 -0.0706
 7550TIP3    H122614   5.743   1.960   5.023  0.0615 -1.6288  2.5818
 7550TIP3    H222615   5.893   1.965   5.002  0.1690 -1.2534  3.3941
 7551TIP3   OH222616   2.798   1.429   5.298 -0.6258  0.1092  0.2724
 7551TIP3    H122617   2.794   1.365   5.369 -0.9423 -2.7051 -2.0807
 7551TIP3    H222618   2.885   1.468   5.306 -0.6947 -0.0380  2.2104
 7552TIP3   OH222619   6.513   3.523   5.332  0.8402 -0.4101  0.1672
 7552TIP3    H122620   6.546   3.434   5.333  1.4840 -0.1760  1.5408
 7552TIP3    H222621   6.420   3.514   5.309  0.6072 -1.5511  1.4487
 7553TIP3   OH222622   3.830   0.965   0.026  0.2523  0.2235  0.2535
 7553TIP3    H122623   3.808   0.941   0.116  0.9074  2.8056  1.2098
 7553TIP3    H222624   3.922   0.940   0.017 -0.2654 -1.5848 -0.3310
 7554TIP3   OH222625   3.899   4.642   2.540  0.1396 -0.2438 -0.2430
 7554TIP3    H122626   3.829   4.581   2.563  0.4321 -0.5061 -0.0399
 7554TIP3    H222627   3.895   4.709   2.608  0.3595 -0.4895  0.0176
 7555TIP3   OH222628   2.139   0.071  -0.018 -0.4779 -0.0711 -0.2377
 7555TIP3    H122629   2.101   0.125   0.051  1.0492  1.6423 -0.6658
 7555TIP3    H222630   2.121  -0.019   0.010 -1.3182  0.6009  1.5521
 7556TIP3   OH222631   4.478   2.530   0.747  1.1111 -0.0125  1.0072
 7556TIP3    H122632   4.417   2.535   0.673  0.9930  3.5064  1.1725
 7556TIP3    H222633   4.434   2.474   0.810 -1.4910  1.4131  0.6302
 7557TIP3   OH222634   2.112   6.303   4.423 -0.3731 -0.0046 -0.1788
 7557TIP3    H122635   2.074   6.382   4.386 -0.1797  1.1747  1.9802
 7557TIP3    H222636   2.162   6.333   4.499  1.3701 -1.9805 -0.4357
 7558TIP3   OH222637   4.321   3.997   3.930  0.2491 -0.0776  0.1455
 7558TIP3    H122638   4.232   4.000   3.895  0.5447 -2.7183 -1.0846
 7558TIP3    H222639   4.374   3.966   3.857  1.6537 -1.4912  1.6644
 7559TIP3   OH222640   1.554   0.581   3.744  0.3502  0.6756  0.0880
 7559TIP3    H122641   1.600   0.662   3.722  1.1205  0.5436  1.1446
 7559TIP3    H222642   1.618   0.512   3.727  0.0902  0.3819  0.2942
 7560TIP3   OH222643   0.539   2.639   3.043 -0.2892  0.0004  0.1877
 7560TIP3    H122644   0.465   2.636   2.982 -0.1045  0.0990 -0.0435
 7560TIP3    H222645   0.602   2.577   3.006  0.0777  0.5138 -0.0554
 7561TIP3   OH222646   1.750   3.109   3.686  0.1125 -0.1428 -0.8297
 7561TIP3    H122647   1.766   3.166   3.761 -0.5018  0.8786 -1.4493
 7561TIP3    H222648   1.801   3.029   3.705  0.5753  0.3944  0.2932
 7562TIP3   OH222649   0.576   0.321   1.993 -0.1859  0.1707  0.5855
 7562TIP3    H122650   0.507   0.373   1.951  1.6209  1.6564 -0.7233
 7562TIP3    H222651   0.618   0.382   2.054 -0.8106 -1.1001  2.3944
 7563TIP3   OH222652   6.552   6.449   3.406 -0.2413  0.3345  0.5887
 7563TIP3    H122653   6.624   6.502   3.373 -1.5427  1.7692 -0.0576
 7563TIP3    H222654   6.528   6.393   3.332 -0.6242  0.7824  0.3700
 7564TIP3   OH222655   3.201   5.608   0.034  0.2113 -0.6149 -0.0138
 7564TIP3    H122656   3.289   5.647   0.025 -0.1278  0.2547  0.2975
 7564TIP3    H222657   3.203   5.531  -0.022  1.4055 -1.0056  0.5275
 7565TIP3   OH222658   3.388   1.249   0.661 -0.1368  0.0405 -0.1516
 7565TIP3    H122659   3.476   1.269   0.629 -0.5521  0.9089 -0.7729
 7565TIP3    H222660   3.362   1.171   0.613 -0.4644  0.9107 -1.4375
 7566TIP3   OH222661   3.818   0.663   2.357  0.0762 -0.1927 -0.1653
 7566TIP3    H122662   3.785   0.603   2.290 -1.8386 -0.7269  1.1706
 7566TIP3    H222663   3.780   0.747   2.335 -0.6512 -0.3943  0.2967
 7567TIP3   OH222664   1.568   0.155   1.887 -0.3430  0.0359  0.4827
 7567TIP3    H122665   1.614   0.112   1.815  1.5614  0.5257  1.3360
 7567TIP3    H222666   1.559   0.088   1.954  0.0261  0.1897  0.6913
 7568TIP3   OH222667   2.034   3.198   5.545 -0.3895  0.2892 -0.3265
 7568TIP3    H122668   2.066   3.277   5.502  0.0209  0.2336 -0.1252
 7568TIP3    H222669   1.939   3.200   5.531 -0.3970  0.8783 -0.2220
 7569TIP3   OH222670   6.314   5.542   5.122 -0.6165  0.2612 -0.1046
 7569TIP3    H122671   6.281   5.498   5.044  1.6926 -0.2757 -0.8613
 7569TIP3    H222672   6.249   5.525   5.189 -2.9327  1.1471 -1.9866
 7570TIP3   OH222673   1.572   3.604   2.727  0.0457 -0.3977  0.4908
 7570TIP3    H122674   1.584   3.699   2.726 -0.7726 -0.2918 -0.0080
 7570TIP3    H222675   1.631   3.573   2.796  0.2660  0.4761  0.7055
 7571TIP3   OH222676   5.493   4.552   0.056 -0.0323  0.0981  0.1251
 7571TIP3    H122677   5.564   4.544   0.120 -0.0110  2.5368  0.5030
 7571TIP3    H222678   5.430   4.610   0.098  0.5524  2.8489 -2.4493
 7572TIP3   OH222679   4.039   0.901   1.928  0.5931 -0.3618  0.0212
 7572TIP3    H122680   3.975   0.971   1.941  1.6214  0.8440 -1.0676
 7572TIP3    H222681   4.050   0.895   1.833  1.0308 -1.5345  0.1283
 7573TIP3   OH222682   4.872   6.137   3.844 -0.7148 -0.5222 -0.7225
 7573TIP3    H122683   4.906   6.061   3.797 -0.0545  0.3628 -1.7223
 7573TIP3    H222684   4.787   6.108   3.877  0.1577 -2.1777  0.2174
 7574TIP3   OH222685   6.092   4.085   1.897  0.0955 -0.4906  0.6266
 7574TIP3    H122686   6.177   4.124   1.876 -1.4110  2.2736 -0.8737
 7574TIP3    H222687   6.034   4.113   1.826 -2.3366 -1.4352  2.0975
 7575TIP3   OH222688   4.626   4.874   0.775 -0.2367 -0.1645  0.2818
 7575TIP3    H122689   4.719   4.896   0.788 -0.3225 -0.1605  0.9218
 7575TIP3    H222690   4.615   4.790   0.819 -0.3660 -0.5465 -0.4645
 7576TIP3   OH222691   5.540   1.321   2.900  0.4499 -0.0686  0.2457
 7576TIP3    H122692   5.527   1.416   2.892  0.1017  0.0298  1.6641
 7576TIP3    H222693   5.629   1.311   2.933  0.5735 -0.2478 -0.1410
 7577TIP3   OH222694   0.608   0.659   0.333 -0.5483  0.5051 -0.1036
 7577TIP3    H122695   0.617   0.594   0.403  1.0155  1.3019  0.4803
 7577TIP3    H222696   0.519   0.693   0.342 -0.0793  1.2665  2.1269
 7578TIP3   OH222697   3.945   5.745   0.566 -0.4765  0.5534  0.8717
 7578TIP3    H122698   4.003   5.680   0.604 -0.2205  1.1263  1.4733
 7578TIP3    H222699   3.988   5.829   0.581 -1.8968  1.0906  2.2314
 7579TIP3   OH222700   6.776   2.734   3.226 -0.0332  0.1726 -0.1219
 7579TIP3    H122701   6.802   2.677   3.298 -1.2131 -1.3439 -0.8278
 7579TIP3    H222702   6.701   2.690   3.187 -0.1959  1.5888 -1.5115
 7580TIP3   OH222703   0.615   3.257   2.929  0.4938  0.4316  0.1092
 7580TIP3    H122704   0.672   3.296   2.995 -0.7355  1.3048  0.7228
 7580TIP3    H222705   0.613   3.322   2.858  0.5423  0.2474 -0.0600
 7581TIP3   OH222706   3.562   1.998   1.351 -0.3291  0.1114  0.1186
 7581TIP3    H122707   3.528   2.029   1.435 -1.0104  1.6180 -0.6817
 7581TIP3    H222708   3.568   1.903   1.361 -0.4580  0.2597  1.8380
 7582TIP3   OH222709   4.884   4.011   1.923  0.1959 -0.1517 -0.0256
 7582TIP3    H122710   4.912   3.937   1.869 -2.5861 -3.3707  2.4973
 7582TIP3    H222711   4.957   4.028   1.981  0.4064 -2.0465  0.3364
 7583TIP3   OH222712   3.687   2.034   3.891  0.1895 -0.7471 -0.2760
 7583TIP3    H122713   3.632   1.984   3.829  0.9265 -1.2595 -0.5290
 7583TIP3    H222714   3.748   2.082   3.835 -1.2462  1.4140 -0.1146
 7584TIP3   OH222715   2.181   1.784   4.699 -0.3546 -0.0645  0.3440
 7584TIP3    H122716   2.088   1.780   4.676  0.0702  1.4386 -1.9157
 7584TIP3    H222717   2.200   1.698   4.737 -2.1441 -1.2845 -1.3592
 7585TIP3   OH222718   1.186   0.278   2.259 -0.3756 -0.5757  0.0090
 7585TIP3    H122719   1.118   0.340   2.230 -1.9625 -2.1891  0.0765
 7585TIP3    H222720   1.165   0.197   2.212  0.9034 -1.4221  0.8434
 7586TIP3   OH222721   1.486   3.383   0.245  0.0409  0.2132 -0.0136
 7586TIP3    H122722   1.566   3.331   0.241 -0.8048 -1.0509 -1.4951
 7586TIP3    H222723   1.511   3.468   0.207  1.1503  0.5527  1.3951
 7587TIP3   OH222724   1.476   2.843   5.573  0.2267 -0.4076 -0.4546
 7587TIP3    H122725   1.406   2.853   5.638  0.4730 -0.1141 -0.2313
 7587TIP3    H222726   1.556   2.863   5.621  0.4922 -0.9945 -0.6447
 7588TIP3   OH222727   3.526   6.101   4.700  0.4344 -0.5090 -0.2658
 7588TIP3    H122728   3.440   6.066   4.678 -0.1285 -1.2693  2.6702
 7588TIP3    H222729   3.524   6.192   4.672 -1.1826 -0.6176 -0.5523
 7589TIP3   OH222730   6.454   1.506   5.439  0.5060  0.3946  0.1793
 7589TIP3    H122731   6.444   1.411   5.433  0.6171  0.4488 -1.3945
 7589TIP3    H222732   6.376   1.536   5.485  0.4582 -0.4531  0.6625
 7590TIP3   OH222733   4.522   5.295   0.735 -0.1163  0.0817 -0.3240
 7590TIP3    H122734   4.486   5.324   0.819  0.8201  2.2514 -0.6133
 7590TIP3    H222735   4.487   5.206   0.724 -0.6187 -0.1016  2.1296
 7591TIP3   OH222736   6.289   2.221   5.094  0.3134  0.1207 -0.1612
 7591TIP3    H122737   6.250   2.139   5.063  0.0244 -0.4726  1.6792
 7591TIP3    H222738   6.218   2.285   5.088 -0.3620 -0.4664  1.1542
 7592TIP3   OH222739   3.967   4.726   5.068  0.6007  0.3576 -0.5259
 7592TIP3    H122740   3.917   4.680   5.136  2.8938 -2.3289 -0.4682
 7592TIP3    H222741   3.913   4.719   4.990  0.1416 -1.0214 -0.1139
 7593TIP3   OH222742   2.112   0.801   1.692  0.0280  0.4916 -0.0728
 7593TIP3    H122743   2.055   0.793   1.769 -0.2954 -0.5978 -0.4126
 7593TIP3    H222744   2.103   0.893   1.666  0.8073  1.1100  1.6723
 7594TIP3   OH222745   4.050   1.343   0.398  0.2550  0.0892  0.2098
 7594TIP3    H122746   4.088   1.430   0.406  2.1392 -0.6482  0.0265
 7594TIP3    H222747   4.111   1.296   0.341 -0.4687 -1.4631  0.6605
 7595TIP3   OH222748   1.449   6.728   2.143  0.7569 -0.6444  0.2310
 7595TIP3    H122749   1.480   6.673   2.214 -2.5839 -0.7965  1.7513
 7595TIP3    H222750   1.354   6.723   2.148  0.3514  0.7766 -3.1776
 7596TIP3   OH222751   0.307   3.966   0.638 -0.5450  0.6323 -0.1716
 7596TIP3    H122752   0.255   3.889   0.662 -0.3933  0.2980 -0.8869
 7596TIP3    H222753   0.382   3.964   0.699 -2.0115  1.8813  1.7898
 7597TIP3   OH222754   4.433   5.752   2.309 -0.1548 -0.3653  0.0000
 7597TIP3    H122755   4.434   5.807   2.230 -1.2569 -1.4250 -0.8018
 7597TIP3    H222756   4.340   5.739   2.327  0.0806  0.0718  1.6626
 7598TIP3   OH222757   0.497   2.950   0.852  0.3635  0.6526 -0.6365
 7598TIP3    H122758   0.420   2.896   0.838  0.4782  0.9988 -2.9764
 7598TIP3    H222759   0.462   3.038   0.870  0.2146  0.2566  1.1895
 7599TIP3   OH222760   1.356   4.044   2.497 -0.0140 -0.3950  0.0820
 7599TIP3    H122761   1.337   3.955   2.466 -2.1173  0.3956 -1.1915
 7599TIP3    H222762   1.421   4.077   2.436 -0.7933 -0.3926 -0.7836
 7600TIP3   OH222763   2.674   5.681   4.026  0.1006  0.4211 -0.1752
 7600TIP3    H122764   2.619   5.603   4.034 -1.2728  1.4433  0.9876
 7600TIP3    H222765   2.749   5.663   4.083 -0.1684 -0.0876  0.0285
 7601TIP3   OH222766   5.335   2.069   1.609  0.1268  0.0578  0.9163
 7601TIP3    H122767   5.296   2.056   1.696 -1.0851 -0.6057  0.3013
 7601TIP3    H222768   5.387   1.990   1.594  1.7855  0.9282  1.7230
 7602TIP3   OH222769   7.010   0.159   4.257  0.2380 -0.0344 -0.0481
 7602TIP3    H122770   6.970   0.072   4.259 -0.0898  0.1227  0.3167
 7602TIP3    H222771   7.043   0.173   4.345  0.9589 -0.0918 -0.3008
 7603TIP3   OH222772   2.078   5.213   3.797  0.0858 -0.2076 -0.2776
 7603TIP3    H122773   2.162   5.238   3.835  0.3209 -0.3790 -0.6729
 7603TIP3    H222774   2.034   5.164   3.866 -0.5622  1.6167  0.6526
 7604TIP3   OH222775   2.646   0.310   2.358  0.7076  0.0854  0.4261
 7604TIP3    H122776   2.614   0.340   2.443  3.3514  1.1215  1.1392
 7604TIP3    H222777   2.691   0.386   2.321  0.3164 -0.5965 -1.5519
 7605TIP3   OH222778   5.466   4.529   5.105  0.2078  0.5319  0.5585
 7605TIP3    H122779   5.402   4.587   5.063 -2.3932 -1.3371  1.5914
 7605TIP3    H222780   5.499   4.578   5.180  0.3233  1.7085 -0.2466
 7606TIP3   OH222781   0.974   5.401   0.823  0.0065  0.3611 -0.1721
 7606TIP3    H122782   0.906   5.455   0.863 -0.6733 -2.0781  2.2054
 7606TIP3    H222783   0.929   5.355   0.752 -0.2187  0.5183 -0.1334
 7607TIP3   OH222784   2.010   1.519   4.747  0.3741  0.9208 -0.2120
 7607TIP3    H122785   1.946   1.448   4.755 -0.3293  1.0520 -3.3569
 7607TIP3    H222786   2.087   1.477   4.709 -0.2503  1.8323 -2.6558
 7608TIP3   OH222787   3.752   3.847   5.633 -0.2319  0.1145 -0.0565
 7608TIP3    H122788   3.756   3.839   5.729 -3.4690 -0.2749  0.1820
 7608TIP3    H222789   3.815   3.783   5.601 -0.4208 -1.1199  1.8642
 7609TIP3   OH222790   6.084   5.039   0.394 -0.3018 -0.3765  0.8228
 7609TIP3    H122791   6.119   4.995   0.472  2.3857  2.2661  1.2857
 7609TIP3    H222792   6.154   5.031   0.329 -1.0277  0.5096 -0.1033
 7610TIP3   OH222793   0.809   0.147   5.509  0.1580 -0.2504  0.6966
 7610TIP3    H122794   0.859   0.171   5.587  1.8561  1.8151 -0.9295
 7610TIP3    H222795   0.756   0.224   5.489 -0.3821 -0.8081 -0.1254
 7611TIP3   OH222796   0.964   0.714   1.574 -0.3615 -0.2038 -0.3290
 7611TIP3    H122797   1.051   0.730   1.610 -0.1891 -1.7002 -0.0247
 7611TIP3    H222798   0.977   0.709   1.480  0.3002 -2.5817 -0.1664
 7612TIP3   OH222799   3.801   1.670   3.713 -0.4267 -0.6291  0.4023
 7612TIP3    H122800   3.723   1.724   3.726 -0.7898 -0.8619 -0.6555
 7612TIP3    H222801   3.770   1.597   3.659  0.5575 -0.6509 -0.1520
 7613TIP3   OH222802   6.623   6.376   4.668 -0.1655  0.0886 -0.9947
 7613TIP3    H122803   6.663   6.462   4.655  2.3117 -0.7347  0.4587
 7613TIP3    H222804   6.641   6.328   4.588  1.0981  0.0140 -0.6875
 7614TIP3   OH222805   4.617   1.961   0.171  0.6048 -0.1857  0.0795
 7614TIP3    H122806   4.632   1.867   0.187 -0.5038 -0.7265 -1.7457
 7614TIP3    H222807   4.540   1.982   0.224  0.8687 -0.2949  0.5129
 7615TIP3   OH222808   5.386   1.645   3.914  0.5449 -0.5130 -0.2466
 7615TIP3    H122809   5.437   1.573   3.877 -1.1217 -1.4203 -0.8581
 7615TIP3    H222810   5.296   1.613   3.915 -0.2021  1.4611 -0.2801
 7616TIP3   OH222811   2.396   5.844   5.381  0.1541  0.5861 -0.2235
 7616TIP3    H122812   2.405   5.823   5.288 -0.1646  2.2510 -0.6553
 7616TIP3    H222813   2.486   5.854   5.411  0.2441  0.5344 -0.4688
 7617TIP3   OH222814   3.427   3.266   5.228  0.1503  0.1594  0.5340
 7617TIP3    H122815   3.393   3.195   5.173  0.0115  0.3421  0.3827
 7617TIP3    H222816   3.452   3.335   5.167 -1.9715  1.2329  0.7504
 7618TIP3   OH222817   0.807   1.382   4.171  0.4477  0.1942 -0.2645
 7618TIP3    H122818   0.882   1.351   4.120 -0.3241  1.2145 -2.1178
 7618TIP3    H222819   0.741   1.404   4.105 -1.0144  0.5592  1.2561
 7619TIP3   OH222820   6.216   4.832   2.671 -0.2968 -0.1893 -0.3250
 7619TIP3    H122821   6.156   4.905   2.661  0.6504  0.3650 -2.3753
 7619TIP3    H222822   6.294   4.870   2.711 -0.8306 -0.6809  1.2557
 7620TIP3   OH222823   1.762   3.688   3.676 -0.1440  0.1936  0.1611
 7620TIP3    H122824   1.672   3.714   3.696 -0.5658 -1.4389  0.5269
 7620TIP3    H222825   1.813   3.723   3.749 -0.9947 -1.6330  1.7514
 7621TIP3   OH222826   4.065   5.114   1.080  0.0368  0.2013  0.0308
 7621TIP3    H122827   4.040   5.122   1.172  1.6188  0.0301  0.4937
 7621TIP3    H222828   4.061   5.020   1.062  2.1931 -0.0481  0.6736
 7622TIP3   OH222829   4.904   2.500   1.677 -0.2951  0.1111 -0.1335
 7622TIP3    H122830   4.834   2.539   1.625 -1.8554 -2.2745  0.0406
 7622TIP3    H222831   4.915   2.411   1.642  1.4891 -0.1666  0.9578
 7623TIP3   OH222832   4.155   1.359   3.482 -0.5141 -0.3784  0.3302
 7623TIP3    H122833   4.063   1.361   3.510 -1.0310  1.6761 -1.2586
 7623TIP3    H222834   4.154   1.400   3.396  2.1216  1.2348  0.9697
 7624TIP3   OH222835   4.625   3.678   3.183 -0.4552  0.6208 -0.0633
 7624TIP3    H122836   4.707   3.647   3.144  0.0807  1.4623  0.3584
 7624TIP3    H222837   4.616   3.768   3.151 -0.5251  0.9765  0.9363
 7625TIP3   OH222838   5.529   3.852   2.211 -0.5011  0.2415 -0.3342
 7625TIP3    H122839   5.540   3.826   2.302 -0.2837 -1.3323 -0.7906
 7625TIP3    H222840   5.565   3.941   2.207  1.7684 -0.5768  0.5985
 7626TIP3   OH222841   0.719   2.832   1.198 -0.0666  0.2685 -0.3268
 7626TIP3    H122842   0.771   2.855   1.121  0.0773 -0.5441 -0.4796
 7626TIP3    H222843   0.651   2.900   1.202 -0.5128 -0.0762 -1.5915
 7627TIP3   OH222844   6.210   0.337   3.902 -0.6160 -0.3106 -0.0910
 7627TIP3    H122845   6.183   0.417   3.857 -0.4150 -0.1404  0.0895
 7627TIP3    H222846   6.252   0.284   3.835  2.6528  1.2933  0.4937
 7628TIP3   OH222847   0.346   3.353   3.957 -0.2922 -0.4737 -0.1811
 7628TIP3    H122848   0.366   3.286   3.892  0.9462 -0.8836  0.5772
 7628TIP3    H222849   0.368   3.313   4.041 -1.0602  0.3311  0.4303
 7629TIP3   OH222850   3.255   5.827   1.614 -0.1775 -0.4263 -0.4518
 7629TIP3    H122851   3.339   5.818   1.568 -0.7385 -1.7812 -1.2631
 7629TIP3    H222852   3.279   5.861   1.700  1.0627  0.5388 -1.1402
 7630TIP3   OH222853   5.517   5.394   1.076  0.0124  0.0568 -0.5531
 7630TIP3    H122854   5.541   5.483   1.101 -1.6135  0.3928 -0.0731
 7630TIP3    H222855   5.489   5.352   1.158 -0.5757 -0.4397 -0.9980
 7631TIP3   OH222856   1.424   0.421   0.006 -0.2460 -0.4862 -0.1957
 7631TIP3    H122857   1.437   0.327   0.021  1.9844 -0.1769 -0.0152
 7631TIP3    H222858   1.415   0.459   0.093  1.1400 -0.2554 -0.1312
 7632TIP3   OH222859   5.652   6.618   1.022  0.1523 -0.0078  0.1310
 7632TIP3    H122860   5.606   6.653   1.099  1.1053 -1.8631  1.6365
 7632TIP3    H222861   5.742   6.650   1.031  0.8564 -2.0805  1.1386
 7633TIP3   OH222862   2.925   4.823   1.921  0.2538 -0.4820 -0.3325
 7633TIP3    H122863   2.957   4.749   1.973 -0.8339 -0.4756  0.3634
 7633TIP3    H222864   2.938   4.795   1.830  0.4031 -1.2851 -0.0745
 7634TIP3   OH222865   4.555   6.499   3.084 -0.0756  0.3797  0.1249
 7634TIP3    H122866   4.515   6.461   3.161 -0.4703  0.0496 -0.2375
 7634TIP3    H222867   4.607   6.428   3.046 -0.0176  0.4892 -0.0021
 7635TIP3   OH222868   0.376   6.166   0.084  0.5435  0.1218  0.1056
 7635TIP3    H122869   0.293   6.212   0.071  0.6006  0.1250 -0.2592
 7635TIP3    H222870   0.369   6.128   0.172 -0.5669 -1.3445 -0.5603
 7636TIP3   OH222871   0.342   4.852   1.904  0.0257 -0.3086  0.0665
 7636TIP3    H122872   0.263   4.798   1.909  0.6215 -1.1840  0.1298
 7636TIP3    H222873   0.409   4.802   1.951  0.4011  0.8345  0.8019
 7637TIP3   OH222874   7.061   4.705   0.717  0.0727 -0.0483  0.3989
 7637TIP3    H122875   7.140   4.734   0.763  1.9621 -1.4381 -1.7227
 7637TIP3    H222876   7.056   4.611   0.735 -0.5564 -0.1505 -0.2306
 7638TIP3   OH222877   3.851   0.052   4.948  0.0329  0.0171  0.3185
 7638TIP3    H122878   3.873   0.075   5.039  0.7216 -1.1365  0.4719
 7638TIP3    H222879   3.843  -0.044   4.950 -0.1758  0.0093 -0.7924
 7639TIP3   OH222880   7.119   3.607   5.016  0.2711  0.1508  0.6945
 7639TIP3    H122881   7.118   3.521   5.058 -1.8349 -0.3917 -0.3348
 7639TIP3    H222882   7.026   3.630   5.005  0.7685  1.6701 -0.8039
 7640TIP3   OH222883   5.517   5.819   1.390  0.0723  0.5826  0.2319
 7640TIP3    H122884   5.522   5.723   1.395 -1.8434  0.3456 -1.0768
 7640TIP3    H222885   5.607   5.846   1.373  0.2832 -1.2681 -2.2253
 7641TIP3   OH222886   1.981   1.019   2.192  0.2640 -0.0633 -0.2241
 7641TIP3    H122887   1.886   1.006   2.190  0.4669 -1.9634  0.3125
 7641TIP3    H222888   2.004   1.016   2.285  0.9031 -0.2806 -0.3827
 7642TIP3   OH222889   5.096   3.726   5.355  0.5988 -0.3881  0.3746
 7642TIP3    H122890   5.187   3.755   5.347  0.5823 -0.6996 -1.2722
 7642TIP3    H222891   5.103   3.631   5.366  0.5259 -0.1922  2.5078
 7643TIP3   OH222892   5.300   3.497   4.744 -0.5402 -0.1015 -0.2499
 7643TIP3    H122893   5.340   3.579   4.776  0.2395 -0.5885  0.0484
 7643TIP3    H222894   5.303   3.438   4.820 -1.6167 -0.2380 -0.2940
 7644TIP3   OH222895   2.978   2.660   2.791 -0.1836 -0.2433  0.2078
 7644TIP3    H122896   2.928   2.582   2.813 -0.5082  0.1567  0.9311
 7644TIP3    H222897   3.061   2.627   2.756 -0.8495 -0.9119 -0.7885
 7645TIP3   OH222898   6.866   2.075   5.050 -0.0241 -0.5799  0.2747
 7645TIP3    H122899   6.796   2.014   5.074  0.3455 -1.0230  0.2298
 7645TIP3    H222900   6.820   2.158   5.033 -0.4950 -0.7570  0.6425
 7646TIP3   OH222901   5.718   5.586   5.651 -0.1488  0.2759 -0.6483
 7646TIP3    H122902   5.718   5.648   5.724  3.6057 -0.3879  0.1024
 7646TIP3    H222903   5.655   5.519   5.677 -1.8653  2.0249  0.0138
 7647TIP3   OH222904   6.266   2.561   5.305  0.4618 -0.1610 -0.2220
 7647TIP3    H122905   6.355   2.560   5.269  0.7816 -2.0405  0.5187
 7647TIP3    H222906   6.212   2.596   5.234  1.4045 -1.6533 -1.7404
 7648TIP3   OH222907   2.599   3.289   1.701  0.0093 -0.0809  0.5973
 7648TIP3    H122908   2.564   3.359   1.756 -1.4666  0.9119 -1.5016
 7648TIP3    H222909   2.527   3.265   1.643  1.4802 -1.1187 -0.8852
 7649TIP3   OH222910   6.674   0.089   3.085 -0.2399  0.0238  0.7860
 7649TIP3    H122911   6.654   0.040   3.165  0.6688 -2.4691 -0.4106
 7649TIP3    H222912   6.724   0.027   3.031  0.2173  2.0237 -1.2205
 7650TIP3   OH222913   2.984   0.961   0.720  0.5234 -0.5776  1.1336
 7650TIP3    H122914   2.905   0.912   0.698  0.2184  0.0051  0.9188
 7650TIP3    H222915   2.972   1.046   0.678  0.8141 -0.1335  1.9271
 7651TIP3   OH222916   3.903   1.227   0.950 -0.0202  0.0945  0.0612
 7651TIP3    H122917   3.982   1.174   0.938 -0.5077 -0.2281 -2.3372
 7651TIP3    H222918   3.923   1.285   1.023  1.3327 -1.9299  1.3730
 7652TIP3   OH222919   1.269   6.381   2.180  0.0511 -0.0480  0.2655
 7652TIP3    H122920   1.272   6.477   2.185 -0.0637 -0.0118 -0.3265
 7652TIP3    H222921   1.247   6.362   2.089 -0.9036 -0.6270  0.6063
 7653TIP3   OH222922   5.336   3.072   0.985  0.8319 -0.0076  0.4566
 7653TIP3    H122923   5.251   3.028   0.988  0.2810  0.9407 -0.5597
 7653TIP3    H222924   5.379   3.045   1.066 -0.0076 -1.3362  0.4990
 7654TIP3   OH222925   2.288   2.317   1.675  0.3959  0.2244  0.3400
 7654TIP3    H122926   2.362   2.376   1.691  1.6928 -1.1476 -0.4058
 7654TIP3    H222927   2.214   2.360   1.718  0.7397  3.5085 -1.9447
 7655TIP3   OH222928   3.896   0.735   5.476  0.6351 -0.3945 -0.0573
 7655TIP3    H122929   3.925   0.815   5.521  1.6360 -1.1758  0.7157
 7655TIP3    H222930   3.812   0.714   5.517 -0.6609  1.3282 -1.6323
 7656TIP3   OH222931   0.092   0.261   0.408 -0.2095 -0.2153 -0.0318
 7656TIP3    H122932   0.128   0.341   0.371  2.7497 -1.5094 -0.2061
 7656TIP3    H222933   0.066   0.208   0.332 -1.4854  0.2289  0.0648
 7657TIP3   OH222934   6.214   3.451   4.530  0.0412 -0.1288 -0.0245
 7657TIP3    H122935   6.156   3.378   4.509 -0.7571  0.5216 -0.1081
 7657TIP3    H222936   6.202   3.513   4.458  0.8398  0.0172 -0.0408
 7658TIP3   OH222937   4.501   6.580   4.018 -0.0685 -0.1805 -0.1548
 7658TIP3    H122938   4.593   6.568   4.038  0.1573  0.5693 -0.6855
 7658TIP3    H222939   4.495   6.564   3.924 -0.0540  1.9618 -0.5637
 7659TIP3   OH222940   2.533   3.946   0.442 -0.3895  0.0501 -0.4655
 7659TIP3    H122941   2.600   3.878   0.436 -0.3504 -0.0433  0.7158
 7659TIP3    H222942   2.473   3.927   0.370 -0.2280 -1.0708 -0.3256
 7660TIP3   OH222943   4.633   3.091   4.358  0.2144  0.4096 -0.3650
 7660TIP3    H122944   4.553   3.076   4.309 -0.2147 -1.3223  0.7801
 7660TIP3    H222945   4.682   3.009   4.350  0.9873  0.7621  0.5289
 7661TIP3   OH222946   0.910   5.250   5.733  0.3541  0.2237 -0.3732
 7661TIP3    H122947   0.819   5.268   5.757  0.5737  0.2710  0.4504
 7661TIP3    H222948   0.905   5.183   5.666 -0.2966  0.3541 -0.4561
 7662TIP3   OH222949   2.875   1.903   3.843  0.0580 -0.1340  0.3706
 7662TIP3    H122950   2.798   1.957   3.859 -1.1571 -1.4766 -0.6525
 7662TIP3    H222951   2.949   1.962   3.854 -1.2402  2.5311 -3.3010
 7663TIP3   OH222952   0.402   5.555   5.472  0.1967 -0.6486  0.3599
 7663TIP3    H122953   0.457   5.562   5.395  0.9804 -1.4855  0.8285
 7663TIP3    H222954   0.338   5.625   5.462  0.2760 -0.7481 -1.0486
 7664TIP3   OH222955   2.109   0.046   3.350  0.5926 -0.1327 -0.9186
 7664TIP3    H122956   2.044   0.111   3.377  2.1584  1.2835 -0.3069
 7664TIP3    H222957   2.137   0.005   3.432  0.2529 -0.9751 -1.2138
 7665TIP3   OH222958   4.816   5.322   2.360  0.7470 -0.4430 -0.6368
 7665TIP3    H122959   4.787   5.260   2.293 -0.3286 -0.1331 -0.4761
 7665TIP3    H222960   4.745   5.385   2.367  0.6087 -0.7438  1.1620
 7666TIP3   OH222961   0.146   2.283   4.638 -0.0069  0.3376  0.1538
 7666TIP3    H122962   0.186   2.305   4.553 -0.7793  0.0075 -0.3087
 7666TIP3    H222963   0.059   2.321   4.634 -1.3532 -2.5007 -0.6282
 7667TIP3   OH222964   6.298   6.090   1.015 -0.2222  0.3456 -0.0016
 7667TIP3    H122965   6.206   6.065   1.030  0.5540 -2.2078  1.0374
 7667TIP3    H222966   6.315   6.157   1.081 -1.2202  0.5875  0.0396
 7668TIP3   OH222967   2.115   0.851   1.265  0.3861 -0.1022 -0.7746
 7668TIP3    H122968   2.140   0.759   1.271  0.9977  0.1513  1.3530
 7668TIP3    H222969   2.196   0.896   1.240 -0.1832 -0.2010 -3.0642
 7669TIP3   OH222970   1.714   4.251   3.563 -0.4634 -0.7709 -0.1079
 7669TIP3    H122971   1.791   4.259   3.506  0.3141  1.0035  1.0936
 7669TIP3    H222972   1.741   4.189   3.630 -0.3452 -0.7296 -0.1161
 7670TIP3   OH222973   3.819   3.722   1.073 -0.5313 -0.3220 -0.4134
 7670TIP3    H122974   3.751   3.784   1.047  0.3919  0.0223 -2.1751
 7670TIP3    H222975   3.783   3.678   1.150 -2.0830  0.9238 -0.3697
 7671TIP3   OH222976   2.602   2.710   1.014  0.2727  0.5502  0.2086
 7671TIP3    H122977   2.525   2.657   0.994  0.0162  1.3631 -1.1321
 7671TIP3    H222978   2.587   2.742   1.103  0.3888 -1.4871  1.0126
 7672TIP3   OH222979   2.529   4.866   3.605 -0.2333  0.4997  0.0074
 7672TIP3    H122980   2.529   4.920   3.684  1.3862  0.0949  0.3219
 7672TIP3    H222981   2.610   4.889   3.560 -0.5142 -0.1982 -0.8859
 7673TIP3   OH222982   0.543   1.770   3.995  0.1564  0.6092 -0.0633
 7673TIP3    H122983   0.462   1.819   3.980  0.1761  0.8037  0.4647
 7673TIP3    H222984   0.569   1.741   3.908 -1.3831 -0.9046 -0.0946
 7674TIP3   OH222985   5.130   1.540   3.937 -0.1833 -0.7623 -0.2230
 7674TIP3    H122986   5.068   1.613   3.941  1.9373  1.1286 -0.1709
 7674TIP3    H222987   5.098   1.479   4.003 -1.3747  0.6714  0.5949
 7675TIP3   OH222988   1.196   6.336   5.169  0.2831 -0.2653  0.6773
 7675TIP3    H122989   1.155   6.412   5.210  1.3151  0.4248  0.4522
 7675TIP3    H222990   1.245   6.294   5.240  1.5498  0.5687  0.3144
 7676TIP3   OH222991   4.519   6.266   5.600  0.0879 -0.3876  0.3331
 7676TIP3    H122992   4.473   6.345   5.628 -2.1596 -1.3259 -0.4712
 7676TIP3    H222993   4.486   6.196   5.657 -0.0905 -1.2322 -0.7575
 7677TIP3   OH222994   5.979   0.345   3.625  0.0959 -0.2324 -0.0672
 7677TIP3    H122995   5.994   0.435   3.652 -0.8785  0.0786 -0.5155
 7677TIP3    H222996   6.008   0.342   3.533  0.7357 -0.5486  0.1396
 7678TIP3   OH222997   5.041   3.534   3.639 -0.3824 -0.5090  0.0945
 7678TIP3    H122998   5.046   3.472   3.566  1.7993 -1.0508  0.6267
 7678TIP3    H222999   5.013   3.616   3.599  1.0867 -0.7046 -1.4711
 7679TIP3   OH223000   2.960   2.873   1.885 -0.0588 -0.4001 -0.0805
 7679TIP3    H123001   3.008   2.805   1.838  1.4652  1.0787 -0.7497
 7679TIP3    H223002   2.880   2.829   1.914  0.7615 -2.4077 -0.6632
 7680TIP3   OH223003   5.362   5.923   2.148  0.0289  0.2235 -0.3115
 7680TIP3    H123004   5.340   5.940   2.240  0.6711 -1.0356  0.1060
 7680TIP3    H223005   5.285   5.877   2.114  0.6194 -1.2307  0.2264
 7681TIP3   OH223006   3.415   0.781   4.225  0.2128  0.6226  0.3358
 7681TIP3    H123007   3.410   0.686   4.240  1.6614  0.5816  0.7948
 7681TIP3    H223008   3.505   0.803   4.249  0.1160  1.9951 -0.4901
 7682TIP3   OH223009   5.183   5.586   1.050 -0.1075  0.0879 -0.5645
 7682TIP3    H123010   5.121   5.557   1.117 -0.5037  0.0578 -0.9378
 7682TIP3    H223011   5.234   5.656   1.092  0.2174 -0.4981  0.0365
 7683TIP3   OH223012   4.016   2.688   4.745 -0.3568 -0.3526 -0.4645
 7683TIP3    H123013   4.046   2.601   4.769  0.3696 -0.5040 -1.8129
 7683TIP3    H223014   4.053   2.746   4.811 -2.0681 -1.1774  1.3235
 7684TIP3   OH223015   4.798   6.276   5.558 -0.4432  0.1453  0.2166
 7684TIP3    H123016   4.850   6.257   5.637 -0.2053  1.0589  0.3005
 7684TIP3    H223017   4.707   6.272   5.588 -0.3457  2.1475  1.0041
 7685TIP3   OH223018   3.949   5.642   3.601  0.3643 -0.3322  0.3121
 7685TIP3    H123019   3.921   5.730   3.575 -1.6589 -1.2632 -0.8331
 7685TIP3    H223020   4.035   5.632   3.560  0.6833  1.1025  0.5411
 7686TIP3   OH223021   1.949   0.372   4.003 -0.0856 -0.0132  0.0717
 7686TIP3    H123022   2.021   0.331   4.050 -0.6649 -1.0877  0.0425
 7686TIP3    H223023   1.974   0.464   3.997  1.0538 -0.2796  0.4819
 7687TIP3   OH223024   6.695   1.333   2.314 -0.2886  0.6458  0.1255
 7687TIP3    H123025   6.695   1.421   2.354 -0.3374  0.9560 -0.5462
 7687TIP3    H223026   6.640   1.281   2.372 -0.9886  1.2877  0.0608
 7688TIP3   OH223027   4.042   2.816   1.842  0.3395  0.2404 -0.1845
 7688TIP3    H123028   3.985   2.894   1.849  0.7781  0.6941 -1.4046
 7688TIP3    H223029   4.103   2.825   1.915  0.2147  0.8968 -0.1528
 7689TIP3   OH223030   6.492   3.695   4.355 -0.1647  0.4813  0.7370
 7689TIP3    H123031   6.559   3.754   4.319 -0.0653  0.8210  1.4511
 7689TIP3    H223032   6.442   3.666   4.279  0.3962  0.7291  0.2652
 7690TIP3   OH223033   1.058   2.323   1.976  0.1219  0.3703 -0.0582
 7690TIP3    H123034   1.005   2.378   2.034 -0.4877 -0.2437 -0.0218
 7690TIP3    H223035   1.044   2.359   1.889  1.1074  1.3499  0.1688
 7691TIP3   OH223036   3.539   6.671   1.458  0.2074  0.0231 -0.0638
 7691TIP3    H123037   3.604   6.610   1.423  0.6982  0.6962 -0.3542
 7691TIP3    H223038   3.554   6.670   1.553  2.1546  1.7914 -0.2750
 7692TIP3   OH223039   4.849   5.484   5.096 -0.0002  0.3077 -0.9061
 7692TIP3    H123040   4.805   5.553   5.046  1.8927  1.7777 -0.6603
 7692TIP3    H223041   4.868   5.416   5.031 -0.3173  0.8123 -1.5390
 7693TIP3   OH223042   3.008   2.084   5.560  0.8169  0.5305 -0.1702
 7693TIP3    H123043   3.051   2.154   5.512  1.2032  0.6054  0.2805
 7693TIP3    H223044   3.018   2.109   5.652 -1.1614  1.1436 -0.0724
 7694TIP3   OH223045   0.283   2.352   3.186  0.1404  0.3354  0.0290
 7694TIP3    H123046   0.342   2.396   3.247 -1.3565  0.2727  1.6165
 7694TIP3    H223047   0.257   2.420   3.124  2.2949  0.2152 -1.1011
 7695TIP3   OH223048   5.509   4.910   5.136  0.2522  0.4826 -0.2871
 7695TIP3    H123049   5.460   4.985   5.103  0.2917  0.1315 -1.1818
 7695TIP3    H223050   5.477   4.896   5.225 -0.2693  1.1127 -0.3775
 7696TIP3   OH223051   0.833   1.827   5.057  0.1485  0.0272 -0.4321
 7696TIP3    H123052   0.741   1.850   5.069  0.5370  1.0589  0.7106
 7696TIP3    H223053   0.869   1.899   5.005  0.0982 -0.9176 -1.8554
 7697TIP3   OH223054   6.649   4.493   4.829  0.2239 -0.2009 -0.2560
 7697TIP3    H123055   6.623   4.415   4.781 -0.0185 -0.4503  0.2732
 7697TIP3    H223056   6.598   4.490   4.910  0.7083  0.1558  0.0676
 7698TIP3   OH223057   7.182   0.404   2.024 -0.6965 -0.1045 -0.2884
 7698TIP3    H123058   7.155   0.417   2.115  0.0865 -0.4570 -0.0017
 7698TIP3    H223059   7.151   0.482   1.978  0.8429  1.1309  0.6989
 7699TIP3   OH223060   3.582   1.336   0.473 -0.6801 -1.0510  0.1711
 7699TIP3    H123061   3.630   1.293   0.403 -0.7226  0.5004 -0.8541
 7699TIP3    H223062   3.628   1.418   0.488 -2.4113  0.0486 -0.1927
 7700TIP3   OH223063   6.932   2.011   2.107  0.2233  0.2791  0.1244
 7700TIP3    H123064   6.838   2.028   2.112  0.0165 -0.7697  0.0432
 7700TIP3    H223065   6.959   2.054   2.026 -0.0226  1.2425  0.5300
 7701TIP3   OH223066   1.569   6.467   5.311  0.4355  0.5817  0.0328
 7701TIP3    H123067   1.525   6.460   5.396  3.6886  1.6554  2.0176
 7701TIP3    H223068   1.592   6.377   5.288  0.5541  0.3717  0.9296
 7702TIP3   OH223069   5.378   2.030   1.139  0.0453 -0.4443  0.4208
 7702TIP3    H123070   5.399   1.999   1.051  0.0534  0.5476  0.0615
 7702TIP3    H223071   5.462   2.063   1.172 -0.4291  1.5136 -0.1849
 7703TIP3   OH223072   4.181   3.120   4.339 -0.2332  0.1243 -0.2079
 7703TIP3    H123073   4.212   3.204   4.304  0.9062 -0.0594  0.2994
 7703TIP3    H223074   4.147   3.141   4.426 -0.0609  0.0892 -0.1303
 7704TIP3   OH223075   4.545   6.682   4.334  0.2911  0.6852 -0.2518
 7704TIP3    H123076   4.635   6.657   4.357  0.1244  0.9005  0.6907
 7704TIP3    H223077   4.491   6.612   4.372  0.0679  0.4762 -0.9463
 7705TIP3   OH223078   1.302   4.468   1.537  0.3506 -0.2791 -0.2330
 7705TIP3    H123079   1.240   4.507   1.475 -0.4957 -0.7865  0.2829
 7705TIP3    H223080   1.370   4.429   1.482  0.6660  0.9964 -0.7839
 7706TIP3   OH223081   2.658   1.518   5.555  0.9258 -0.1727  0.8660
 7706TIP3    H123082   2.638   1.438   5.603 -0.4776 -0.3954 -0.0502
 7706TIP3    H223083   2.620   1.588   5.609 -2.1469 -0.5518 -0.6167
 7707TIP3   OH223084   5.199   2.129   0.812 -0.1866 -0.0128  0.2474
 7707TIP3    H123085   5.176   2.190   0.883 -1.4093 -2.1728  1.8337
 7707TIP3    H223086   5.131   2.142   0.747 -0.2951  0.4882  0.4537
 7708TIP3   OH223087   5.805   0.927   2.347  0.4572 -0.6473 -1.2169
 7708TIP3    H123088   5.812   1.022   2.353 -0.2833 -0.6241 -0.5202
 7708TIP3    H223089   5.742   0.904   2.416  0.6463 -1.6390 -1.3695
 7709TIP3   OH223090   0.549   3.941   0.743  0.0903 -0.3762 -0.4130
 7709TIP3    H123091   0.629   3.938   0.690  0.0953 -1.0967 -0.3840
 7709TIP3    H223092   0.580   3.967   0.830 -0.0847  2.0905 -1.0109
 7710TIP3   OH223093   0.668   6.657   5.054  0.3375  0.1961 -0.0224
 7710TIP3    H123094   0.615   6.737   5.049  0.0715  0.1086  1.1434
 7710TIP3    H223095   0.605   6.586   5.062  0.5802 -0.1196 -0.8141
 7711TIP3   OH223096   3.062   1.098   0.933  0.2512 -0.0759 -0.0413
 7711TIP3    H123097   3.069   1.190   0.910 -0.5549  0.2646  1.0225
 7711TIP3    H223098   3.018   1.058   0.858  1.1985  0.2588 -0.7985
 7712TIP3   OH223099   6.996   4.476   5.573  0.1319  0.2910 -0.0445
 7712TIP3    H123100   7.050   4.420   5.628  0.4451 -0.3844 -1.0057
 7712TIP3    H223101   7.058   4.528   5.522 -0.1114 -0.2931 -0.9601
 7713TIP3   OH223102   4.065   3.063   5.556 -0.7953  0.0499 -0.2238
 7713TIP3    H123103   4.129   3.027   5.617 -0.3473  3.2639  1.3945
 7713TIP3    H223104   3.984   3.069   5.606 -1.2463 -0.0683 -0.9166
 7714TIP3   OH223105   2.160   0.994   3.976  0.3485 -0.0120  0.5019
 7714TIP3    H123106   2.179   1.020   3.886  1.5416  0.3998  0.8512
 7714TIP3    H223107   2.110   1.067   4.012  0.5628  0.1846  0.4069
 7715TIP3   OH223108   2.381   0.875   3.159 -0.1433 -0.1293  0.4071
 7715TIP3    H123109   2.363   0.952   3.212  0.6872 -0.4948  1.2611
 7715TIP3    H223110   2.424   0.814   3.219  2.8647  0.2659 -1.1554
 7716TIP3   OH223111   6.658   0.060   1.949 -0.3803  0.2369  0.8502
 7716TIP3    H123112   6.685   0.143   1.987 -2.4559  0.6489  1.5674
 7716TIP3    H223113   6.641   0.080   1.857  3.8073 -0.5703 -0.3143
 7717TIP3   OH223114   6.646   2.393   5.742  0.5593 -0.4823  0.3855
 7717TIP3    H123115   6.664   2.313   5.790  1.6341 -1.5488 -1.6502
 7717TIP3    H223116   6.730   2.439   5.737  0.6808 -0.8055 -1.0972
 7718TIP3   OH223117   3.838   5.640   0.154  0.0947  0.2188  0.0421
 7718TIP3    H123118   3.930   5.614   0.141  0.1266 -0.9127  2.0954
 7718TIP3    H223119   3.790   5.557   0.155 -0.9272  0.7824 -0.6881
 7719TIP3   OH223120   0.165   1.894   2.070  0.1404  0.8666 -0.4634
 7719TIP3    H123121   0.116   1.813   2.080 -1.6719  2.0237  0.4125
 7719TIP3    H223122   0.107   1.952   2.021  0.7701  2.1739  0.2851
 7720TIP3   OH223123   2.324   0.625   0.497  0.2638  0.4526  0.0718
 7720TIP3    H123124   2.361   0.643   0.583  1.3245 -3.1602  0.5438
 7720TIP3    H223125   2.396   0.587   0.447 -1.4722 -2.3696 -0.5717
 7721TIP3   OH223126   6.678   2.043   4.376  0.0152  0.0497  0.1744
 7721TIP3    H123127   6.742   2.036   4.305  0.1367 -0.3931  0.3272
 7721TIP3    H223128   6.626   1.963   4.370  1.0563 -0.7623  1.5778
 7722TIP3   OH223129   6.960   1.381   1.804 -0.2488  0.2381 -0.1022
 7722TIP3    H123130   7.007   1.379   1.721  0.1124 -0.8765  0.1106
 7722TIP3    H223131   6.944   1.289   1.825 -1.3232  0.5479  0.5090
 7723TIP3   OH223132   2.535   5.978   2.017  0.1354 -0.1942 -0.1074
 7723TIP3    H123133   2.624   5.951   2.041 -0.3129 -0.7088  1.0877
 7723TIP3    H223134   2.491   5.896   1.994 -0.7398 -0.3474  1.8547
 7724TIP3   OH223135   1.122   4.088   2.610  0.0427 -0.5424 -0.0174
 7724TIP3    H123136   1.204   4.084   2.561  0.7757 -1.9005  1.2440
 7724TIP3    H223137   1.094   3.997   2.618 -0.3396 -0.3139  1.5615
 7725TIP3   OH223138   6.882   3.445   0.968  0.1278 -0.4381  0.1341
 7725TIP3    H123139   6.877   3.350   0.975  1.1522 -0.4154  1.5389
 7725TIP3    H223140   6.916   3.474   1.052 -0.4894  1.2143 -0.1465
 7726TIP3   OH223141   0.658   5.597   5.784 -0.4295  0.1943  0.3361
 7726TIP3    H123142   0.591   5.666   5.785 -0.6579 -0.0275  0.9528
 7726TIP3    H223143   0.717   5.622   5.713 -0.1754  1.3457  0.9271
 7727TIP3   OH223144   7.147   5.230   0.890  0.1127 -0.1817  0.1666
 7727TIP3    H123145   7.102   5.147   0.875 -0.9634  0.5550 -0.7893
 7727TIP3    H223146   7.237   5.214   0.859  0.0300 -1.1077  0.3855
 7728TIP3   OH223147   0.615   0.291   5.823 -0.2914 -0.5374  0.1395
 7728TIP3    H123148   0.553   0.348   5.869  0.7545 -0.5409  1.6553
 7728TIP3    H223149   0.573   0.271   5.740 -1.2186  1.4760  0.0694
 7729TIP3   OH223150   6.743   2.815   1.299  0.1084  0.1831 -0.2052
 7729TIP3    H123151   6.778   2.827   1.387  2.0751  0.4218 -0.9743
 7729TIP3    H223152   6.724   2.722   1.293 -1.1268  0.3383  0.8168
 7730TIP3   OH223153   1.362   1.080   2.908  0.6132 -0.0481  0.2051
 7730TIP3    H123154   1.345   1.129   2.828  1.4640  0.2479  0.1977
 7730TIP3    H223155   1.286   1.022   2.917  1.2446 -1.2708 -1.6999
 7731TIP3   OH223156   5.423   0.146   2.360 -0.9582  0.4286  0.5468
 7731TIP3    H123157   5.443   0.229   2.403 -0.3216  0.7461 -0.3525
 7731TIP3    H223158   5.335   0.125   2.391 -0.7879  0.9936  1.4647
 7732TIP3   OH223159   4.456   4.938   1.526  0.3883  0.7997  0.0695
 7732TIP3    H123160   4.469   4.982   1.610  1.8593  0.2322  0.1705
 7732TIP3    H223161   4.544   4.916   1.496 -0.1100  0.7806 -1.5288
 7733TIP3   OH223162   3.382   2.855   4.118  1.2605 -0.3885 -0.5162
 7733TIP3    H123163   3.419   2.779   4.073  1.7326 -0.9493  0.7913
 7733TIP3    H223164   3.452   2.885   4.176 -0.0548 -1.0622  1.5186
 7734TIP3   OH223165   6.132   0.109   4.664 -0.4929  0.1136 -0.0323
 7734TIP3    H123166   6.196   0.135   4.731 -1.2095 -0.5174  0.9143
 7734TIP3    H223167   6.108   0.191   4.621 -0.0845  0.5445  0.5364
 7735TIP3   OH223168   5.245   2.745   5.369  0.2946  0.0809  0.2990
 7735TIP3    H123169   5.329   2.763   5.327  0.5248  2.3959  1.5986
 7735TIP3    H223170   5.263   2.672   5.428  1.2591  0.1784  0.1452
 7736TIP3   OH223171   5.450   0.493   3.757  0.0370  0.5476  0.3285
 7736TIP3    H123172   5.543   0.504   3.778 -0.0207  0.2775  0.7295
 7736TIP3    H223173   5.438   0.545   3.678  0.4396  0.9259  0.5070
 7737TIP3   OH223174   5.147   2.266   3.855 -0.1147 -0.5835  0.0043
 7737TIP3    H123175   5.068   2.233   3.813  0.2758 -2.0985  0.3852
 7737TIP3    H223176   5.219   2.226   3.805  0.3660 -1.1416  1.0960
 7738TIP3   OH223177   3.351   2.527   5.440  0.0264  0.1114  0.6118
 7738TIP3    H123178   3.391   2.611   5.418  0.0844  0.1651  0.9227
 7738TIP3    H223179   3.258   2.539   5.422 -0.1752  0.6706  1.9034
 7739TIP3   OH223180   3.545   1.934   4.133 -0.9451 -0.4002 -0.2182
 7739TIP3    H123181   3.524   2.006   4.192 -1.9910 -1.7557  1.1292
 7739TIP3    H223182   3.615   1.968   4.077  1.4707  0.3434  3.0113
 7740TIP3   OH223183   1.993   0.551   5.524 -0.3593  0.6584  0.4032
 7740TIP3    H123184   2.015   0.584   5.610  1.2414 -0.1181  0.3184
 7740TIP3    H223185   2.070   0.568   5.470 -1.3546  1.1979 -0.9119
 7741TIP3   OH223186   5.869   0.723   0.215 -0.3548  0.6533 -0.0137
 7741TIP3    H123187   5.949   0.679   0.187 -0.2781  0.8855 -0.1555
 7741TIP3    H223188   5.891   0.816   0.218 -0.0199  0.5599  1.9597
 7742TIP3   OH223189   2.084   6.759   3.256  0.2764  0.3181 -0.4097
 7742TIP3    H123190   2.016   6.732   3.317  1.4414 -0.3084  0.6660
 7742TIP3    H223191   2.109   6.679   3.210 -0.3568  0.7229 -1.5055
 7743TIP3   OH223192   6.049   0.780   5.093  0.5693 -0.3051 -0.1445
 7743TIP3    H123193   6.081   0.699   5.133 -0.0363 -1.2604 -1.5029
 7743TIP3    H223194   6.054   0.845   5.163  3.1089 -0.9654  0.3926
 7744TIP3   OH223195   5.963   0.048   4.876 -0.4029 -0.2162 -0.6950
 7744TIP3    H123196   6.006   0.056   4.791  0.1712  2.2512 -0.2711
 7744TIP3    H223197   5.955  -0.046   4.891  0.4126 -0.7077 -2.9978
 7745TIP3   OH223198   4.071   3.514   3.362  0.5217  0.0104 -0.1467
 7745TIP3    H123199   4.048   3.589   3.417 -0.2146  0.1176 -0.5974
 7745TIP3    H223200   4.164   3.499   3.380  1.1291  2.1091 -1.3484
 7746TIP3   OH223201   2.785   2.090   4.508  0.2707 -0.4229  0.1129
 7746TIP3    H123202   2.775   2.184   4.523 -1.1502 -0.8381  2.2160
 7746TIP3    H223203   2.707   2.051   4.548  0.2621 -2.4414 -1.6852
 7747TIP3   OH223204   3.264   0.161   4.369  0.3361 -0.4192  0.6997
 7747TIP3    H123205   3.337   0.212   4.404 -0.1593  1.2416 -0.5371
 7747TIP3    H223206   3.272   0.170   4.274 -2.2631  1.0852  0.5270
 7748TIP3   OH223207   6.842   3.727   3.611  0.5317  0.3246 -0.8371
 7748TIP3    H123208   6.850   3.765   3.524  1.5648 -0.7698 -1.2529
 7748TIP3    H223209   6.867   3.635   3.599 -0.3382 -0.1057  0.4223
 7749TIP3   OH223210   2.077   2.636   5.606 -0.3623 -0.2925 -0.4407
 7749TIP3    H123211   2.049   2.713   5.557  0.4567  0.3255  0.0256
 7749TIP3    H223212   2.093   2.569   5.540 -0.7547  0.0435 -0.8806
 7750TIP3   OH223213   1.755   1.231   0.407 -0.7474  0.2677  0.1555
 7750TIP3    H123214   1.757   1.266   0.496  2.4985  0.8212 -0.0183
 7750TIP3    H223215   1.804   1.149   0.412 -0.8259  0.1308 -1.0449
 7751TIP3   OH223216   2.311   5.174   5.793 -0.6121 -0.2950 -0.0652
 7751TIP3    H123217   2.233   5.211   5.834  0.1518  1.9091 -0.4719
 7751TIP3    H223218   2.376   5.173   5.863 -0.4260 -0.1952 -0.2358
 7752TIP3   OH223219   4.857   0.936   0.262 -0.4319  0.5422  0.2996
 7752TIP3    H123220   4.876   1.029   0.272  2.9718 -0.0081 -0.0694
 7752TIP3    H223221   4.876   0.897   0.347  1.7610 -0.2564 -0.4833
 7753TIP3   OH223222   4.319   5.624   3.831  0.2792 -0.4237 -0.1687
 7753TIP3    H123223   4.244   5.566   3.845  0.5477 -1.0798 -1.3229
 7753TIP3    H223224   4.321   5.637   3.736  0.6742  0.8881  0.0073
 7754TIP3   OH223225   0.932   2.433   4.967 -0.0679  0.1592  0.2526
 7754TIP3    H123226   0.975   2.436   4.882  0.2534  1.1082  0.4390
 7754TIP3    H223227   0.954   2.516   5.009 -0.3315 -0.2321  1.2126
 7755TIP3   OH223228   5.201   2.865   3.784  0.3471 -0.4323 -0.8090
 7755TIP3    H123229   5.271   2.894   3.726  0.8004  2.0928  0.8455
 7755TIP3    H223230   5.222   2.774   3.804  2.1975 -0.2433 -1.7057
 7756TIP3   OH223231   3.699   0.102   0.706  0.0033  0.1916 -0.2318
 7756TIP3    H123232   3.775   0.049   0.681  0.0730 -0.6415  1.6258
 7756TIP3    H223233   3.625   0.057   0.665  0.0868 -1.3004  1.1631
 7757TIP3   OH223234   6.344   4.389   1.044  0.5454 -0.0861  0.2775
 7757TIP3    H123235   6.269   4.384   0.984  0.2246 -0.7970  0.7242
 7757TIP3    H223236   6.316   4.449   1.113  1.4776  1.9520 -1.0323
 7758TIP3   OH223237   5.787   4.932   2.784 -0.0253  0.2420  0.4716
 7758TIP3    H123238   5.799   4.862   2.848  0.5551  0.0257  0.1288
 7758TIP3    H223239   5.839   5.005   2.818  1.9638 -0.5319 -0.7596
 7759TIP3   OH223240   2.899   4.826   0.774 -0.1072 -0.2834  0.2234
 7759TIP3    H123241   2.845   4.757   0.735 -1.4545  0.8142  0.0730
 7759TIP3    H223242   2.888   4.815   0.869 -2.7688  1.4959  0.2134
 7760TIP3   OH223243   4.985   1.946   2.324  0.4301 -0.8669 -0.3690
 7760TIP3    H123244   5.076   1.965   2.300  0.4944  0.4942  0.8732
 7760TIP3    H223245   4.934   1.982   2.252  0.8144 -0.6289 -0.5269
 7761TIP3   OH223246   6.476   0.956   0.493  0.0584  1.1236 -0.0459
 7761TIP3    H123247   6.480   0.902   0.572 -0.8545 -1.5086 -1.6723
 7761TIP3    H223248   6.565   0.952   0.457 -0.4530 -1.2514 -1.2666
 7762TIP3   OH223249   0.883   0.480   0.143  0.0848  0.0139  0.5509
 7762TIP3    H123250   0.920   0.512   0.225  1.5282 -0.0308 -0.0399
 7762TIP3    H223251   0.902   0.386   0.144  0.9204  0.1592 -0.2062
 7763TIP3   OH223252   2.219   6.359   3.831  0.4501  0.6523  0.5822
 7763TIP3    H123253   2.228   6.452   3.809 -0.3788  0.5914 -0.0553
 7763TIP3    H223254   2.128   6.350   3.858 -0.0261 -0.3133 -1.1596
 7764TIP3   OH223255   1.836   3.617   0.605  0.4290 -0.1569  0.2713
 7764TIP3    H123256   1.819   3.704   0.570  1.2790 -1.0553 -2.6829
 7764TIP3    H223257   1.918   3.625   0.653  1.0561  0.4899 -0.8733
 7765TIP3   OH223258   4.278   6.561   4.638  0.8198  0.2883 -0.1316
 7765TIP3    H123259   4.273   6.564   4.734 -1.3091 -0.6311 -0.1573
 7765TIP3    H223260   4.288   6.653   4.612 -2.9730  1.1485  0.8980
 7766TIP3   OH223261   6.086   1.643   2.891  0.1226 -0.0856  0.6975
 7766TIP3    H123262   6.157   1.625   2.829 -1.6438 -0.1662 -1.4552
 7766TIP3    H223263   6.093   1.575   2.957  1.1447 -0.9949 -0.3036
 7767TIP3   OH223264   5.654   6.238   3.707  0.4149  0.6125 -0.5611
 7767TIP3    H123265   5.632   6.329   3.687  1.3298  0.7789 -0.8543
 7767TIP3    H223266   5.711   6.210   3.635  1.0106  0.1542  0.0652
 7768TIP3   OH223267   4.355   3.382   4.423  0.4005  0.0799 -0.3742
 7768TIP3    H123268   4.420   3.392   4.354  2.1993 -0.5648  1.1664
 7768TIP3    H223269   4.309   3.467   4.425  2.3724  1.2010 -0.3442
 7769TIP3   OH223270   1.320   5.267   0.973  0.3511 -0.0345 -0.1746
 7769TIP3    H123271   1.225   5.276   0.981  0.2679 -0.0919 -1.0121
 7769TIP3    H223272   1.332   5.186   0.924  0.7386  1.2057 -2.2130
 7770TIP3   OH223273   0.636   2.374   1.558 -0.2612  0.8064 -0.0971
 7770TIP3    H123274   0.667   2.438   1.622  2.8567 -0.2160 -0.3883
 7770TIP3    H223275   0.709   2.312   1.549 -1.6921 -0.7066 -2.5348
 7771TIP3   OH223276   6.317   3.323   2.746 -0.4930  0.2438  0.0326
 7771TIP3    H123277   6.403   3.289   2.769  0.1500  2.4773  1.1940
 7771TIP3    H223278   6.256   3.270   2.797  0.1547 -1.2605 -0.6765
 7772TIP3   OH223279   4.709   5.970   2.206  0.2669 -0.6855  0.8515
 7772TIP3    H123280   4.680   6.000   2.120 -0.7553 -1.5195  0.8774
 7772TIP3    H223281   4.634   5.986   2.263  0.5790 -1.0397  1.3700
 7773TIP3   OH223282   2.042   4.186   3.857  0.3242  0.5996  0.5691
 7773TIP3    H123283   2.020   4.126   3.928  0.7913  2.1959  2.1453
 7773TIP3    H223284   2.080   4.262   3.901  0.3909  1.7684 -1.3854
 7774TIP3   OH223285   1.419   5.707   0.671 -0.1518  0.3588  0.5775
 7774TIP3    H123286   1.359   5.673   0.605  1.1437 -0.7959 -0.0379
 7774TIP3    H223287   1.423   5.639   0.738  0.5514  0.3600  0.5487
 7775TIP3   OH223288   0.130   3.432   4.903 -0.3699 -0.5023 -0.3915
 7775TIP3    H123289   0.164   3.342   4.901 -0.3086 -0.4647 -1.8653
 7775TIP3    H223290   0.055   3.431   4.844 -0.4652  0.3810 -0.2980
 7776TIP3   OH223291   2.310   2.771   1.362 -0.4088  0.0901  0.2161
 7776TIP3    H123292   2.283   2.682   1.384 -0.3259  0.5015  2.0972
 7776TIP3    H223293   2.238   2.826   1.393  0.3915  0.8178  0.8335
 7777TIP3   OH223294   7.031   0.232   1.313  0.6620  0.3309 -0.0982
 7777TIP3    H123295   7.068   0.300   1.370  1.3016  0.5499 -0.7620
 7777TIP3    H223296   7.078   0.242   1.230 -1.0449  0.7541 -1.0597
 7778TIP3   OH223297   1.359   0.500   1.378  0.0051  0.3155  0.2810
 7778TIP3    H123298   1.405   0.418   1.393 -1.0037 -0.3424 -0.0919
 7778TIP3    H223299   1.302   0.509   1.454  0.6398  1.0504  0.6748
 7779TIP3   OH223300   4.308   6.577   0.691  0.5798 -0.5502 -0.2945
 7779TIP3    H123301   4.373   6.640   0.661 -0.8862  1.7749  1.0973
 7779TIP3    H223302   4.250   6.566   0.616 -0.0969  1.1413 -0.0636
 7780TIP3   OH223303   2.171   0.911   3.428 -0.3785  0.1021  0.1055
 7780TIP3    H123304   2.246   0.967   3.409 -0.0310 -1.3992 -3.7386
 7780TIP3    H223305   2.202   0.851   3.495  0.5846  1.7749  1.2396
 7781TIP3   OH223306   1.479   5.694   5.274  0.2285 -0.6705 -0.6864
 7781TIP3    H123307   1.451   5.764   5.215 -0.6320 -1.0568 -0.7512
 7781TIP3    H223308   1.570   5.677   5.249  1.0799  1.6477  0.5380
 7782TIP3   OH223309   5.912   1.683   0.509 -0.2304  0.2356  0.4577
 7782TIP3    H123310   5.971   1.725   0.446  0.4250 -0.8440  0.3254
 7782TIP3    H223311   5.912   1.590   0.484 -1.0793  0.0314  1.1743
 7783TIP3   OH223312   5.901   5.043   4.262 -0.1147  0.0825 -0.0477
 7783TIP3    H123313   5.841   5.051   4.188  0.6421  0.5519 -0.6261
 7783TIP3    H223314   5.876   5.115   4.320  0.5419  0.9246 -0.7776
 7784TIP3   OH223315   3.968   2.340   1.747 -0.3418 -0.6978 -0.2375
 7784TIP3    H123316   4.048   2.336   1.695 -0.6337  1.4335 -0.9397
 7784TIP3    H223317   3.935   2.429   1.733 -2.2581 -1.1853  0.8970
 7785TIP3   OH223318   3.434   4.196   1.125  0.4602  0.1501 -0.3060
 7785TIP3    H123319   3.473   4.206   1.038  0.6882 -2.7252 -0.6403
 7785TIP3    H223320   3.468   4.270   1.175  3.0303  0.0837 -1.7515
 7786TIP3   OH223321   7.038   1.800   3.966  0.2265 -0.0003 -0.0406
 7786TIP3    H123322   7.068   1.756   3.886  0.6696 -0.0425  0.1440
 7786TIP3    H223323   7.119   1.825   4.011 -0.0150 -0.4110  0.6375
 7787TIP3   OH223324   5.259   5.186   3.061 -0.3117  0.2658 -0.0082
 7787TIP3    H123325   5.172   5.202   3.097 -1.1830 -0.6913 -1.6117
 7787TIP3    H223326   5.244   5.151   2.974  1.6753 -0.8011  0.0116
 7788TIP3   OH223327   2.116   3.311   5.169 -0.0350  0.4388  0.5885
 7788TIP3    H123328   2.038   3.266   5.136 -0.4137  0.5636  1.2788
 7788TIP3    H223329   2.140   3.372   5.100 -2.4810  2.7330  1.5805
 7789TIP3   OH223330   5.835   0.146   1.469  0.1673  0.0183 -0.2179
 7789TIP3    H123331   5.752   0.170   1.510  0.3499 -1.8587  1.4038
 7789TIP3    H223332   5.835   0.050   1.469  2.1283 -0.0279 -0.6122
 7790TIP3   OH223333   0.982   0.827   2.779 -0.6213 -0.4797 -0.2859
 7790TIP3    H123334   1.026   0.861   2.701 -0.6170 -0.8896 -0.4652
 7790TIP3    H223335   0.933   0.901   2.813 -2.6193 -0.8971 -2.0711
 7791TIP3   OH223336   2.878   1.747   4.596  0.1242 -0.4492 -0.0056
 7791TIP3    H123337   2.941   1.766   4.526  0.2570  0.4385  0.3383
 7791TIP3    H223338   2.928   1.759   4.677 -0.2047 -0.8139  0.2565
 7792TIP3   OH223339   1.450   5.523   0.022 -0.1038  0.6064 -0.2466
 7792TIP3    H123340   1.407   5.601  -0.013 -0.3531  0.2378 -0.7622
 7792TIP3    H223341   1.543   5.546   0.025 -0.2592  1.1867  0.2997
 7793TIP3   OH223342   1.791   5.015   5.687 -0.1309 -0.1432  0.2342
 7793TIP3    H123343   1.830   5.101   5.702  0.3901 -0.5256  1.2295
 7793TIP3    H223344   1.718   5.011   5.749 -0.7766 -0.0420 -0.5097
 7794TIP3   OH223345   5.369   6.687   0.401  0.1962 -0.3929  0.1008
 7794TIP3    H123346   5.350   6.652   0.488 -1.2341 -1.5242 -0.6272
 7794TIP3    H223347   5.314   6.765   0.394 -0.9062 -1.1869 -0.3484
 7795TIP3   OH223348   6.006   1.007   2.673  0.3114  0.6354  0.2122
 7795TIP3    H123349   6.003   1.088   2.725 -1.5579  1.9775 -1.8078
 7795TIP3    H223350   6.062   1.029   2.599 -1.7570  0.8379 -1.3824
 7796TIP3   OH223351   6.534   3.792   1.568 -0.2130 -0.1315  0.3595
 7796TIP3    H123352   6.504   3.760   1.483 -0.9025  0.5909  0.3244
 7796TIP3    H223353   6.608   3.850   1.548 -0.2040 -0.1727  0.2751
 7797TIP3   OH223354   7.035   0.522   3.689  0.0094  0.3091 -0.2713
 7797TIP3    H123355   6.974   0.486   3.624  0.8152  0.9480 -1.4179
 7797TIP3    H223356   6.989   0.598   3.725  0.1087  0.8022 -1.1473
 7798TIP3   OH223357   1.904   5.684   1.099 -0.0407  0.0916 -0.6823
 7798TIP3    H123358   1.927   5.603   1.145 -0.1827  0.5567  0.2406
 7798TIP3    H223359   1.811   5.676   1.078 -0.1309  0.1453 -0.3068
 7799TIP3   OH223360   4.050   1.791   3.697 -0.2586 -0.8219 -0.5633
 7799TIP3    H123361   4.065   1.780   3.603 -1.1620 -0.9029 -0.7104
 7799TIP3    H223362   3.971   1.741   3.714  0.4223 -1.5844  0.4331
 7800TIP3   OH223363   3.128   4.796   2.201  0.2268 -0.1281  0.1780
 7800TIP3    H123364   3.176   4.781   2.283  0.9499  0.8608 -0.0487
 7800TIP3    H223365   3.077   4.874   2.216  1.3352  0.8078 -0.7030
 7801TIP3   OH223366   5.850   3.161   3.714 -0.0015 -0.4306  0.5030
 7801TIP3    H123367   5.806   3.079   3.693  0.4842 -0.1651 -1.8159
 7801TIP3    H223368   5.942   3.145   3.695  0.1530  0.5348  0.3898
 7802TIP3   OH223369   7.006   1.479   0.340 -0.0129  0.6988 -0.7736
 7802TIP3    H123370   7.014   1.560   0.288 -0.6140  0.1188 -1.7993
 7802TIP3    H223371   6.958   1.419   0.283  0.6007 -0.4534 -0.0987
 7803TIP3   OH223372   0.067   1.816   3.277  0.0307 -0.4170  0.0887
 7803TIP3    H123373   0.081   1.808   3.371 -1.0738 -2.3371  0.1357
 7803TIP3    H223374   0.090   1.907   3.257  0.3842 -0.0002  2.1736
 7804TIP3   OH223375   5.557   1.372   5.664  0.6521  0.1225  0.6623
 7804TIP3    H123376   5.514   1.456   5.683  0.6280  0.6248 -1.4298
 7804TIP3    H223377   5.629   1.367   5.727  0.2695  1.4050  1.2317
 7805TIP3   OH223378   4.792   2.568   2.445 -0.0873 -0.2723 -0.1033
 7805TIP3    H123379   4.829   2.499   2.391  0.7342  0.4338 -0.4607
 7805TIP3    H223380   4.853   2.577   2.518  1.2821  1.8549 -1.4138
 7806TIP3   OH223381   6.178   6.359   3.993  0.2895 -0.5341 -0.1010
 7806TIP3    H123382   6.192   6.348   4.087  0.8475 -0.5169 -0.1821
 7806TIP3    H223383   6.093   6.403   3.987 -0.9558 -2.7169  0.3140
 7807TIP3   OH223384   1.941   2.051   2.740 -0.6242 -0.7895  0.0883
 7807TIP3    H123385   1.863   2.081   2.788  0.6503 -1.5126  2.7571
 7807TIP3    H223386   1.906   1.989   2.675 -2.4315  0.3210 -0.0830
 7808TIP3   OH223387   3.193   2.041   4.915 -0.1056 -0.7240  0.3389
 7808TIP3    H123388   3.287   2.057   4.909  0.0772 -0.8316  2.3436
 7808TIP3    H223389   3.153   2.114   4.869  0.9391 -0.8889 -0.9007
 7809TIP3   OH223390   5.624   3.652   4.187 -0.4529  0.0962 -0.2167
 7809TIP3    H123391   5.704   3.653   4.134 -0.4631 -2.2166 -0.3456
 7809TIP3    H223392   5.565   3.712   4.141 -0.4671 -1.8140 -2.9403
 7810TIP3   OH223393   5.257   2.338   5.819  0.4503 -0.0776  0.3976
 7810TIP3    H123394   5.193   2.389   5.770 -0.3117 -2.1932 -0.9593
 7810TIP3    H223395   5.232   2.349   5.911 -1.9326 -0.8976 -0.0871
 7811TIP3   OH223396   2.866   5.474   0.885  0.1220  0.3314 -0.0595
 7811TIP3    H123397   2.893   5.524   0.807  0.0841 -0.8282 -0.8469
 7811TIP3    H223398   2.771   5.481   0.886  0.1206  0.3281 -0.1310
 7812TIP3   OH223399   5.379   6.666   1.957 -0.6919 -0.4173  0.8932
 7812TIP3    H123400   5.369   6.585   2.007 -0.3154 -0.6155  0.6532
 7812TIP3    H223401   5.376   6.638   1.866  0.6451 -0.3214  0.8087
 7813TIP3   OH223402   1.996   6.615   5.776 -0.1049  0.5488 -0.2614
 7813TIP3    H123403   2.010   6.521   5.766 -0.9432  0.4134 -0.1987
 7813TIP3    H223404   2.003   6.630   5.871  1.6365  0.8269 -0.3987
 7814TIP3   OH223405   3.196   0.523   2.523  0.0234 -0.5037 -0.1198
 7814TIP3    H123406   3.269   0.570   2.484 -0.0997  1.0931  1.4551
 7814TIP3    H223407   3.224   0.502   2.612 -1.5051  0.4336  0.6362
 7815TIP3   OH223408   5.531   2.404   5.868  0.1488 -0.3837 -0.0914
 7815TIP3    H123409   5.584   2.411   5.789  1.0509 -3.4408  0.1048
 7815TIP3    H223410   5.441   2.410   5.837  0.3550 -3.8258 -1.8621
 7816TIP3   OH223411   3.844   3.005   1.462  0.5917  0.2430  0.4372
 7816TIP3    H123412   3.831   3.076   1.399 -3.4257  0.0719  0.7686
 7816TIP3    H223413   3.858   2.927   1.408  0.9458  0.6636 -0.0845
 7817TIP3   OH223414   0.491   0.310   1.368  0.4109  0.1859 -0.1970
 7817TIP3    H123415   0.535   0.330   1.285  0.7774  0.9192  0.1634
 7817TIP3    H223416   0.546   0.242   1.408 -0.3401 -0.9408 -1.0131
 7818TIP3   OH223417   4.465   1.974   1.913  0.4727 -0.0116  0.4368
 7818TIP3    H123418   4.434   2.063   1.896 -0.6673 -0.4447  0.1457
 7818TIP3    H223419   4.405   1.918   1.864  1.9088 -0.8972 -0.3929
 7819TIP3   OH223420   1.685   6.409   0.947 -0.3755 -0.0316 -0.3403
 7819TIP3    H123421   1.610   6.376   0.996 -0.2301 -1.1548 -0.8480
 7819TIP3    H223422   1.647   6.456   0.873 -0.5749  0.1085 -0.1517
 7820TIP3   OH223423   4.166   0.181   4.629 -0.3061 -0.4992  0.3832
 7820TIP3    H123424   4.237   0.237   4.596 -1.0662 -1.3747 -3.2328
 7820TIP3    H223425   4.099   0.243   4.658  0.4926  0.3911  0.3885
 7821TIP3   OH223426   2.038   1.336   2.969  0.3322 -0.0842  0.0764
 7821TIP3    H123427   2.030   1.276   2.895 -0.9404 -0.5913  0.5997
 7821TIP3    H223428   1.951   1.338   3.009  0.2420  2.3658 -0.0952
 7822TIP3   OH223429   1.955   6.693   3.889 -0.3834 -0.2013  0.2589
 7822TIP3    H123430   1.870   6.722   3.856 -0.1699  0.2674  0.1100
 7822TIP3    H223431   1.986   6.768   3.941  0.4907  0.1170 -0.6977
 7823TIP3   OH223432   2.733   1.204   3.077  0.5989  0.0267 -0.3206
 7823TIP3    H123433   2.725   1.279   3.018 -0.0223  0.5330  0.3900
 7823TIP3    H223434   2.739   1.242   3.165 -0.4993 -0.7652  0.1251
 7824TIP3   OH223435   3.963   3.271   3.495 -0.2532 -0.1409 -0.2321
 7824TIP3    H123436   3.922   3.327   3.561  0.3317 -0.3804  0.3457
 7824TIP3    H223437   3.985   3.330   3.423  1.7108  0.6812  0.9819
 7825TIP3   OH223438   1.641   5.635   3.791 -0.3069  0.2566 -0.3047
 7825TIP3    H123439   1.658   5.674   3.876 -0.0560 -0.5890  0.0441
 7825TIP3    H223440   1.713   5.665   3.736  0.0319  0.0730  0.0322
 7826TIP3   OH223441   6.702   4.652   2.016 -1.4460  0.5344 -0.6835
 7826TIP3    H123442   6.669   4.629   1.929 -0.7263 -2.7181 -0.2205
 7826TIP3    H223443   6.637   4.617   2.077 -0.8675  0.8179  0.1147
 7827TIP3   OH223444   4.844   0.262   4.855  0.2950 -0.7343  0.2076
 7827TIP3    H123445   4.914   0.326   4.867 -0.2464  0.0120 -0.4355
 7827TIP3    H223446   4.888   0.182   4.826  0.8970 -0.3322  0.0027
 7828TIP3   OH223447   4.305   6.021   2.833  0.6452 -0.6035 -0.3559
 7828TIP3    H123448   4.260   5.980   2.907 -0.1687 -0.3439 -0.6945
 7828TIP3    H223449   4.373   5.958   2.808 -0.2901 -1.5482 -0.5796
 7829TIP3   OH223450   6.513   1.726   1.807 -0.0849 -0.0633 -0.3332
 7829TIP3    H123451   6.431   1.773   1.791  0.9649  1.8431 -0.4441
 7829TIP3    H223452   6.491   1.660   1.872 -1.0959  2.5595  2.2226
 7830TIP3   OH223453   6.490   2.739   5.537  0.0121  0.1705 -0.3274
 7830TIP3    H123454   6.567   2.713   5.486  0.2307  0.7774 -0.3166
 7830TIP3    H223455   6.447   2.806   5.483 -0.3239  0.0698 -0.1852
 7831TIP3   OH223456   4.727   4.884   3.877  0.0544  0.3094  0.2034
 7831TIP3    H123457   4.650   4.901   3.824  0.8320 -0.0474 -1.0840
 7831TIP3    H223458   4.696   4.892   3.967 -1.7894 -1.1388 -0.2392
 7832TIP3   OH223459   4.211   5.363   4.435 -0.2701  0.9919  0.6862
 7832TIP3    H123460   4.259   5.445   4.443  0.2217  0.6450  1.4468
 7832TIP3    H223461   4.230   5.316   4.516  1.2893 -0.8191 -0.6140
 7833TIP3   OH223462   6.300   2.502   0.258 -0.3523  0.1018  0.0051
 7833TIP3    H123463   6.380   2.449   0.252 -0.1303  0.5639 -1.6748
 7833TIP3    H223464   6.314   2.573   0.196 -1.3683  1.1690  0.9618
 7834TIP3   OH223465   3.562   5.490   1.047  0.0999 -0.0954 -0.2379
 7834TIP3    H123466   3.469   5.467   1.041 -0.0998  0.9943 -1.8714
 7834TIP3    H223467   3.580   5.489   1.141 -1.5627 -0.3129  0.1228
 7835TIP3   OH223468   3.622   4.161   3.677  0.1369  0.3729  0.5785
 7835TIP3    H123469   3.548   4.192   3.729 -0.6452  1.9242 -1.3280
 7835TIP3    H223470   3.582   4.117   3.601  1.1892 -0.0007  0.2214
 7836TIP3   OH223471   1.560   1.518   3.953 -0.2452 -0.3530 -0.2212
 7836TIP3    H123472   1.521   1.449   4.008 -2.8721  1.5175  0.4665
 7836TIP3    H223473   1.524   1.502   3.866 -1.1651  0.3007  0.0195
 7837TIP3   OH223474   2.338   3.424   4.159  0.1052  0.1566 -0.0422
 7837TIP3    H123475   2.296   3.510   4.157  1.0174  0.6310  0.4433
 7837TIP3    H223476   2.358   3.409   4.252  0.5545 -0.2744 -0.2037
 7838TIP3   OH223477   1.570   4.902   2.238  0.4606 -0.5185 -0.0946
 7838TIP3    H123478   1.591   4.944   2.154 -0.2839 -1.1670 -0.6235
 7838TIP3    H223479   1.655   4.875   2.273  0.8396  0.3369 -0.3156
 7839TIP3   OH223480   2.811   5.417   1.317 -0.2152 -0.4234 -0.4771
 7839TIP3    H123481   2.888   5.463   1.284  0.3165 -0.3983  0.7453
 7839TIP3    H223482   2.781   5.364   1.242  0.3407  0.3767 -1.2874
 7840TIP3   OH223483   5.970   2.426   3.213 -0.2127  0.0301  0.0786
 7840TIP3    H123484   6.019   2.383   3.283 -1.8551 -1.4141  0.4120
 7840TIP3    H223485   5.943   2.355   3.155 -1.2040  0.8668 -0.5285
 7841TIP3   OH223486   3.940   5.585   4.850  0.5228 -0.4179 -0.3820
 7841TIP3    H123487   3.912   5.525   4.919 -3.2594  3.0283  1.5888
 7841TIP3    H223488   3.999   5.646   4.894  2.3288 -1.1340 -1.6955
 7842TIP3   OH223489   4.784   2.246   2.392  0.2839 -0.0101  0.1649
 7842TIP3    H123490   4.691   2.261   2.373  0.8562  0.8921 -2.3924
 7842TIP3    H223491   4.823   2.230   2.306  2.3866 -1.1878  1.2711
 7843TIP3   OH223492   5.312   5.811   0.436 -0.2476  0.0710  0.4040
 7843TIP3    H123493   5.294   5.819   0.530  1.3093 -3.1374  1.1043
 7843TIP3    H223494   5.354   5.726   0.427  0.5340  0.6908 -3.1156
 7844TIP3   OH223495   6.037   2.356   5.301  0.6391 -0.4070  0.3119
 7844TIP3    H123496   6.004   2.433   5.348 -0.0585 -0.7670  0.4166
 7844TIP3    H223497   6.061   2.390   5.214  0.0608 -0.1184  0.2575
 7845TIP3   OH223498   3.924   1.053   3.145 -0.0808  0.5074  0.0372
 7845TIP3    H123499   3.888   0.966   3.126  0.9741 -0.1990  1.0881
 7845TIP3    H223500   3.998   1.061   3.085  2.3355 -1.1033  2.5357
 7846TIP3   OH223501   0.754   2.543   3.420 -0.6463  0.5795  0.3646
 7846TIP3    H123502   0.725   2.468   3.368 -1.4343  0.2365  1.2508
 7846TIP3    H223503   0.794   2.603   3.358 -1.4251  0.1189 -0.5968
 7847TIP3   OH223504   2.495   3.787   0.165 -0.6526  0.7702  0.0649
 7847TIP3    H123505   2.548   3.856   0.124 -0.4894  0.4670 -0.2347
 7847TIP3    H223506   2.434   3.835   0.221 -0.3085  1.1418  0.1297
 7848TIP3   OH223507   4.313   6.315   4.238 -0.3204 -0.0243  0.6092
 7848TIP3    H123508   4.277   6.367   4.166 -0.9966 -0.5456  0.5626
 7848TIP3    H223509   4.395   6.279   4.202 -0.9224 -0.7275 -0.1154
 7849TIP3   OH223510   1.114   4.648   1.435 -0.1149 -0.2517 -0.2307
 7849TIP3    H123511   1.180   4.711   1.462 -0.3392 -0.4129  0.7261
 7849TIP3    H223512   1.063   4.631   1.514 -1.8431  0.5055 -1.1136
 7850TIP3   OH223513   0.711   5.222   0.973  0.1037  0.7203 -0.6812
 7850TIP3    H123514   0.702   5.287   1.043  1.1444  1.1070 -0.8997
 7850TIP3    H223515   0.804   5.200   0.973 -0.4405 -1.9681  0.4705
 7851TIP3   OH223516   3.024   3.198   1.574  0.3738 -0.0699  0.3996
 7851TIP3    H123517   3.006   3.107   1.595  1.9660 -0.9509 -1.6419
 7851TIP3    H223518   3.071   3.194   1.491 -0.7222  2.7129 -0.4716
 7852TIP3   OH223519   1.411   3.372   1.276 -0.0518 -0.3836 -0.0984
 7852TIP3    H123520   1.318   3.376   1.255 -0.0469  1.8625  0.1230
 7852TIP3    H223521   1.429   3.453   1.323  1.8153 -1.2541  0.8130
 7853TIP3   OH223522   0.690   1.560   1.867  0.0025 -0.2899  0.0907
 7853TIP3    H123523   0.619   1.622   1.850  1.0748  1.1571  0.6316
 7853TIP3    H223524   0.723   1.536   1.781  0.4220  0.9674 -0.1209
 7854TIP3   OH223525   6.311   5.507   4.570 -0.0360  0.4896  0.0833
 7854TIP3    H123526   6.303   5.599   4.545 -0.0436  0.0221 -1.7518
 7854TIP3    H223527   6.236   5.464   4.529  1.2802 -0.7228 -1.1853
 7855TIP3   OH223528   6.758   0.557   0.570  0.1503 -0.3116  0.4739
 7855TIP3    H123529   6.783   0.645   0.544  0.3203 -0.6938 -0.7438
 7855TIP3    H223530   6.703   0.568   0.647 -1.3055  0.9741 -0.7008
 7856TIP3   OH223531   0.382   1.217   2.752 -0.2959 -0.5207  0.3995
 7856TIP3    H123532   0.425   1.234   2.836  2.3293  0.5150 -1.0333
 7856TIP3    H223533   0.391   1.123   2.738  0.3669 -0.5046  0.7137
 7857TIP3   OH223534   6.622   1.504   3.448 -0.0163  0.1198 -0.4561
 7857TIP3    H123535   6.634   1.435   3.513  1.1342 -0.3620 -1.1567
 7857TIP3    H223536   6.535   1.487   3.411 -0.0318 -0.5339 -0.1427
 7858TIP3   OH223537   6.332   5.699   3.429  0.2892  0.3223 -0.2636
 7858TIP3    H123538   6.253   5.690   3.483  0.5568 -0.6158 -0.0151
 7858TIP3    H223539   6.385   5.765   3.474  1.1665 -1.4738  1.4671
 7859TIP3   OH223540   4.065   3.451   2.303  0.2997 -0.5350 -0.0883
 7859TIP3    H123541   4.019   3.512   2.244 -1.3841  0.0114  1.7056
 7859TIP3    H223542   4.106   3.388   2.244  1.1817  1.6486 -1.9872
 7860TIP3   OH223543   3.865   2.605   1.155  0.9411  0.3314 -0.1190
 7860TIP3    H123544   3.787   2.551   1.166  0.2834  0.9995 -1.3351
 7860TIP3    H223545   3.835   2.695   1.169  1.3711  0.6350 -1.0612
 7861TIP3   OH223546   0.688   4.498   5.646 -0.0459 -0.1032 -0.1821
 7861TIP3    H123547   0.675   4.490   5.741  0.7081  0.1488 -0.0560
 7861TIP3    H223548   0.601   4.478   5.609 -0.6128  0.8214  0.5996
 7862TIP3   OH223549   6.352   2.489   3.970 -0.4092 -0.1847 -0.2766
 7862TIP3    H123550   6.430   2.494   3.915  0.8399  0.6597  1.5245
 7862TIP3    H223551   6.383   2.454   4.053 -2.1988 -1.0591  0.0682
 7863TIP3   OH223552   6.865   1.010   4.798 -0.9385 -0.3184  0.2274
 7863TIP3    H123553   6.958   0.995   4.817 -0.3628  1.1076 -1.1777
 7863TIP3    H223554   6.836   1.070   4.866 -1.1307 -1.5116  1.2397
 7864TIP3   OH223555   1.412   3.554   4.152 -0.1977 -0.4577  0.0176
 7864TIP3    H123556   1.476   3.620   4.182  0.4511  0.1135 -2.3644
 7864TIP3    H223557   1.346   3.605   4.105 -0.2950 -1.3895 -0.8862
 7865TIP3   OH223558   1.177   1.897   2.332 -0.1472 -0.0598  0.4414
 7865TIP3    H123559   1.194   1.865   2.244  0.6432 -1.7211  1.1591
 7865TIP3    H223560   1.177   1.992   2.323  0.0349 -0.1928 -1.3181
 7866TIP3   OH223561   0.106   4.415   0.236  0.2249 -0.6839  0.2064
 7866TIP3    H123562   0.153   4.332   0.237  0.4749 -0.5379  0.7849
 7866TIP3    H223563   0.117   4.451   0.324  1.2686  0.6055 -0.4184
 7867TIP3   OH223564   6.933   4.191   0.282  0.3149 -0.6222 -0.6433
 7867TIP3    H123565   6.876   4.212   0.356  0.1532 -1.0304 -0.6457
 7867TIP3    H223566   6.956   4.099   0.295  0.1394 -0.7495 -1.1934
 7868TIP3   OH223567   3.764   3.366   3.662  0.4810  0.0622  0.1313
 7868TIP3    H123568   3.707   3.439   3.636  0.7706 -0.7329 -3.2245
 7868TIP3    H223569   3.738   3.346   3.752 -1.3978  2.5949  0.2699
 7869TIP3   OH223570   4.959   1.000   4.886 -0.2135  0.3577  0.0004
 7869TIP3    H123571   4.892   1.051   4.931  0.7080  2.5602 -0.9660
 7869TIP3    H223572   4.951   1.027   4.794  1.0696 -0.4056 -0.3585
 7870TIP3   OH223573   3.672   5.138   3.496 -0.0718  0.9679  0.1000
 7870TIP3    H123574   3.744   5.106   3.442 -1.9813  0.2249 -2.1436
 7870TIP3    H223575   3.713   5.203   3.554  2.8871 -1.3909  0.9208
 7871TIP3   OH223576   4.624   3.306   3.768  0.1456 -0.3003  0.1829
 7871TIP3    H123577   4.682   3.378   3.790  0.3517 -0.6252  0.7310
 7871TIP3    H223578   4.643   3.239   3.833 -1.3055 -0.1621  0.7929
 7872TIP3   OH223579   4.722   3.779   3.594 -0.5222  0.1804  0.0180
 7872TIP3    H123580   4.812   3.805   3.576 -0.1887 -2.3009 -2.6560
 7872TIP3    H223581   4.729   3.687   3.621 -2.2400 -0.2754 -0.9407
 7873TIP3   OH223582   4.270   4.759   2.999 -0.1401 -0.0146 -0.1094
 7873TIP3    H123583   4.257   4.742   3.092  2.3672  0.7259  0.4690
 7873TIP3    H223584   4.360   4.731   2.982 -0.5825 -0.2452 -2.3590
 7874TIP3   OH223585   4.465   2.321   5.173 -0.2825  0.1477 -0.0320
 7874TIP3    H123586   4.399   2.273   5.223  0.2102 -0.0157  0.4651
 7874TIP3    H223587   4.431   2.321   5.083 -0.8688 -0.0924  0.1818
 7875TIP3   OH223588   3.793   0.606  -0.008  0.3605 -0.3692 -0.0776
 7875TIP3    H123589   3.842   0.688   0.004  0.0008  0.4531 -3.2674
 7875TIP3    H223590   3.787   0.569   0.079  2.0942  2.1205  1.2329
 7876TIP3   OH223591   5.119   6.154   1.853  0.3998  0.3541 -0.0727
 7876TIP3    H123592   5.101   6.118   1.765 -1.1951  0.8182  0.0370
 7876TIP3    H223593   5.156   6.080   1.901 -1.5314 -0.8081 -0.2668
 7877TIP3   OH223594   1.210   3.374   1.492 -0.6823 -0.8360 -0.0657
 7877TIP3    H123595   1.173   3.461   1.504 -0.5907 -0.7792 -0.2062
 7877TIP3    H223596   1.296   3.378   1.534 -1.4419 -1.4108  1.6493
 7878TIP3   OH223597   5.544   2.604   3.087 -0.0109 -0.3988 -0.1460
 7878TIP3    H123598   5.510   2.575   3.172  2.1515 -2.2925  0.1744
 7878TIP3    H223599   5.561   2.522   3.039 -0.7494  0.6104 -2.2584
 7879TIP3   OH223600   0.796   1.444   0.820  0.3632  0.3771  0.0776
 7879TIP3    H123601   0.889   1.424   0.807  0.0085 -2.4888  1.1419
 7879TIP3    H223602   0.796   1.518   0.882  1.9596 -0.3935  1.0690
 7880TIP3   OH223603   5.384   5.389   3.935 -0.2463 -0.4153  0.8386
 7880TIP3    H123604   5.290   5.405   3.929 -0.4083 -0.7408  2.1298
 7880TIP3    H223605   5.424   5.476   3.927 -0.6321 -0.3008  0.0709
 7881TIP3   OH223606   5.930   2.966   4.912  0.2998 -0.0112  0.1510
 7881TIP3    H123607   5.974   2.886   4.884  2.9434  0.2294  3.0688
 7881TIP3    H223608   5.846   2.937   4.947  1.2779 -1.5780  1.3150
 7882TIP3   OH223609   5.669   4.935   0.231  0.2499  0.2416  0.4808
 7882TIP3    H123610   5.728   5.001   0.193  0.9496 -1.6609 -1.9243
 7882TIP3    H223611   5.609   4.913   0.161 -0.5863 -1.0141  1.5470
 7883TIP3   OH223612   3.972   3.768   1.345 -0.3450  0.0682 -0.1370
 7883TIP3    H123613   3.883   3.735   1.334 -0.5996  0.3234  1.0265
 7883TIP3    H223614   3.969   3.857   1.311 -0.3093 -0.2048 -0.8803
 7884TIP3   OH223615   1.564   0.845   2.599  0.2333 -0.1711 -0.1092
 7884TIP3    H123616   1.599   0.841   2.688  0.9316 -0.2092 -0.3721
 7884TIP3    H223617   1.604   0.769   2.555  1.0334  0.6490 -0.8360
 7885TIP3   OH223618   3.918   3.342   2.539 -0.4665  0.1241  0.0862
 7885TIP3    H123619   3.950   3.396   2.467 -1.2890  0.8740  0.2614
 7885TIP3    H223620   3.937   3.252   2.512  0.5668  0.4657 -0.3913
 7886TIP3   OH223621   1.650   4.554   4.684  0.4650  0.4501 -0.2887
 7886TIP3    H123622   1.736   4.595   4.686 -0.1846  1.8986  2.7283
 7886TIP3    H223623   1.646   4.502   4.765 -1.8382  1.2454  0.1819
 7887TIP3   OH223624   2.715   6.580   5.503  1.1395  0.1850 -0.6452
 7887TIP3    H123625   2.746   6.547   5.419  2.3506 -1.9837  0.5649
 7887TIP3    H223626   2.661   6.509   5.538  1.0344  0.8489  0.6056
 7888TIP3   OH223627   5.108   0.206   5.521  0.3678  0.0654 -0.2847
 7888TIP3    H123628   5.090   0.282   5.465  2.1546  0.3031 -0.6123
 7888TIP3    H223629   5.023   0.166   5.536 -0.5873  1.9447 -0.3859
 7889TIP3   OH223630   0.994   0.159   5.736  0.3271  0.4867 -0.6097
 7889TIP3    H123631   1.073   0.199   5.773  1.4149  0.4384 -2.7224
 7889TIP3    H223632   1.023   0.072   5.708 -1.0371 -0.3392  0.4324
 7890TIP3   OH223633   3.754   5.089   5.830 -0.0344 -0.3568 -0.4034
 7890TIP3    H123634   3.841   5.120   5.804  0.2335 -0.5912  0.1863
 7890TIP3    H223635   3.748   5.109   5.923 -0.4217 -0.7761 -0.3314
 7891TIP3   OH223636   3.194   2.697   3.567 -0.3615  0.4858  0.2761
 7891TIP3    H123637   3.259   2.765   3.553  1.3505 -1.2163 -0.4382
 7891TIP3    H223638   3.217   2.658   3.651  0.2864 -0.8816 -0.5139
 7892TIP3   OH223639   2.394   1.640   1.687  0.4050 -0.3417  0.0643
 7892TIP3    H123640   2.392   1.577   1.759  0.9748 -0.4976 -0.0529
 7892TIP3    H223641   2.384   1.725   1.730  0.8742 -0.4250  0.3406
 7893TIP3   OH223642   4.333   4.267   5.282  0.2819 -0.2804  0.2589
 7893TIP3    H123643   4.283   4.198   5.325 -1.4909 -0.6933 -2.2607
 7893TIP3    H223644   4.323   4.249   5.188  1.4121  2.2767 -0.4353
 7894TIP3   OH223645   1.728   1.119   3.302 -0.2307  0.1807 -0.4411
 7894TIP3    H123646   1.798   1.065   3.341 -0.7618  0.5260  1.0676
 7894TIP3    H223647   1.670   1.055   3.261 -1.0982 -0.5221  1.7145
 7895TIP3   OH223648   2.043   2.969   2.169 -0.1568  0.0360 -0.2805
 7895TIP3    H123649   2.083   2.921   2.096  0.8418  0.0557  0.2318
 7895TIP3    H223650   1.951   2.943   2.167 -0.4955  1.1354 -2.4334
 7896TIP3   OH223651   5.286   6.030   3.011 -0.2765  0.5910  0.0023
 7896TIP3    H123652   5.233   6.051   2.935 -0.4841  0.3763  0.0850
 7896TIP3    H223653   5.224   5.991   3.073  0.3668 -1.8928 -0.7944
 7897TIP3   OH223654   3.668   5.824   4.482  0.8534 -0.1261  0.0532
 7897TIP3    H123655   3.617   5.810   4.562 -0.7187  3.6357 -0.0875
 7897TIP3    H223656   3.752   5.858   4.513  0.2642  1.2778  0.2166
 7898TIP3   OH223657   1.616   3.312   1.105 -0.8125 -0.1859 -0.2091
 7898TIP3    H123658   1.542   3.328   1.164 -1.8864  1.6219 -1.9353
 7898TIP3    H223659   1.586   3.244   1.045 -0.1278 -1.2146  0.5701
 7899TIP3   OH223660   2.025   2.532   2.636  0.4353  0.2967 -0.2794
 7899TIP3    H123661   1.967   2.467   2.597  2.3204 -0.4795 -1.9333
 7899TIP3    H223662   1.968   2.583   2.694 -1.3600 -1.9933  0.1017
 7900TIP3   OH223663   1.217   2.211   5.084  0.5987  0.4591 -0.2913
 7900TIP3    H123664   1.295   2.161   5.061 -1.4330 -2.4043 -1.6251
 7900TIP3    H223665   1.217   2.211   5.180  2.2497  0.6268 -0.2595
 7901TIP3   OH223666   0.154   6.284   5.690  0.5859  0.7279 -0.0090
 7901TIP3    H123667   0.225   6.284   5.754  2.0216 -0.8421 -1.5167
 7901TIP3    H223668   0.112   6.199   5.701  2.3058 -0.5677 -2.5943
 7902TIP3   OH223669   5.900   6.723   1.073 -0.3770 -0.1944  0.5900
 7902TIP3    H123670   5.896   6.814   1.045 -1.3177  0.6909  3.2928
 7902TIP3    H223671   5.961   6.723   1.146 -0.7508 -1.6531  0.9419
 7903TIP3   OH223672   1.839   6.206   0.060 -0.0745 -0.3957 -0.1770
 7903TIP3    H123673   1.815   6.113   0.053  3.0098 -1.2088 -1.7159
 7903TIP3    H223674   1.894   6.211   0.138 -0.2578  0.1573 -0.0777
 7904TIP3   OH223675   0.553   0.078   5.162 -0.4257 -0.3950  0.3343
 7904TIP3    H123676   0.556   0.174   5.161 -1.5811 -0.3385 -0.6981
 7904TIP3    H223677   0.616   0.052   5.095 -1.2789 -0.2684 -0.5541
 7905TIP3   OH223678   6.547   6.175   4.957 -0.2495 -0.0053 -0.2292
 7905TIP3    H123679   6.560   6.099   4.901 -0.1164 -0.5846  0.5563
 7905TIP3    H223680   6.566   6.142   5.045 -1.8112  0.4990  0.3290
 7906TIP3   OH223681   4.850   5.924   0.555 -0.6224 -0.2847  0.2811
 7906TIP3    H123682   4.868   5.934   0.649 -0.5456 -0.2431  0.2616
 7906TIP3    H223683   4.897   5.996   0.513 -1.6449  0.4421  0.3238
 7907TIP3   OH223684   5.227   6.392   4.939  0.4910  0.0087 -0.1015
 7907TIP3    H123685   5.278   6.463   4.900  3.7512 -1.4666  1.1081
 7907TIP3    H223686   5.138   6.427   4.944  1.7474  3.7145 -0.2356
 7908TIP3   OH223687   2.517   4.633   1.596 -0.1442 -0.1515  0.3515
 7908TIP3    H123688   2.446   4.693   1.619  0.3264  0.9379 -0.8950
 7908TIP3    H223689   2.593   4.690   1.584  0.2147 -0.9428 -1.3109
 7909TIP3   OH223690   0.239   3.189   4.821  0.1259 -0.1582 -0.1876
 7909TIP3    H123691   0.293   3.177   4.899 -0.7001  0.3494  0.4812
 7909TIP3    H223692   0.230   3.102   4.783  1.7833 -0.1955 -0.5851
 7910TIP3   OH223693   7.093   0.449   1.024 -0.3056  0.2359 -0.1572
 7910TIP3    H123694   7.007   0.414   0.999  0.4162 -1.3324 -0.5778
 7910TIP3    H223695   7.151   0.373   1.020  1.1568  1.3232 -0.1375
 7911TIP3   OH223696   4.925   0.513   0.788  0.2293 -0.3769 -0.1052
 7911TIP3    H123697   4.982   0.578   0.747 -0.2508 -0.4714 -0.9471
 7911TIP3    H223698   4.878   0.473   0.715 -0.5919 -0.6156  0.5401
 7912TIP3   OH223699   4.820   6.376   3.202  0.2246 -0.4611  0.2311
 7912TIP3    H123700   4.766   6.454   3.200 -1.5948 -1.6287  1.3150
 7912TIP3    H223701   4.796   6.327   3.123 -0.0658 -0.8182  0.5349
 7913TIP3   OH223702   2.653   1.254   2.174  0.6825 -0.4643  0.3212
 7913TIP3    H123703   2.566   1.250   2.134  0.5636 -0.7431  0.6029
 7913TIP3    H223704   2.689   1.337   2.144  0.9375 -1.0490 -1.0813
 7914TIP3   OH223705   1.325   4.947   0.165 -0.6349  0.5146  0.0475
 7914TIP3    H123706   1.266   4.916   0.096 -1.6404  2.6881 -0.1559
 7914TIP3    H223707   1.292   4.906   0.245 -0.9578 -0.1327 -0.4046
 7915TIP3   OH223708   0.177   1.080   5.078 -0.2717  0.5035 -0.3315
 7915TIP3    H123709   0.177   1.170   5.044  1.5721  0.5727 -0.2468
 7915TIP3    H223710   0.180   1.090   5.173  0.1740  0.3648 -0.3286
 7916TIP3   OH223711   6.952   5.568   1.252 -0.1419 -0.0839 -0.1669
 7916TIP3    H123712   6.985   5.547   1.339  0.0879 -0.6692 -0.3937
 7916TIP3    H223713   6.989   5.654   1.233 -1.2437  0.6521  0.8435
 7917TIP3   OH223714   5.116   3.167   5.725  0.3887  0.3782  0.0381
 7917TIP3    H123715   5.131   3.082   5.683  0.1968  1.2308 -1.8259
 7917TIP3    H223716   5.021   3.175   5.730  0.3762  1.0379 -1.0170
 7918TIP3   OH223717   7.012   6.060   1.050 -0.3334 -0.4133  0.6534
 7918TIP3    H123718   6.961   6.071   0.970  0.1094 -0.5058  0.3506
 7918TIP3    H223719   7.090   6.011   1.022 -0.0905 -0.2949  1.1043
 7919TIP3   OH223720   1.203   3.104   1.017 -0.2242  0.3103 -0.3400
 7919TIP3    H123721   1.158   3.034   0.970  0.0902  1.4098 -2.3982
 7919TIP3    H223722   1.266   3.059   1.074  0.9152 -1.0897 -2.5719
 7920TIP3   OH223723   3.322   0.148   1.519  0.2339  0.7001  0.2733
 7920TIP3    H123724   3.343   0.124   1.609 -0.4419 -1.1832 -0.0325
 7920TIP3    H223725   3.286   0.069   1.480  1.8589  0.9958 -2.1001
 7921TIP3   OH223726   6.294   4.184   3.460 -0.3135  0.2979 -0.3096
 7921TIP3    H123727   6.284   4.271   3.421  1.5099  0.4713 -0.5027
 7921TIP3    H223728   6.285   4.199   3.554  0.0663  0.7251 -0.3344
 7922TIP3   OH223729   5.056   4.688   1.438  0.4488  0.0151 -0.8525
 7922TIP3    H123730   5.087   4.771   1.403 -0.2634  0.2363 -0.9758
 7922TIP3    H223731   5.024   4.640   1.361 -0.2093  0.1066 -0.6482
 7923TIP3   OH223732   0.869   1.351   4.956 -0.7026 -0.1042 -0.1249
 7923TIP3    H123733   0.927   1.425   4.937 -1.1074 -0.0855 -1.4132
 7923TIP3    H223734   0.924   1.274   4.943  0.1926 -0.0758  2.8368
 7924TIP3   OH223735   2.642   0.286   2.022 -0.1567  0.3491  0.4216
 7924TIP3    H123736   2.714   0.346   2.003  0.1393  0.3785  1.5825
 7924TIP3    H223737   2.683   0.199   2.025 -0.3951  0.2098 -0.1520
 7925TIP3   OH223738   4.924   0.883   1.074  0.3102 -0.1541  0.0015
 7925TIP3    H123739   4.918   0.928   0.990  1.0621  0.3963  0.2240
 7925TIP3    H223740   5.018   0.880   1.093  0.0970  0.9545  1.4372
 7926TIP3   OH223741   3.520   5.773   1.543 -0.1377  0.5669  0.0163
 7926TIP3    H123742   3.487   5.748   1.630 -1.6741 -0.8155 -0.8951
 7926TIP3    H223743   3.604   5.728   1.536 -0.8137 -0.7733  0.1494
 7927TIP3   OH223744   0.449   5.821   0.982 -0.0376 -0.3194 -0.4372
 7927TIP3    H123745   0.460   5.809   1.077  0.7155 -0.6411 -0.5513
 7927TIP3    H223746   0.450   5.916   0.969  0.0304 -0.2780 -0.1342
 7928TIP3   OH223747   0.597   1.712   3.716 -0.4442  0.2818 -0.3055
 7928TIP3    H123748   0.562   1.727   3.628 -1.2396  0.6550  0.0600
 7928TIP3    H223749   0.692   1.709   3.704 -0.5008  1.1447 -1.0574
 7929TIP3   OH223750   0.686   0.276   2.709 -0.2024  0.1775 -0.1228
 7929TIP3    H123751   0.677   0.185   2.738 -1.9105  0.6114  0.8197
 7929TIP3    H223752   0.779   0.296   2.721  0.3365 -1.6259 -0.9523
 7930TIP3   OH223753   5.480   1.359   0.859  0.2170  0.0719 -0.5332
 7930TIP3    H123754   5.417   1.297   0.821 -0.1642 -0.3902  0.8110
 7930TIP3    H223755   5.464   1.355   0.953 -0.1247  2.5700 -0.4283
 7931TIP3   OH223756   5.792   4.722   2.976  0.1855  0.2291 -0.0015
 7931TIP3    H123757   5.803   4.716   3.071 -1.6695  1.4185  0.3300
 7931TIP3    H223758   5.881   4.715   2.941  0.7813 -1.7963  1.6956
 7932TIP3   OH223759   5.237   2.676   2.357  0.5062 -0.3806 -0.5095
 7932TIP3    H123760   5.181   2.600   2.342  0.8804 -0.5071 -1.3595
 7932TIP3    H223761   5.326   2.641   2.357  0.6435 -0.0410 -0.1761
 7933TIP3   OH223762   1.846   2.018   5.115  0.4184 -0.1210  0.1908
 7933TIP3    H123763   1.812   2.015   5.026 -0.2591  1.8112  0.3317
 7933TIP3    H223764   1.791   2.083   5.159  2.3805  0.8661  1.2941
 7934TIP3   OH223765   6.764   5.792   0.771  0.1047  0.0976  0.2431
 7934TIP3    H123766   6.748   5.767   0.862 -2.0511  2.7371  0.7153
 7934TIP3    H223767   6.705   5.737   0.720  1.4149 -1.4864  0.3475
 7935TIP3   OH223768   4.535   0.078   4.713  0.3007  0.0196  0.5766
 7935TIP3    H123769   4.580   0.075   4.629  1.0179 -0.7400  0.9668
 7935TIP3    H223770   4.468   0.010   4.708  1.0098 -0.7333  0.9611
 7936TIP3   OH223771   3.356   2.326   3.375  0.2977 -0.3614  0.0138
 7936TIP3    H123772   3.348   2.296   3.466  0.8429 -0.9270 -0.1197
 7936TIP3    H223773   3.270   2.309   3.337 -0.1005  0.3606  0.5556
 7937TIP3   OH223774   0.286   4.936   0.563 -0.6284 -0.8115  0.1362
 7937TIP3    H123775   0.288   4.971   0.652 -1.9432 -1.1790  0.3297
 7937TIP3    H223776   0.214   4.982   0.520 -0.2294 -0.8867 -0.6344
 7938TIP3   OH223777   4.680   0.446   3.298 -0.4134 -0.1978 -0.8529
 7938TIP3    H123778   4.731   0.409   3.227  0.0932  0.1361 -0.6668
 7938TIP3    H223779   4.597   0.399   3.295 -0.3205 -0.3291 -1.5321
 7939TIP3   OH223780   0.736   0.803   5.471  0.4935 -0.3405 -0.2045
 7939TIP3    H123781   0.643   0.793   5.448 -0.9747 -0.2604  4.6668
 7939TIP3    H223782   0.762   0.717   5.504  1.5420  0.1539  0.3030
 7940TIP3   OH223783   5.838   3.286   0.508 -0.2433 -0.3222  0.0685
 7940TIP3    H123784   5.908   3.222   0.492 -0.5874 -0.2774 -1.9235
 7940TIP3    H223785   5.763   3.252   0.461 -0.7012  1.0695 -0.2610
 7941TIP3   OH223786   1.483   0.033   0.599  0.0892 -0.1257  0.1667
 7941TIP3    H123787   1.417  -0.013   0.651 -1.0739  1.2165 -0.0534
 7941TIP3    H223788   1.473   0.125   0.625  2.2592  0.0646  0.5180
 7942TIP3   OH223789   1.445   0.669   3.999  0.5324  0.0217  0.0682
 7942TIP3    H123790   1.357   0.632   3.991 -0.7014  2.8215 -0.5406
 7942TIP3    H223791   1.487   0.649   3.916 -0.0998  0.0117 -0.2526
 7943TIP3   OH223792   2.929   0.668   5.650 -0.9255 -0.3763 -0.3859
 7943TIP3    H123793   2.838   0.643   5.633 -1.1310 -0.2977  0.5122
 7943TIP3    H223794   2.980   0.615   5.589 -1.5723 -0.4300 -0.8977
 7944TIP3   OH223795   5.347   3.854   5.332  0.3472 -0.8238 -0.3371
 7944TIP3    H123796   5.358   3.937   5.380  1.8424 -1.2142  0.0556
 7944TIP3    H223797   5.386   3.872   5.246  0.8992 -1.1702 -0.1668
 7945TIP3   OH223798   1.481   4.852   5.483 -0.6192 -0.1241 -0.2362
 7945TIP3    H123799   1.532   4.782   5.443  1.1177  1.7696 -1.5244
 7945TIP3    H223800   1.517   4.861   5.571  1.1839  1.0119 -1.0429
 7946TIP3   OH223801   5.088   6.181   4.792 -0.4055 -0.1041 -0.2125
 7946TIP3    H123802   5.141   6.252   4.828  0.1206  0.1606 -1.4761
 7946TIP3    H223803   5.045   6.142   4.869 -1.9717  2.5700  0.3824
 7947TIP3   OH223804   0.795   3.880   0.614  0.0182 -0.1613 -0.0846
 7947TIP3    H123805   0.792   3.799   0.562 -0.3478 -1.5604  2.0102
 7947TIP3    H223806   0.842   3.857   0.693 -1.4110  1.2396  1.2617
 7948TIP3   OH223807   3.199   0.510   1.453 -0.9802 -0.1695  0.3654
 7948TIP3    H123808   3.225   0.475   1.538 -1.7580  0.5933  0.9427
 7948TIP3    H223809   3.104   0.520   1.459 -1.2527 -1.4845 -1.1415
 7949TIP3   OH223810   4.593   2.622   5.760 -0.0749  0.2226  0.3996
 7949TIP3    H123811   4.535   2.593   5.830  0.6437 -1.9098  0.1887
 7949TIP3    H223812   4.681   2.605   5.794  0.3072 -0.0879 -0.7098
 7950TIP3   OH223813   4.879   4.574   5.285 -0.0250 -0.0390 -0.0359
 7950TIP3    H123814   4.912   4.509   5.222  0.5449 -0.7320  0.9523
 7950TIP3    H223815   4.813   4.528   5.335  1.7093 -0.5029  1.9580
 7951TIP3   OH223816   5.444   2.222   3.433 -0.2767 -0.1231 -0.6812
 7951TIP3    H123817   5.400   2.205   3.516  2.1700 -0.3474  0.6611
 7951TIP3    H223818   5.400   2.166   3.370 -2.7789  0.7013  0.2237
 7952TIP3   OH223819   7.101   4.720   4.461  0.3035 -0.8387  0.1582
 7952TIP3    H123820   7.049   4.702   4.539  1.8785 -1.1158  1.1777
 7952TIP3    H223821   7.133   4.809   4.474 -0.9759 -0.1504 -1.1161
 7953TIP3   OH223822   2.846   1.728   0.689 -0.6863  0.3088  0.7575
 7953TIP3    H123823   2.848   1.710   0.783  1.3039 -1.5001  0.4240
 7953TIP3    H223824   2.818   1.820   0.683 -0.9394  0.4343  3.0874
 7954TIP3   OH223825   6.476   1.762   1.513  0.3022  0.6092 -0.1031
 7954TIP3    H123826   6.450   1.671   1.524  0.3089  0.3915 -1.6997
 7954TIP3    H223827   6.435   1.808   1.587 -0.9596 -0.4348 -0.1245
 7955TIP3   OH223828   2.110   4.385   5.754  0.2304  0.3058 -0.3423
 7955TIP3    H123829   2.125   4.370   5.847 -1.2720  0.1518 -0.1024
 7955TIP3    H223830   2.137   4.476   5.739 -0.6158  0.7143  0.5162
 7956TIP3   OH223831   3.032   2.695   2.145 -0.0973  0.7145  0.8208
 7956TIP3    H123832   3.062   2.604   2.146 -0.3735  0.6031 -0.1206
 7956TIP3    H223833   3.111   2.746   2.132 -0.1516  0.4786 -0.6487
 7957TIP3   OH223834   0.752   3.633   0.112 -0.4696 -0.3139  0.4470
 7957TIP3    H123835   0.757   3.682   0.030  1.3375 -0.7130  0.2695
 7957TIP3    H223836   0.730   3.699   0.178  1.9054  0.8071  0.2149
 7958TIP3   OH223837   7.187   3.130   0.318 -0.2920  0.4640 -0.4499
 7958TIP3    H123838   7.113   3.189   0.301  0.4048  1.2233 -0.9265
 7958TIP3    H223839   7.258   3.189   0.343  0.1449 -0.2652  0.0665
 7959TIP3   OH223840   5.437   3.304   3.304 -0.0713  0.1085  0.1829
 7959TIP3    H123841   5.474   3.342   3.384 -1.8108 -0.9538  1.5780
 7959TIP3    H223842   5.386   3.376   3.266 -1.2731 -0.0337  1.4275
 7960TIP3   OH223843   4.801   2.701   1.200 -0.5291  0.3174 -0.1002
 7960TIP3    H123844   4.831   2.610   1.197 -1.8954 -0.1349 -0.6491
 7960TIP3    H223845   4.747   2.705   1.278  0.3867  0.9613  0.5221
 7961TIP3   OH223846   4.447   3.888   5.081  0.2724  0.0167  0.6052
 7961TIP3    H123847   4.528   3.921   5.119 -0.3283  1.1496  0.9292
 7961TIP3    H223848   4.443   3.797   5.110  1.5003 -0.1061  0.4501
 7962TIP3   OH223849   6.856   3.454   5.222  0.0535  0.1091 -0.1086
 7962TIP3    H123850   6.916   3.396   5.175 -0.0575  0.6254 -0.8995
 7962TIP3    H223851   6.813   3.397   5.286 -1.8124 -1.2773 -2.4189
 7963TIP3   OH223852   5.700   5.121   5.005  0.2865  0.1847 -0.2291
 7963TIP3    H123853   5.609   5.148   5.022 -0.0775 -0.3551 -1.2496
 7963TIP3    H223854   5.725   5.073   5.084 -0.6953 -0.5955 -0.3632
 7964TIP3   OH223855   3.294   5.067   2.209  0.1805  0.4530 -0.3887
 7964TIP3    H123856   3.370   5.126   2.198 -0.2250  0.8521 -1.1534
 7964TIP3    H223857   3.220   5.118   2.177 -0.4143  0.0522  0.3377
 7965TIP3   OH223858   2.576   1.299   5.702 -0.0246  0.7322 -0.2012
 7965TIP3    H123859   2.628   1.320   5.780 -3.3773  1.6184  1.9922
 7965TIP3    H223860   2.587   1.205   5.691  3.3593  1.0933 -0.9804
 7966TIP3   OH223861   0.034   2.132   5.133 -0.3090 -0.1926 -0.1172
 7966TIP3    H123862   0.105   2.196   5.125 -1.5558  1.0716 -1.4389
 7966TIP3    H223863  -0.038   2.169   5.083 -2.5678 -0.5794  2.6314
 7967TIP3   OH223864   0.924   2.078   5.540  0.3439  0.1411 -0.0763
 7967TIP3    H123865   0.940   2.053   5.449  0.0458  0.1820 -0.1405
 7967TIP3    H223866   1.011   2.077   5.581  0.3714 -0.7761 -0.1350
 7968TIP3   OH223867   2.360   0.709   1.581  0.0635 -0.2611 -0.3708
 7968TIP3    H123868   2.269   0.735   1.597 -0.2484 -0.5521 -1.5570
 7968TIP3    H223869   2.384   0.656   1.657 -0.1412  1.2981  0.8328
 7969TIP3   OH223870   2.539   5.419   4.029  0.7857 -0.0337  0.2790
 7969TIP3    H123871   2.540   5.432   3.934  1.5406  1.4543  0.4522
 7969TIP3    H223872   2.626   5.384   4.050  0.9758  0.5503  0.5058
 7970TIP3   OH223873   0.485   3.148   0.073 -0.4358  0.4756  0.3251
 7970TIP3    H123874   0.562   3.204   0.079 -0.4861  0.4726  0.9834
 7970TIP3    H223875   0.412   3.209   0.063 -0.1278  0.4819 -3.5451
 7971TIP3   OH223876   2.930   1.159   3.309  0.0439 -0.4702 -0.0553
 7971TIP3    H123877   2.986   1.169   3.232 -0.8645 -1.1189 -0.8305
 7971TIP3    H223878   2.878   1.239   3.312 -0.8365 -0.9836 -0.9092
 7972TIP3   OH223879   6.346   5.894   1.892 -0.5849 -0.3828 -0.3504
 7972TIP3    H123880   6.361   5.872   1.984 -0.1652 -0.8703 -0.5329
 7972TIP3    H223881   6.371   5.815   1.844  0.5473  0.3335 -0.9810
 7973TIP3   OH223882   5.555   5.411   2.001 -0.7346 -0.2393  0.4446
 7973TIP3    H123883   5.516   5.474   2.062 -0.0978 -1.8026  2.5917
 7973TIP3    H223884   5.500   5.333   2.008 -0.1848 -0.7144 -0.4073
 7974TIP3   OH223885   0.422   6.017   2.436  0.0582  0.4307 -0.1767
 7974TIP3    H123886   0.512   6.029   2.467 -0.1473  0.5049  0.4002
 7974TIP3    H223887   0.432   5.975   2.350  0.6673  1.2755 -0.5358
 7975TIP3   OH223888   2.372   0.562   3.454 -0.3163 -0.0511  0.1955
 7975TIP3    H123889   2.314   0.621   3.503 -1.4831 -0.0226 -1.1815
 7975TIP3    H223890   2.313   0.509   3.401  0.7961 -1.6390  0.4891
 7976TIP3   OH223891   6.896   2.623   4.147 -0.1663  0.1835  0.4282
 7976TIP3    H123892   6.923   2.694   4.089 -1.2750  0.7165  0.5282
 7976TIP3    H223893   6.802   2.613   4.130 -0.5992  0.5777  2.3623
 7977TIP3   OH223894   6.475   2.184   5.284  0.1547  0.4524 -0.2333
 7977TIP3    H123895   6.406   2.202   5.220 -0.4649  1.8833  0.8078
 7977TIP3    H223896   6.447   2.104   5.327 -0.1923  0.3205 -0.6930
 7978TIP3   OH223897   7.180   3.854   3.847  0.1740  0.7092  0.1285
 7978TIP3    H123898   7.218   3.940   3.866  0.0332  0.6447  0.7332
 7978TIP3    H223899   7.137   3.865   3.762 -1.5467  1.8081  1.0824
 7979TIP3   OH223900   4.110   4.457   5.284 -0.3067  0.0173 -0.4614
 7979TIP3    H123901   4.192   4.410   5.269  0.3912  1.2083 -0.4813
 7979TIP3    H223902   4.102   4.462   5.379  0.5031  1.3301 -0.4474
 7980TIP3   OH223903   0.800   3.625   0.897 -0.1559  0.2033  0.4921
 7980TIP3    H123904   0.750   3.634   0.978 -1.3099  0.4693 -0.2099
 7980TIP3    H223905   0.867   3.692   0.902  1.0265 -1.0302  2.0571
 7981TIP3   OH223906   0.946   5.119   0.558 -0.6091  0.2903 -0.2763
 7981TIP3    H123907   0.947   5.038   0.507  0.3658 -0.5632  1.0296
 7981TIP3    H223908   0.993   5.182   0.503 -1.6305  0.0870 -1.4370
 7982TIP3   OH223909   5.124   4.999   4.349 -0.4031  0.3593 -0.0755
 7982TIP3    H123910   5.052   5.026   4.291 -0.1708 -0.4110 -0.7494
 7982TIP3    H223911   5.082   4.981   4.433 -0.7694  1.3866 -0.0280
 7983TIP3   OH223912   6.300   3.068   4.146  0.2650  0.0828 -0.2417
 7983TIP3    H123913   6.253   3.040   4.225 -1.4219 -0.9680 -1.5667
 7983TIP3    H223914   6.345   3.148   4.173 -1.8828  0.8866  1.2439
 7984TIP3   OH223915   2.315   1.746   2.287 -0.1243  0.3560 -0.3547
 7984TIP3    H123916   2.289   1.809   2.354 -0.2201  0.2954 -0.3345
 7984TIP3    H223917   2.366   1.797   2.224  0.9206  0.1889  0.3436
 7985TIP3   OH223918   1.626   0.601   5.037 -0.1269 -0.4255 -0.4402
 7985TIP3    H123919   1.588   0.681   4.999  1.1888  0.6176  0.3408
 7985TIP3    H223920   1.720   0.615   5.031  0.1229 -1.8427 -0.0702
 7986TIP3   OH223921   6.604   5.005   2.043 -0.2943  0.3694  0.1062
 7986TIP3    H123922   6.542   4.947   1.998  0.4801 -0.1473 -0.3228
 7986TIP3    H223923   6.549   5.061   2.098 -1.1234 -0.2045 -0.1148
 7987TIP3   OH223924   4.077   3.780   3.074 -0.2588  0.1504  0.1618
 7987TIP3    H123925   4.151   3.738   3.118  2.1612  2.9782 -0.8750
 7987TIP3    H223926   4.081   3.871   3.102 -3.1059  0.5239 -0.3465
 7988TIP3   OH223927   6.316   1.239   5.404  0.2375 -0.2305  0.0510
 7988TIP3    H123928   6.251   1.193   5.458 -0.1889 -0.3334 -0.5437
 7988TIP3    H223929   6.266   1.272   5.329  1.1099 -1.4878 -1.1216
 7989TIP3   OH223930   1.310   2.438   0.258  0.3115 -0.2017 -0.2132
 7989TIP3    H123931   1.368   2.513   0.253 -1.6245  1.4178  0.2250
 7989TIP3    H223932   1.320   2.406   0.348  0.9601 -0.3413 -0.3291
 7990TIP3   OH223933   1.705   4.288   2.554 -0.4210 -0.0835  0.1367
 7990TIP3    H123934   1.642   4.323   2.617 -0.2651  0.2857  0.0922
 7990TIP3    H223935   1.747   4.366   2.517  1.5356 -0.3484  1.6552
 7991TIP3   OH223936   4.895   2.730   5.579 -0.4890 -0.0783  0.3712
 7991TIP3    H123937   4.805   2.724   5.548  0.4479 -1.6899 -2.3506
 7991TIP3    H223938   4.915   2.642   5.610  1.2258 -0.8946 -2.6528
 7992TIP3   OH223939   4.963   1.369   5.835  0.4038 -0.0056  0.2212
 7992TIP3    H123940   4.998   1.280   5.840 -1.6323 -0.8184  1.2882
 7992TIP3    H223941   4.875   1.358   5.797  0.0481  1.5310  0.5337
 7993TIP3   OH223942   5.788   1.329   2.995  0.0855  0.5070  0.7480
 7993TIP3    H123943   5.880   1.341   2.972 -0.2798  2.4638  0.0519
 7993TIP3    H223944   5.770   1.401   3.056 -0.8018 -0.3312  1.5063
 7994TIP3   OH223945   3.406   1.488   1.933 -0.4371  0.3161  0.5021
 7994TIP3    H123946   3.489   1.462   1.893  0.0009  0.5740  1.2208
 7994TIP3    H223947   3.432   1.532   2.014 -1.2904  0.1420  0.8741
 7995TIP3   OH223948   6.723   5.950   1.113 -0.4134 -0.4496  0.0807
 7995TIP3    H123949   6.709   5.988   1.027  0.3202  0.4450  0.3396
 7995TIP3    H223950   6.815   5.967   1.133 -0.3863 -1.2606  0.7485
 7996TIP3   OH223951   6.197   0.171   4.987  0.3710  0.2325 -0.1088
 7996TIP3    H123952   6.240   0.122   5.057  1.3352  0.4137 -0.5620
 7996TIP3    H223953   6.110   0.130   4.979  0.0799  0.5114  1.4842
 7997TIP3   OH223954   6.355   6.722   2.386  0.1710  0.2485  0.1368
 7997TIP3    H123955   6.357   6.692   2.477 -1.3387 -1.0044 -0.1940
 7997TIP3    H223956   6.284   6.787   2.385 -0.8378 -0.8256 -0.4112
 7998TIP3   OH223957   0.392   1.628   1.003 -0.5104  0.5179 -1.1026
 7998TIP3    H123958   0.330   1.561   0.972 -1.5980  0.4566  1.0097
 7998TIP3    H223959   0.349   1.711   0.983 -0.3623  0.5212 -1.4052
 7999TIP3   OH223960   0.232   4.058   2.477  0.1907  0.0086 -0.1027
 7999TIP3    H123961   0.143   4.029   2.459 -0.0336  0.4612  0.2417
 7999TIP3    H223962   0.260   4.101   2.397  0.7082 -1.5513 -0.7974
 8000TIP3   OH223963   3.217   1.501   1.591 -0.1411 -0.3442  0.1385
 8000TIP3    H123964   3.297   1.516   1.542 -1.3225  2.2293 -1.1752
 8000TIP3    H223965   3.153   1.474   1.526 -1.0706  0.5242  0.6589
 8001TIP3   OH223966   1.285   1.482   5.553 -0.3032 -0.2046  0.2600
 8001TIP3    H123967   1.348   1.486   5.625  1.1901 -1.4948 -0.8984
 8001TIP3    H223968   1.223   1.552   5.571  1.0819  0.6886  1.8104
 8002TIP3   OH223969   4.579   0.653   4.368 -0.1506 -0.3302  0.3100
 8002TIP3    H123970   4.508   0.715   4.352  0.3268  0.8098  2.3217
 8002TIP3    H223971   4.658   0.699   4.339  0.0306 -0.6871  0.2251
 8003TIP3   OH223972   2.910   4.281   3.146 -0.1328 -0.6709 -0.0548
 8003TIP3    H123973   2.921   4.189   3.121 -1.8612 -0.0643 -3.8230
 8003TIP3    H223974   2.828   4.283   3.195 -0.1282 -1.1194 -0.0226
 8004TIP3   OH223975   0.901   1.688   4.552  0.4996  0.3395 -0.2782
 8004TIP3    H123976   0.922   1.602   4.587 -0.7282  0.3456  0.5281
 8004TIP3    H223977   0.831   1.673   4.489 -0.9179  0.9006  1.1028
 8005TIP3   OH223978   2.157   5.158   2.198  0.2771 -0.3754 -0.1144
 8005TIP3    H123979   2.234   5.149   2.254  1.5427  0.1205 -1.6672
 8005TIP3    H223980   2.137   5.251   2.199  2.2278  0.2025 -2.7426
 8006TIP3   OH223981   3.089   0.919   5.617 -0.2588 -0.1839 -0.2373
 8006TIP3    H123982   3.028   0.846   5.632  1.1659 -0.9592  2.3474
 8006TIP3    H223983   3.176   0.880   5.624  0.5481  1.5344 -0.1330
 8007TIP3   OH223984   5.522   2.444   5.160  0.3306 -0.6439 -0.9522
 8007TIP3    H123985   5.492   2.509   5.097 -1.7897  0.2349  0.8265
 8007TIP3    H223986   5.442   2.403   5.192  1.2863 -0.9554  1.2365
 8008TIP3   OH223987   3.513   0.432   3.958 -0.0695  0.5510 -0.0325
 8008TIP3    H123988   3.567   0.496   4.005  0.5556  1.1980 -1.5718
 8008TIP3    H223989   3.565   0.352   3.959  0.5016  0.9017 -0.6514
 8009TIP3   OH223990   5.214   0.255   2.859  0.0195  0.0659  0.0981
 8009TIP3    H123991   5.170   0.195   2.799  1.7746 -0.0910 -1.0947
 8009TIP3    H223992   5.295   0.210   2.883 -0.9178 -0.1984  3.2111
 8010TIP3   OH223993   0.456   0.199   0.048  0.4031  0.4867 -0.5343
 8010TIP3    H123994   0.428   0.286   0.077  1.4805  0.7746 -0.2782
 8010TIP3    H223995   0.442   0.200  -0.047  0.4026  0.9539 -0.5359
 8011TIP3   OH223996   2.432   4.491   2.651 -0.3802  0.2042  0.0420
 8011TIP3    H123997   2.364   4.474   2.716  0.7683  1.8818  1.7820
 8011TIP3    H223998   2.393   4.553   2.590 -0.7782  0.2516  0.3434
 8012TIP3   OH223999   6.360   1.280   3.613 -0.1764  0.1719 -0.5313
 8012TIP3    H124000   6.336   1.257   3.702 -0.0545  2.4082  0.1365
 8012TIP3    H224001   6.450   1.250   3.604  0.1404  0.7751  0.4601
 8013TIP3   OH224002   6.954   2.888   1.841  0.3893  0.7982 -0.2083
 8013TIP3    H124003   6.925   2.887   1.932  2.2860  1.9516  0.4517
 8013TIP3    H224004   6.976   2.797   1.822  2.6198  0.9136  1.4305
 8014TIP3   OH224005   2.868   0.591   1.874 -0.2873  0.4091 -0.7389
 8014TIP3    H124006   2.941   0.647   1.846  0.5455 -1.6024 -2.9441
 8014TIP3    H224007   2.910   0.523   1.927 -0.7477  0.0156 -0.8760
 8015TIP3   OH224008   4.353   3.484   2.760 -0.1078  0.1040  0.3221
 8015TIP3    H124009   4.300   3.481   2.681  0.1437 -0.0469  0.1586
 8015TIP3    H224010   4.397   3.570   2.757  1.0176 -0.4723 -0.4360
 8016TIP3   OH224011   5.646   3.303   5.526 -0.1968 -0.8884 -0.3164
 8016TIP3    H124012   5.727   3.253   5.535 -0.3060 -1.3473 -1.6832
 8016TIP3    H224013   5.576   3.238   5.536 -0.3432 -0.9943 -1.8268
 8017TIP3   OH224014   3.811   3.749   3.133  0.0497  0.0191 -0.0407
 8017TIP3    H124015   3.768   3.664   3.142  0.9435 -0.4064  0.4306
 8017TIP3    H224016   3.884   3.733   3.073  1.4413 -0.0655  1.5849
 8018TIP3   OH224017   1.252   3.366   2.219  0.3836 -0.4113  0.3766
 8018TIP3    H124018   1.174   3.330   2.262  0.8095 -2.0135 -0.1217
 8018TIP3    H224019   1.256   3.457   2.249 -2.0548 -0.0755 -0.1088
 8019TIP3   OH224020   5.868   2.407   4.356  0.4774 -0.3651  0.3784
 8019TIP3    H124021   5.825   2.434   4.275 -0.7105  2.8308  1.9068
 8019TIP3    H224022   5.961   2.423   4.340  0.3601 -0.5997 -0.6163
 8020TIP3   OH224023   5.965   1.645   3.292  0.1255 -0.1927  0.0111
 8020TIP3    H124024   6.052   1.611   3.271  0.4372  0.0760  0.8024
 8020TIP3    H224025   5.969   1.738   3.271  0.4123  0.0585  1.1129
 8021TIP3   OH224026   4.366   5.683   3.101  0.0016 -0.0626 -0.0466
 8021TIP3    H124027   4.289   5.718   3.056  0.7164  1.1507 -0.3728
 8021TIP3    H224028   4.345   5.690   3.194 -0.7333 -0.8371 -0.1378
 8022TIP3   OH224029   6.037   5.536   2.705  0.0480 -1.1339  0.6817
 8022TIP3    H124030   6.077   5.449   2.707 -0.7507 -1.5043  1.1251
 8022TIP3    H224031   5.985   5.539   2.785 -3.0089 -1.7249 -1.1347
 8023TIP3   OH224032   1.510   1.252   3.164  0.0336 -0.0037  0.3527
 8023TIP3    H124033   1.508   1.169   3.213  0.6531  0.8373  1.8802
 8023TIP3    H224034   1.514   1.226   3.072  0.1829 -1.6639  0.7964
 8024TIP3   OH224035   5.142   4.379   1.000  0.0517 -0.1795 -0.3340
 8024TIP3    H124036   5.234   4.359   0.988  0.0161 -0.3748 -0.2795
 8024TIP3    H224037   5.096   4.299   0.975 -0.0710 -0.2724  0.1790
 8025TIP3   OH224038   2.204   5.348   1.002 -0.4420  0.3781  0.5849
 8025TIP3    H124039   2.271   5.404   1.040 -0.0539 -0.1949  0.7688
 8025TIP3    H224040   2.245   5.311   0.924 -0.6309  0.2212  0.5589
 8026TIP3   OH224041   3.910   5.387   5.711 -0.0306  0.2141 -0.1292
 8026TIP3    H124042   3.963   5.402   5.633  0.4208 -1.7412 -0.2390
 8026TIP3    H224043   3.936   5.301   5.742 -2.5046 -0.4418  0.3388
 8027TIP3   OH224044   1.209   0.491   4.044  0.0924 -0.0789 -0.0697
 8027TIP3    H124045   1.178   0.524   3.959  2.6489  0.0807 -1.0491
 8027TIP3    H224046   1.213   0.396   4.033  0.6762 -0.0386 -0.2481
 8028TIP3   OH224047   3.674   5.637   2.526 -0.4012 -0.6082  0.1697
 8028TIP3    H124048   3.683   5.725   2.490 -0.2823  0.2892  2.2506
 8028TIP3    H224049   3.584   5.612   2.505 -0.8247  0.5151  0.5496
 8029TIP3   OH224050   2.423   3.377   3.395 -0.3441  0.2510 -0.2461
 8029TIP3    H124051   2.345   3.355   3.346 -0.2816 -1.7421  0.4634
 8029TIP3    H224052   2.402   3.460   3.438 -1.6490  0.2970 -0.9388
 8030TIP3   OH224053   6.168   3.746   5.362  0.6182  0.6968 -0.6045
 8030TIP3    H124054   6.129   3.716   5.280  0.1972 -0.9408  0.1399
 8030TIP3    H224055   6.161   3.670   5.420  2.7882  1.1344  0.3082
 8031TIP3   OH224056   7.042   4.045   5.774  0.8984  0.0323 -0.2173
 8031TIP3    H124057   6.987   3.994   5.833  1.8963 -0.7698  0.0448
 8031TIP3    H224058   6.980   4.081   5.709  0.0302 -0.5249  0.2772
 8032TIP3   OH224059   1.574   1.570   5.521  0.2957 -0.5217  0.1495
 8032TIP3    H124060   1.502   1.630   5.539  2.0376  1.3809  1.2029
 8032TIP3    H224061   1.595   1.586   5.429  1.2558  1.1841  0.6156
 8033TIP3   OH224062   7.114   1.741   0.285 -0.0074 -0.4678 -0.2905
 8033TIP3    H124063   7.129   1.824   0.330  1.6155 -0.9288  0.0937
 8033TIP3    H224064   7.200   1.699   0.284 -0.5945 -1.6979 -1.3804
 8034TIP3   OH224065   6.450   3.169   1.242 -0.4407 -0.7515 -0.2512
 8034TIP3    H124066   6.522   3.222   1.209 -0.8209  0.1516  0.3319
 8034TIP3    H224067   6.374   3.227   1.240 -0.3803 -0.4173  2.7010
 8035TIP3   OH224068   3.683   0.168   5.650  0.3566 -0.4282  0.3568
 8035TIP3    H124069   3.637   0.249   5.634  1.1959  0.1498  0.7820
 8035TIP3    H224070   3.703   0.134   5.563  0.6006  0.1737  0.1752
 8036TIP3   OH224071   1.915   4.164   2.719  0.1355  0.2642  0.3537
 8036TIP3    H124072   1.870   4.220   2.656 -0.5451  0.8204  1.3097
 8036TIP3    H224073   1.845   4.129   2.774  0.5844 -1.2804 -0.0180
 8037TIP3   OH224074   1.093   5.435   4.906  0.5191 -0.2107 -0.2427
 8037TIP3    H124075   1.079   5.508   4.967 -1.8324 -0.0377 -0.9133
 8037TIP3    H224076   1.046   5.361   4.946 -0.4162 -0.2926 -1.4429
 8038TIP3   OH224077   5.199   3.707   5.813 -0.0504  0.1975  0.1313
 8038TIP3    H124078   5.228   3.795   5.787 -1.3747  0.6091 -0.0446
 8038TIP3    H224079   5.105   3.708   5.796 -0.4369 -0.5905  1.9990
 8039TIP3   OH224080   0.642   4.781   5.444 -0.1062  0.1983 -0.1345
 8039TIP3    H124081   0.647   4.859   5.499 -4.7402  1.2378 -0.7052
 8039TIP3    H224082   0.596   4.716   5.497  0.5123 -0.8669 -0.8586
 8040TIP3   OH224083   5.451   5.133   3.642 -0.7108  0.6545  0.1984
 8040TIP3    H124084   5.462   5.045   3.677 -0.6178  0.6099  0.0607
 8040TIP3    H224085   5.382   5.125   3.577 -1.4446  0.8995  0.9285
 8041TIP3   OH224086   0.195   4.217   3.418  0.1377  0.1312  0.5968
 8041TIP3    H124087   0.191   4.132   3.462  0.1349 -0.9243 -1.3108
 8041TIP3    H224088   0.122   4.215   3.356 -0.0727  1.6897  0.7441
 8042TIP3   OH224089   5.690   2.925   5.351  0.1009 -0.1549 -0.5373
 8042TIP3    H124090   5.674   2.955   5.441 -0.9099 -1.7649 -0.1475
 8042TIP3    H224091   5.633   2.980   5.297 -0.5052 -0.2614 -0.0153
 8043TIP3   OH224092   4.251   1.043   5.532  0.8080 -0.2050 -0.1213
 8043TIP3    H124093   4.343   1.060   5.551  1.4373 -2.9043 -0.3323
 8043TIP3    H224094   4.250   1.014   5.440 -0.3615  0.5117 -0.3561
 8044TIP3   OH224095   0.902   3.942   3.092 -0.4709  0.7465  0.2204
 8044TIP3    H124096   0.906   3.986   3.177 -0.3374 -0.3189  0.7905
 8044TIP3    H224097   0.867   3.855   3.112  0.3751  0.1750 -0.6896
 8045TIP3   OH224098   2.076   5.122   4.970 -0.4565  0.5088 -0.1182
 8045TIP3    H124099   1.986   5.094   4.953 -0.6348  0.3602  0.9977
 8045TIP3    H224100   2.072   5.167   5.055  0.6885 -0.3972  0.4470
 8046TIP3   OH224101   1.588   1.706   3.126 -0.6025 -0.2128 -0.1035
 8046TIP3    H124102   1.600   1.756   3.207 -1.6421 -0.1896  0.0545
 8046TIP3    H224103   1.544   1.625   3.154 -1.4976  0.0485 -0.7046
 8047TIP3   OH224104   4.008   1.256   1.821  0.0006 -0.2880 -0.0962
 8047TIP3    H124105   4.094   1.236   1.859  0.2273  1.0065  0.1251
 8047TIP3    H224106   4.029   1.288   1.733 -0.1391  1.2757  0.4248
 8048TIP3   OH224107   5.020   2.489   0.589  0.2093  0.4809  0.4780
 8048TIP3    H124108   5.064   2.461   0.508  1.1043  1.3458  0.6365
 8048TIP3    H224109   4.974   2.412   0.620  1.1017 -0.2814 -0.0582
 8049TIP3   OH224110   2.372   0.313   3.881 -0.5639  0.3799  0.2609
 8049TIP3    H124111   2.361   0.220   3.904  0.3832 -0.3579 -1.9983
 8049TIP3    H224112   2.378   0.314   3.786  0.2879  2.6798  0.2710
 8050TIP3   OH224113   4.293   1.557   1.870  0.3325  0.1559  0.2640
 8050TIP3    H124114   4.299   1.588   1.960  1.4699  0.1493  0.2030
 8050TIP3    H224115   4.252   1.629   1.822  1.8810  1.1399  0.3500
 8051TIP3   OH224116   3.494   1.340   0.917  0.3776 -0.0248 -0.0641
 8051TIP3    H124117   3.438   1.319   0.842 -3.1303  1.1485  1.9464
 8051TIP3    H224118   3.495   1.435   0.920  3.0014  0.0141 -0.2479
 8052TIP3   OH224119   4.283   5.733   1.762 -0.0511 -0.1617 -0.2402
 8052TIP3    H124120   4.271   5.801   1.828 -0.2498  0.0633 -0.5049
 8052TIP3    H224121   4.222   5.664   1.788 -1.4122  0.6478 -1.1413
 8053TIP3   OH224122   2.263   1.730   2.873 -0.2264 -0.1417 -0.2434
 8053TIP3    H124123   2.261   1.798   2.806 -0.1795  0.2593  0.1574
 8053TIP3    H224124   2.181   1.682   2.861 -0.5830  0.4149 -0.0994
 8054TIP3   OH224125   5.152   3.097   4.000 -0.3927  0.1718 -0.1948
 8054TIP3    H124126   5.086   3.133   3.941  0.0419  1.2306 -0.0536
 8054TIP3    H224127   5.182   3.017   3.957 -0.7188  0.4632 -0.9740
 8055TIP3   OH224128   6.224   5.694   2.594 -0.0959 -0.2021  0.5523
 8055TIP3    H124129   6.146   5.646   2.622 -0.5721 -0.0926 -0.5340
 8055TIP3    H224130   6.227   5.770   2.653 -1.3993  0.3350 -0.0165
 8056TIP3   OH224131   4.821   6.529   2.076 -0.6338 -0.4855 -0.0259
 8056TIP3    H124132   4.877   6.604   2.055  0.5500 -1.4961 -0.6337
 8056TIP3    H224133   4.786   6.549   2.162 -0.6246  0.9249 -0.3269
 8057TIP3   OH224134   3.370   1.886   2.221  0.2529  0.0782  0.1602
 8057TIP3    H124135   3.305   1.875   2.290 -0.5080  0.6148 -0.4531
 8057TIP3    H224136   3.328   1.944   2.157  0.7500 -0.7987 -0.9962
 8058TIP3   OH224137   5.677   5.290   0.364  0.3884  0.0426 -0.2398
 8058TIP3    H124138   5.680   5.335   0.279 -1.9871 -0.2778 -0.5677
 8058TIP3    H224139   5.721   5.207   0.348  0.5656  0.2695 -0.9878
 8059TIP3   OH224140   1.313   0.032   3.734  0.4413 -0.2426 -0.4161
 8059TIP3    H124141   1.333   0.041   3.827 -0.8285  0.6379 -0.2056
 8059TIP3    H224142   1.386   0.074   3.689  1.5698 -1.5517  0.1206
 8060TIP3   OH224143   4.699   5.318   4.410 -0.5775 -0.1391 -0.1677
 8060TIP3    H124144   4.611   5.331   4.374  0.2533  1.9931 -1.6271
 8060TIP3    H224145   4.753   5.381   4.363  1.7253 -1.2918  0.8085
 8061TIP3   OH224146   4.399   4.194   1.986 -0.2647  0.0861 -0.8701
 8061TIP3    H124147   4.389   4.116   1.932 -0.5076  0.2085 -1.0068
 8061TIP3    H224148   4.492   4.215   1.981 -0.3422  0.2923 -1.5189
 8062TIP3   OH224149   4.950   5.025   2.924  0.2333  0.2224  0.0619
 8062TIP3    H124150   4.909   5.062   2.845  0.2706 -1.6747 -0.9046
 8062TIP3    H224151   4.881   5.026   2.990 -0.5832 -0.4667 -0.7591
 8063TIP3   OH224152   0.862   0.566   0.472 -0.0556  0.4207  0.1954
 8063TIP3    H124153   0.873   0.498   0.539 -0.1795  0.9763  0.7991
 8063TIP3    H224154   0.810   0.634   0.516 -0.8182  0.4478 -0.7250
 8064TIP3   OH224155   0.199   0.955   2.096 -0.0276 -0.1258 -0.2604
 8064TIP3    H124156   0.195   0.860   2.093 -0.7355 -0.1070 -3.8198
 8064TIP3    H224157   0.293   0.975   2.098  0.1846 -0.7369  3.2768
 8065TIP3   OH224158   7.046   1.395   3.205 -0.3193 -0.0206 -0.4251
 8065TIP3    H124159   6.993   1.324   3.168 -1.3776  1.0244 -0.9828
 8065TIP3    H224160   7.028   1.470   3.148  3.1449 -0.0118 -1.7817
 8066TIP3   OH224161   2.881   3.547   0.336  0.5994  0.4724 -0.0517
 8066TIP3    H124162   2.881   3.514   0.426 -0.1990  0.1336 -0.1686
 8066TIP3    H224163   2.973   3.563   0.316  0.7118  1.4913  1.1689
 8067TIP3   OH224164   6.120   2.004   0.090 -0.2622 -0.4240  0.1090
 8067TIP3    H124165   6.122   2.089   0.135 -1.0099 -0.7354  0.7494
 8067TIP3    H224166   6.059   2.018   0.017 -0.7153 -0.5161  0.4607
 8068TIP3   OH224167   2.319   5.214   1.216 -0.7208 -0.4592  0.1310
 8068TIP3    H124168   2.259   5.230   1.143 -0.3826 -0.9166 -0.2508
 8068TIP3    H224169   2.386   5.157   1.180 -1.4631 -2.0835  1.2400
 8069TIP3   OH224170   4.613   0.704   3.212  0.0536 -0.6507  0.1548
 8069TIP3    H124171   4.524   0.680   3.240  0.6695 -2.5067  0.7035
 8069TIP3    H224172   4.657   0.620   3.199  2.1083  0.2063  1.1249
 8070TIP3   OH224173   6.071   2.806   4.299 -0.0547  0.0265  0.6026
 8070TIP3    H124174   6.129   2.876   4.327 -0.9124  0.4871  1.2851
 8070TIP3    H224175   6.101   2.729   4.348  2.2396 -0.6806 -1.6959
 8071TIP3   OH224176   0.981   0.834   3.951  0.3232 -0.4913 -0.1910
 8071TIP3    H124177   1.065   0.876   3.935  0.7270 -0.7670  1.1044
 8071TIP3    H224178   0.950   0.808   3.864  1.2628  0.1918 -0.7473
 8072TIP3   OH224179   5.772   1.207   2.330  0.4601  0.2598  0.0726
 8072TIP3    H124180   5.791   1.241   2.243  1.1197 -0.7237 -0.1938
 8072TIP3    H224181   5.677   1.210   2.338  0.2575 -1.0910 -1.3231
 8073TIP3   OH224182   2.548   5.092   3.054 -0.7562 -0.3822 -0.2522
 8073TIP3    H124183   2.596   5.051   2.982  0.4991  1.4756 -0.5542
 8073TIP3    H224184   2.529   5.181   3.023 -0.7247  0.2706  1.4651
 8074TIP3   OH224185   1.224   6.029   5.026  0.1247 -0.3762  0.0397
 8074TIP3    H124186   1.231   6.005   4.933 -0.3578 -0.7104  0.0880
 8074TIP3    H224187   1.297   5.984   5.067 -0.1100 -0.8538 -0.0569
 8075TIP3   OH224188   4.856   1.964   0.354  0.3511  0.0227 -0.0925
 8075TIP3    H124189   4.818   1.882   0.386 -0.2316  0.2719 -0.1412
 8075TIP3    H224190   4.794   1.996   0.288  0.6569  0.4216 -0.1953
 8076TIP3   OH224191   4.525   4.874   4.933 -0.6195 -0.3990  0.3413
 8076TIP3    H124192   4.460   4.813   4.898 -1.0066 -1.1378  2.2478
 8076TIP3    H224193   4.544   4.842   5.021  1.6692  0.3375  0.1873
 8077TIP3   OH224194   5.252   4.680   4.154 -0.3355  0.3532  0.8361
 8077TIP3    H124195   5.284   4.770   4.152 -1.1845  0.6723 -1.4742
 8077TIP3    H224196   5.332   4.627   4.148  0.0728  1.0073  0.2565
 8078TIP3   OH224197   0.884   3.774   1.409 -0.3049 -0.5907  0.1453
 8078TIP3    H124198   0.895   3.679   1.403 -2.3741 -1.1128  2.9605
 8078TIP3    H224199   0.947   3.801   1.475  0.4516  0.0865 -0.8252
 8079TIP3   OH224200   2.521   0.521   4.837  0.6878 -0.3930 -0.5882
 8079TIP3    H124201   2.606   0.566   4.838  0.7189 -0.3972 -1.8973
 8079TIP3    H224202   2.542   0.429   4.852  0.6564 -0.0931  1.7302
 8080TIP3   OH224203   5.745   3.757   5.218 -0.3237 -0.2330 -0.3457
 8080TIP3    H124204   5.828   3.728   5.179  0.8546  0.8027  1.3208
 8080TIP3    H224205   5.740   3.710   5.301 -1.4179 -0.2567 -0.4117
 8081TIP3   OH224206   3.981   1.824   2.281 -0.6341  0.5888 -0.2330
 8081TIP3    H124207   4.077   1.816   2.279 -0.6898 -0.7932  1.1647
 8081TIP3    H224208   3.957   1.807   2.372 -2.1630  1.7445 -0.3822
 8082TIP3   OH224209   4.793   6.457   4.695 -0.1580  0.6102 -0.5482
 8082TIP3    H124210   4.743   6.464   4.614 -0.9141 -1.1279 -0.2888
 8082TIP3    H224211   4.735   6.493   4.762  0.0883  1.1795 -0.6360
 8083TIP3   OH224212   5.389   6.720   1.101 -0.1624 -0.7387  0.4224
 8083TIP3    H124213   5.400   6.793   1.039  1.8953 -1.0208  0.3868
 8083TIP3    H224214   5.331   6.659   1.056 -0.1997 -0.0786 -0.4501
 8084TIP3   OH224215   2.894   5.728   4.921 -0.5923 -0.6083 -0.3974
 8084TIP3    H124216   2.800   5.723   4.941 -0.1656 -0.6727  1.8085
 8084TIP3    H224217   2.937   5.681   4.993  1.2154  0.9528 -0.3644
 8085TIP3   OH224218   2.119   0.358   2.023  0.2152 -0.2020 -0.1201
 8085TIP3    H124219   2.110   0.453   2.029 -1.5984 -0.3721  0.4336
 8085TIP3    H224220   2.213   0.344   2.012  0.2880  1.7540 -3.0291
 8086TIP3   OH224221   6.413   5.040   5.055  0.3165  0.3080 -0.1373
 8086TIP3    H124222   6.508   5.039   5.058  0.3055 -0.4833  0.9058
 8086TIP3    H224223   6.387   4.960   5.102 -0.8255 -0.7196 -2.3801
 8087TIP3   OH224224   4.764   0.780   1.261 -0.6254 -0.0190  0.2492
 8087TIP3    H124225   4.693   0.728   1.224  0.0049 -0.2530 -0.6439
 8087TIP3    H224226   4.804   0.824   1.186  0.7289 -0.5770  0.6148
 8088TIP3   OH224227   0.117   5.670   5.155 -0.2164 -0.1315  0.2852
 8088TIP3    H124228   0.197   5.707   5.193 -0.0999 -1.5963  1.5997
 8088TIP3    H224229   0.149   5.601   5.096 -0.4924  0.0964 -0.1359
 8089TIP3   OH224230   4.386   5.925   2.098  0.6164 -0.2562  0.2401
 8089TIP3    H124231   4.318   5.943   2.032  1.1142  0.9156  0.0181
 8089TIP3    H224232   4.399   6.010   2.141  0.9170 -0.8136  1.2652
 8090TIP3   OH224233   6.477   0.808   0.729 -0.0511  0.4805  0.4771
 8090TIP3    H124234   6.557   0.755   0.736 -0.1861  0.2283  0.1240
 8090TIP3    H224235   6.431   0.793   0.812 -0.6567 -0.8952 -0.0748
 8091TIP3   OH224236   4.493   4.141   2.932 -0.1907  0.5051  0.3702
 8091TIP3    H124237   4.417   4.157   2.875 -0.0962  0.3090  0.1891
 8091TIP3    H224238   4.512   4.226   2.971 -1.6726  0.2094  1.8720
 8092TIP3   OH224239   3.193   6.525   0.560 -0.1100 -0.2228  0.2032
 8092TIP3    H124240   3.100   6.537   0.578 -0.0628  3.0190 -1.0925
 8092TIP3    H224241   3.237   6.565   0.635  0.1907  0.5332 -0.3680
 8093TIP3   OH224242   2.948   6.373   2.379  0.2352 -0.5239  1.0122
 8093TIP3    H124243   2.960   6.401   2.288 -3.3660 -0.3218  0.4813
 8093TIP3    H224244   2.997   6.291   2.385 -1.2115 -1.7490 -1.8565
 8094TIP3   OH224245   3.416   2.646   5.758  0.8277 -0.1625 -0.0661
 8094TIP3    H124246   3.322   2.633   5.745  0.6418 -0.7729  1.5712
 8094TIP3    H224247   3.457   2.568   5.719  0.5903 -0.2669 -0.1089
 8095TIP3   OH224248   6.348   1.986   1.954  0.6305  0.0133 -0.1234
 8095TIP3    H124249   6.399   2.052   2.002  1.6320  1.2157 -2.6608
 8095TIP3    H224250   6.302   1.938   2.022  0.5234  2.7598  1.9394
 8096TIP3   OH224251   6.805   1.867   2.355  0.0543  0.3157  0.4296
 8096TIP3    H124252   6.781   1.934   2.419  1.9344 -0.3208  1.9184
 8096TIP3    H224253   6.896   1.886   2.334 -0.1236 -0.3279 -1.0126
 8097TIP3   OH224254   1.848   5.070   3.340 -0.4675  0.3119  0.2468
 8097TIP3    H124255   1.822   5.156   3.373  0.6747  0.3099  1.2343
 8097TIP3    H224256   1.927   5.087   3.289 -0.6623 -0.0614 -0.1866
 8098TIP3   OH224257   6.470   6.624   3.154 -0.5274 -0.1091  0.2620
 8098TIP3    H124258   6.549   6.620   3.206 -0.1000  0.8701 -0.2893
 8098TIP3    H224259   6.480   6.702   3.099 -1.3822 -0.5686 -0.5947
 8099TIP3   OH224260   0.906   3.286   4.087 -0.1520 -0.3015  0.0304
 8099TIP3    H124261   0.976   3.221   4.088  0.6603  0.5344 -0.7525
 8099TIP3    H224262   0.828   3.237   4.061 -0.0011 -1.3437  1.4060
 8100TIP3   OH224263   4.370   6.358   1.028  0.6160  0.1938  0.4100
 8100TIP3    H124264   4.382   6.335   0.936 -2.1046 -2.5678  0.5931
 8100TIP3    H224265   4.311   6.433   1.026 -0.0200 -0.3006 -0.1424
 8101TIP3   OH224266   0.412   2.058   4.178  0.1692  0.0568  0.1193
 8101TIP3    H124267   0.373   2.012   4.253  2.4824 -1.8918  0.2633
 8101TIP3    H224268   0.469   2.124   4.217  0.1071  0.1712  0.0179
 8102TIP3   OH224269   1.043   5.229   3.391  0.0403 -0.6193 -0.1483
 8102TIP3    H124270   1.000   5.257   3.310 -1.3067  0.9338  1.0440
 8102TIP3    H224271   0.977   5.174   3.435  0.0983 -0.0333  0.6848
 8103TIP3   OH224272   4.717   1.862   3.649 -0.1267  0.2847  0.5266
 8103TIP3    H124273   4.747   1.851   3.739  1.2712  1.0183  0.1766
 8103TIP3    H224274   4.677   1.778   3.627 -0.6394  0.1445  1.8696
 8104TIP3   OH224275   5.807   3.736   5.709 -0.0671 -0.1269 -0.2853
 8104TIP3    H124276   5.775   3.712   5.622 -0.3402 -1.0914  0.0670
 8104TIP3    H224277   5.894   3.696   5.714  0.1747  0.3936 -0.3196
 8105TIP3   OH224278   5.245   3.855   3.478  0.1152 -0.4077 -0.5873
 8105TIP3    H124279   5.273   3.778   3.529  0.4069 -1.4046 -2.1940
 8105TIP3    H224280   5.317   3.872   3.418  0.6749  2.0359  0.6480
 8106TIP3   OH224281   4.913   5.124   1.635  0.1250  0.0800 -0.5991
 8106TIP3    H124282   4.903   5.212   1.599 -0.4576  1.0181  1.6872
 8106TIP3    H224283   4.837   5.076   1.603 -0.9731  1.2069  0.2491
 8107TIP3   OH224284   0.892   4.199   2.502 -0.8314 -0.3279 -0.1531
 8107TIP3    H124285   0.967   4.176   2.557 -1.5778  1.4787  1.7712
 8107TIP3    H224286   0.878   4.122   2.446  2.4127 -0.7194 -0.5986
 8108TIP3   OH224287   1.504   5.208   0.669 -1.0847  0.1136  0.1395
 8108TIP3    H124288   1.438   5.237   0.606 -0.7847 -0.4860 -0.4758
 8108TIP3    H224289   1.473   5.122   0.698 -0.9981  0.1962  0.4769
 8109TIP3   OH224290   3.932   3.682   0.330  0.0491 -0.1396  0.3128
 8109TIP3    H124291   3.916   3.701   0.422  1.6186 -0.3531  0.6469
 8109TIP3    H224292   3.994   3.609   0.330 -0.6351 -0.7553 -0.9216
 8110TIP3   OH224293   0.730   6.782   2.316 -0.0452  0.0707 -0.2990
 8110TIP3    H124294   0.718   6.713   2.382  0.4499  2.0804  2.0424
 8110TIP3    H224295   0.644   6.823   2.309  0.2449  0.7771  0.2060
 8111TIP3   OH224296   6.382   0.142   4.783  0.4145 -0.4523  0.3990
 8111TIP3    H124297   6.328   0.139   4.862  0.2478  0.5749  0.3391
 8111TIP3    H224298   6.472   0.136   4.815  0.5339  2.7084  0.9813
 8112TIP3   OH224299   3.017   0.039   4.772 -0.0824 -0.0999  0.0254
 8112TIP3    H124300   2.990  -0.041   4.728 -2.2054  0.7677 -0.3741
 8112TIP3    H224301   3.029   0.103   4.702 -0.4214  0.4640  0.4662
 8113TIP3   OH224302   6.535   0.587   3.768  0.8404  0.2614 -0.0992
 8113TIP3    H124303   6.490   0.504   3.756 -2.4365  1.5665  1.7914
 8113TIP3    H224304   6.522   0.633   3.684  1.4282 -0.5449 -0.6478
 8114TIP3   OH224305   2.747   6.009   2.302 -0.1500  0.1710 -0.0955
 8114TIP3    H124306   2.755   6.036   2.210  0.6588  0.7394  0.1337
 8114TIP3    H224307   2.780   5.919   2.303  0.3563  0.3466 -0.2804
 8115TIP3   OH224308   4.839   3.343   4.678  0.1609  0.0468  0.8600
 8115TIP3    H124309   4.889   3.413   4.721  0.4513 -0.2108  0.9483
 8115TIP3    H224310   4.857   3.354   4.585 -0.0363  0.2754  0.8490
 8116TIP3   OH224311   3.546   2.573   4.018  0.2842  0.8512  0.6145
 8116TIP3    H124312   3.565   2.584   4.111 -1.2311 -1.2213  1.2436
 8116TIP3    H224313   3.604   2.503   3.990 -0.0909  0.6707  0.2899
 8117TIP3   OH224314   1.653   3.433   3.841  0.4038  0.0334 -0.0584
 8117TIP3    H124315   1.746   3.438   3.863  0.0977  1.6418  1.0507
 8117TIP3    H224316   1.631   3.521   3.809 -0.6004 -0.5130 -0.9546
 8118TIP3   OH224317   6.932   6.602   0.085  0.1663 -0.2158 -0.5113
 8118TIP3    H124318   6.942   6.530   0.022 -1.9251 -0.5650 -0.5221
 8118TIP3    H224319   6.872   6.568   0.151 -1.3425  1.6796 -0.8174
 8119TIP3   OH224320   4.024   1.655   3.075 -0.5329  0.3723  0.0689
 8119TIP3    H124321   3.987   1.726   3.128  0.5544  1.3546 -0.4422
 8119TIP3    H224322   3.955   1.633   3.013 -0.7389  1.2749 -0.0280
 8120TIP3   OH224323   1.125   3.418   5.473  0.2504 -0.1928  0.3495
 8120TIP3    H124324   1.137   3.510   5.450 -1.8880 -0.3201 -1.6835
 8120TIP3    H224325   1.046   3.417   5.526 -1.8515 -1.0740 -2.5502
 8121TIP3   OH224326   2.235   3.487   2.321 -0.2980  0.4218 -0.8739
 8121TIP3    H124327   2.150   3.443   2.315  0.0003 -0.0964 -1.3988
 8121TIP3    H224328   2.245   3.508   2.414 -0.2699 -0.9886 -0.5388
 8122TIP3   OH224329   2.793   4.522   2.360  0.0368 -0.0796 -0.0902
 8122TIP3    H124330   2.728   4.453   2.376  0.9598 -1.5940 -2.3357
 8122TIP3    H224331   2.747   4.604   2.378 -1.6356 -1.1894  0.9809
 8123TIP3   OH224332   6.989   5.737   1.996  0.1640  0.1105 -0.1051
 8123TIP3    H124333   7.064   5.714   2.049  0.1992 -0.8204 -0.5466
 8123TIP3    H224334   6.914   5.701   2.043  0.1199 -0.0342 -0.2822
 8124TIP3   OH224335   3.500   2.060   5.277  0.2093  0.8201 -0.2073
 8124TIP3    H124336   3.544   1.977   5.257 -2.6641 -1.1381  0.9075
 8124TIP3    H224337   3.474   2.094   5.192 -1.1153 -1.0107 -0.6012
 8125TIP3   OH224338   3.690   4.371   0.391  0.0277  0.1971  0.4052
 8125TIP3    H124339   3.776   4.396   0.357 -0.2723  1.2725  0.3758
 8125TIP3    H224340   3.631   4.436   0.354 -1.0000 -1.2051 -0.5004
 8126TIP3   OH224341   2.158   4.111   1.775 -0.0105 -0.3428 -0.0774
 8126TIP3    H124342   2.162   4.084   1.867  0.6590  1.1552  0.3522
 8126TIP3    H224343   2.067   4.136   1.762 -0.0206 -0.1739  0.2933
 8127TIP3   OH224344   4.380   1.246   0.554  0.1771 -0.1585 -0.1211
 8127TIP3    H124345   4.372   1.316   0.619  0.9655 -0.9261  0.8455
 8127TIP3    H224346   4.340   1.170   0.596  0.8148 -0.6977 -0.4677
 8128TIP3   OH224347   6.860   3.096   0.619  0.5020 -0.1893 -0.2393
 8128TIP3    H124348   6.866   3.187   0.590  0.2056 -0.0582  0.0983
 8128TIP3    H224349   6.905   3.046   0.552  2.2743  0.3737  0.4765
 8129TIP3   OH224350   5.128   6.536   1.566 -0.6988  0.3938 -0.0920
 8129TIP3    H124351   5.075   6.476   1.513  1.5446 -0.9660 -0.9699
 8129TIP3    H224352   5.110   6.510   1.656  0.4308 -1.9371 -0.4511
 8130TIP3   OH224353   3.501   5.160   0.621  0.3422  0.2005  0.6925
 8130TIP3    H124354   3.515   5.224   0.691 -1.7217  2.6929 -0.9793
 8130TIP3    H224355   3.574   5.175   0.561  1.1073 -0.6684  1.3743
 8131TIP3   OH224356   1.133   0.718   3.266 -0.2306 -0.0218 -0.0357
 8131TIP3    H124357   1.106   0.646   3.322 -2.4365  1.2520  0.6574
 8131TIP3    H224358   1.227   0.729   3.284 -0.4482 -0.9685  1.8625
 8132TIP3   OH224359   2.327   6.634   3.778  0.6575 -0.1326  0.4803
 8132TIP3    H124360   2.350   6.701   3.842 -0.1500  0.5107  0.1191
 8132TIP3    H224361   2.393   6.641   3.709  1.9199 -1.2676  1.5181
 8133TIP3   OH224362   6.505   1.539   2.012 -0.1848 -0.2211  0.1297
 8133TIP3    H124363   6.547   1.615   2.052  0.6407  0.9422 -2.7151
 8133TIP3    H224364   6.554   1.464   2.046  1.9954  0.8719 -0.4101
 8134TIP3   OH224365   6.782   6.073   0.861 -0.1171 -0.0365  0.3287
 8134TIP3    H124366   6.735   6.129   0.800 -0.4393  1.8823  2.2095
 8134TIP3    H224367   6.788   5.988   0.817 -1.1017  0.9947 -1.9363
 8135TIP3   OH224368   2.805   4.168   4.292  0.4262  0.0401 -0.4440
 8135TIP3    H124369   2.818   4.087   4.242  0.9637 -0.8112  1.0151
 8135TIP3    H224370   2.852   4.153   4.374 -0.8731  1.1711  0.5517
 8136TIP3   OH224371   5.765   5.138   5.285 -0.0332  0.1643  0.4811
 8136TIP3    H124372   5.812   5.120   5.366  0.5850  1.5568  0.4613
 8136TIP3    H224373   5.677   5.163   5.313 -0.4530 -1.3208  0.5819
 8137TIP3   OH224374   0.754   5.976   1.524  0.2440 -0.2842 -0.3477
 8137TIP3    H124375   0.761   5.989   1.619 -1.1816 -1.6632 -0.0065
 8137TIP3    H224376   0.693   6.043   1.495 -0.7302 -0.9732  0.0413
 8138TIP3   OH224377   1.107   2.154   2.280  0.9834 -0.3615  0.3580
 8138TIP3    H124378   1.162   2.154   2.202  1.5734  0.2233  0.7692
 8138TIP3    H224379   1.080   2.245   2.290  0.6909 -0.4839  0.6907
 8139TIP3   OH224380   0.085   3.978   4.230 -0.2493 -0.5047  0.3643
 8139TIP3    H124381   0.036   4.027   4.163  0.1977 -2.9292 -1.9239
 8139TIP3    H224382   0.168   3.956   4.188  0.3701 -1.4934  2.0104
 8140TIP3   OH224383   0.218   5.472   5.005 -0.4242 -0.1200 -0.6549
 8140TIP3    H124384   0.216   5.485   4.911  0.0995  2.1568 -0.4143
 8140TIP3    H224385   0.218   5.377   5.017  0.6630 -0.4595 -2.9658
 8141TIP3   OH224386   5.061   1.281   0.016  0.2777 -0.1406 -0.4833
 8141TIP3    H124387   5.041   1.345   0.084 -1.6461 -1.9254  0.7316
 8141TIP3    H224388   5.116   1.216   0.059 -1.1266 -1.3982 -0.4995
 8142TIP3   OH224389   5.434   1.280   3.457 -0.0343  0.0311  0.2982
 8142TIP3    H124390   5.405   1.350   3.515 -0.0111  1.1641 -0.9853
 8142TIP3    H224391   5.454   1.325   3.375 -2.3564 -1.7623 -1.3892
 8143TIP3   OH224392   0.862   6.668   0.481  0.5877 -0.1606 -0.2925
 8143TIP3    H124393   0.787   6.708   0.437 -0.6355 -2.3078 -0.2906
 8143TIP3    H224394   0.912   6.627   0.410  0.6783 -0.4114 -0.0853
 8144TIP3   OH224395   1.875   4.499   0.740 -0.1642  0.5569  0.3332
 8144TIP3    H124396   1.839   4.587   0.737  0.9930  1.1327  1.9321
 8144TIP3    H224397   1.946   4.504   0.804 -0.6521 -1.7310  1.1652
 8145TIP3   OH224398   6.550   1.917   4.968 -0.2465  0.1330  0.5673
 8145TIP3    H124399   6.582   1.910   5.058  1.0748  1.7653  0.2656
 8145TIP3    H224400   6.605   1.857   4.918  0.5212  0.8752  0.5045
 8146TIP3   OH224401   4.524   3.937   1.109  0.1628 -0.4106 -0.4835
 8146TIP3    H124402   4.469   3.959   1.033  0.0364  0.3272 -0.1810
 8146TIP3    H224403   4.562   3.852   1.086  0.0014 -0.2754 -1.3059
 8147TIP3   OH224404   4.713   2.200   2.774  0.2683  0.2673 -0.1574
 8147TIP3    H124405   4.792   2.182   2.825  0.2310  1.2327  0.2537
 8147TIP3    H224406   4.692   2.291   2.793  0.2088  0.6368 -1.8312
 8148TIP3   OH224407   0.642   4.090   4.263 -0.3030  0.1015 -0.1175
 8148TIP3    H124408   0.697   4.142   4.204  0.0472  0.4788  0.5201
 8148TIP3    H224409   0.555   4.129   4.256  0.4848  2.6898  2.4082
 8149TIP3   OH224410   3.800   0.510   3.059  0.7954 -0.3167  0.2135
 8149TIP3    H124411   3.758   0.446   3.117  1.1566 -0.0389  0.7998
 8149TIP3    H224412   3.793   0.472   2.972  1.7349 -1.5483  0.6515
 8150TIP3   OH224413   6.928   4.740   3.765  0.2178  0.4648 -0.2125
 8150TIP3    H124414   6.846   4.720   3.811  0.4844 -1.0200 -0.3470
 8150TIP3    H224415   6.994   4.687   3.809  0.8018  0.3749 -1.1601
 8151TIP3   OH224416   4.055   4.649   2.870 -0.7780 -0.3751 -0.0000
 8151TIP3    H124417   3.985   4.713   2.878 -1.1953 -0.5844 -1.6552
 8151TIP3    H224418   4.129   4.689   2.915 -1.3445  0.7943 -0.0637
 8152TIP3   OH224419   0.574   6.609   0.260  0.3079 -0.3801  0.3866
 8152TIP3    H124420   0.621   6.688   0.236  0.1169 -0.1114  0.8887
 8152TIP3    H224421   0.514   6.593   0.187 -1.0923  1.0753  1.1599
 8153TIP3   OH224422   4.076   3.240   1.734  0.3314 -0.4910  0.1161
 8153TIP3    H124423   4.097   3.166   1.678  0.8253  0.4507 -0.9726
 8153TIP3    H224424   3.982   3.231   1.752  0.2675 -1.0502 -0.4825
 8154TIP3   OH224425   5.666   6.722   5.339 -0.3728 -0.6346 -0.1901
 8154TIP3    H124426   5.593   6.661   5.331 -0.7712 -0.1587 -0.1917
 8154TIP3    H224427   5.641   6.782   5.408  0.2595 -0.7955  0.1903
 8155TIP3   OH224428   7.004   3.802   1.547 -0.3701 -0.1137 -0.1348
 8155TIP3    H124429   7.060   3.826   1.621 -1.1424 -1.1995  0.8375
 8155TIP3    H224430   7.062   3.752   1.489 -0.3061 -1.3111  0.9089
 8156TIP3   OH224431   2.579   4.539   3.949 -0.7699  0.0490  0.1654
 8156TIP3    H124432   2.590   4.444   3.942 -0.3859  0.1618 -0.9719
 8156TIP3    H224433   2.528   4.562   3.872 -0.9684  0.7565  0.5071
 8157TIP3   OH224434   6.043   6.154   0.211 -0.2076  0.1558  0.5675
 8157TIP3    H124435   5.955   6.147   0.172 -0.0188 -1.7396  0.3754
 8157TIP3    H224436   6.042   6.091   0.283  1.1078 -0.2199  0.2898
 8158TIP3   OH224437   0.551   4.233   2.467 -0.0905  0.1750 -0.0737
 8158TIP3    H124438   0.618   4.186   2.417  0.2491  0.0332  0.5045
 8158TIP3    H224439   0.565   4.205   2.558 -1.1449 -0.1079  0.0134
 8159TIP3   OH224440   1.273   5.126   5.781 -0.0067  0.1565  0.1910
 8159TIP3    H124441   1.254   5.049   5.729 -1.1800  0.0968  0.6706
 8159TIP3    H224442   1.274   5.199   5.718 -1.4598  0.0960  0.0780
 8160TIP3   OH224443   4.298   1.083   2.172 -0.4088 -0.3791 -0.6832
 8160TIP3    H124444   4.202   1.086   2.174 -0.3758  0.7856 -0.0830
 8160TIP3    H224445   4.318   0.992   2.148 -1.6532 -0.7240 -0.5165
 8161TIP3   OH224446   3.467   3.334   5.477  0.3918  0.2438  1.0090
 8161TIP3    H124447   3.465   3.430   5.468  1.3108  0.4150  2.4371
 8161TIP3    H224448   3.487   3.303   5.388  5.5569  1.6780  1.3099
 8162TIP3   OH224449   1.948   4.999   3.908 -0.6439  0.4073  0.3369
 8162TIP3    H124450   2.036   4.961   3.916 -1.4815 -1.5098  0.8122
 8162TIP3    H224451   1.917   4.971   3.822 -1.3659 -0.1944  0.7869
 8163TIP3   OH224452   0.951   2.377   3.859 -0.0280  0.6817 -0.1718
 8163TIP3    H124453   0.885   2.413   3.800 -0.2169  1.7964  0.6868
 8163TIP3    H224454   0.976   2.451   3.916  0.3841 -0.2670  0.9227
 8164TIP3   OH224455   2.098   0.764   2.646  0.1295  0.1707 -0.6473
 8164TIP3    H124456   2.170   0.816   2.611  0.8812 -0.6701 -0.3837
 8164TIP3    H224457   2.106   0.680   2.601 -0.8933  0.1754 -0.8584
 8165TIP3   OH224458   3.094   0.330   3.852  0.0118 -0.0312 -0.1754
 8165TIP3    H124459   3.117   0.252   3.902  1.6546 -0.0411 -0.8703
 8165TIP3    H224460   3.110   0.403   3.911 -1.9434 -0.1868  0.6244
 8166TIP3   OH224461   0.284   1.372   0.927 -0.6719  0.1023 -0.2839
 8166TIP3    H124462   0.373   1.338   0.937  0.1791  2.2747  0.0324
 8166TIP3    H224463   0.240   1.350   1.009 -0.4533 -1.0199 -0.4578
 8167TIP3   OH224464   1.837   6.233   0.460 -0.1552 -0.7765 -0.3686
 8167TIP3    H124465   1.784   6.312   0.456 -0.1315 -0.7559 -0.2726
 8167TIP3    H224466   1.914   6.258   0.510 -0.1292 -0.8499 -0.3714
 8168TIP3   OH224467   6.816   3.183   1.004 -0.9356 -0.2144  0.0873
 8168TIP3    H124468   6.908   3.158   1.003 -1.0418 -0.6430 -1.0780
 8168TIP3    H224469   6.769   3.100   0.993 -1.3694  0.2198 -1.6053
 8169TIP3   OH224470   0.966   1.702   2.614 -0.6197 -0.2550  0.1830
 8169TIP3    H124471   0.945   1.720   2.706 -1.2699 -0.8289  0.1589
 8169TIP3    H224472   0.958   1.787   2.571 -1.1370 -0.1279  0.5147
 8170TIP3   OH224473   3.482   0.863   0.039 -0.1182  1.0512 -0.2571
 8170TIP3    H124474   3.534   0.787   0.063 -1.7019  0.4356  1.4160
 8170TIP3    H224475   3.446   0.841  -0.048  0.7936  0.6489 -0.5441
 8171TIP3   OH224476   2.552   3.660   1.690  0.1215  0.0943  0.2496
 8171TIP3    H124477   2.478   3.599   1.684  0.8006 -0.7132 -0.0264
 8171TIP3    H224478   2.526   3.721   1.759 -0.2077 -1.0091  1.1373
 8172TIP3   OH224479   3.390   3.593   5.730  0.0414 -0.1700 -0.0877
 8172TIP3    H124480   3.403   3.592   5.825 -2.4166  1.3895  0.3513
 8172TIP3    H224481   3.358   3.505   5.709 -1.4155  0.0944  0.9118
 8173TIP3   OH224482   6.348   6.711   5.489  0.3656 -0.3749  0.2167
 8173TIP3    H124483   6.347   6.643   5.421 -0.1256  0.3454 -0.5249
 8173TIP3    H224484   6.431   6.697   5.535  0.8583 -0.6986 -0.7340
 8174TIP3   OH224485   4.267   3.826   2.138 -0.0150  0.9327  0.0529
 8174TIP3    H124486   4.181   3.866   2.122 -1.6983 -2.6969 -1.1716
 8174TIP3    H224487   4.291   3.788   2.053  2.8997  1.9084  0.3545
 8175TIP3   OH224488   3.846   2.452   3.112 -0.4608  0.2336  0.1501
 8175TIP3    H124489   3.929   2.497   3.096 -1.2340  1.2347 -1.2060
 8175TIP3    H224490   3.779   2.512   3.079 -1.5612 -1.8385 -1.6000
 8176TIP3   OH224491   5.051   2.260   1.028 -0.5245 -0.3225 -0.3575
 8176TIP3    H124492   5.107   2.269   1.105 -2.9645  0.9238  1.4034
 8176TIP3    H224493   4.983   2.199   1.056 -1.9155  0.7849 -1.2209
 8177TIP3   OH224494   0.737   2.288   2.172 -0.3848 -0.1551 -0.0056
 8177TIP3    H124495   0.653   2.334   2.169 -0.1138  0.4191  0.9284
 8177TIP3    H224496   0.719   2.202   2.133 -1.2837  0.1452 -0.2644
 8178TIP3   OH224497   4.335   0.922   5.146  0.5032  0.5266  0.4124
 8178TIP3    H124498   4.381   0.919   5.063  1.0758  1.8650  0.6430
 8178TIP3    H224499   4.385   0.985   5.198 -1.6364  2.1415  0.6396
 8179TIP3   OH224500   6.194   1.023   5.502 -0.5557  0.3528  0.2826
 8179TIP3    H124501   6.177   1.024   5.596  1.6404 -0.5996  0.7464
 8179TIP3    H224502   6.289   1.013   5.494 -0.6386  0.7590 -2.0453
 8180TIP3   OH224503   3.306   0.274   1.291 -0.3148  0.2047 -0.9097
 8180TIP3    H124504   3.300   0.218   1.368  0.0346  2.1468  0.5979
 8180TIP3    H224505   3.268   0.357   1.319  2.3963  1.8832 -1.8998
 8181TIP3   OH224506   1.265   2.501   1.918  0.1666 -0.2592 -0.0468
 8181TIP3    H124507   1.285   2.580   1.969 -1.3521  1.0687 -1.3998
 8181TIP3    H224508   1.206   2.451   1.975  1.7371 -0.8495  1.1326
 8182TIP3   OH224509   2.310   4.587   3.428  0.1351  0.0460 -0.7721
 8182TIP3    H124510   2.219   4.616   3.434  0.2972  0.5676 -0.8048
 8182TIP3    H224511   2.314   4.510   3.484 -0.4792 -0.3675 -1.2845
 8183TIP3   OH224512   4.730   4.103   1.446 -0.4079  0.3754 -0.0363
 8183TIP3    H124513   4.696   4.014   1.446  0.4838 -0.0066  1.4333
 8183TIP3    H224514   4.821   4.094   1.476 -0.3411  1.7938  0.2627
 8184TIP3   OH224515   1.164   2.423   4.515  0.1602 -0.6653 -0.1586
 8184TIP3    H124516   1.213   2.475   4.451 -0.0511  0.0179  0.2192
 8184TIP3    H224517   1.175   2.333   4.486 -1.6568 -0.2659 -2.4104
 8185TIP3   OH224518   1.108   0.285   3.575 -0.1919  0.5107 -0.1849
 8185TIP3    H124519   1.199   0.293   3.604 -0.1940  0.5817 -0.1962
 8185TIP3    H224520   1.097   0.192   3.556 -0.3308  0.3881  0.4934
 8186TIP3   OH224521   2.418   5.144   2.126  0.0146 -0.2529 -0.2638
 8186TIP3    H124522   2.493   5.137   2.067 -0.0023  0.0540 -0.3241
 8186TIP3    H224523   2.350   5.186   2.073 -0.7501 -1.9781 -0.7172
 8187TIP3   OH224524   5.587   5.061   4.345 -0.0273  0.0861 -0.2717
 8187TIP3    H124525   5.497   5.091   4.354  0.0225  0.3285 -0.5650
 8187TIP3    H224526   5.640   5.141   4.353  0.3444 -0.3559  2.5439
 8188TIP3   OH224527   1.368   5.243   1.250 -0.3209  0.0204 -0.1217
 8188TIP3    H124528   1.348   5.266   1.159  1.6601 -0.2215 -0.6515
 8188TIP3    H224529   1.436   5.176   1.243 -0.5099 -0.3806  1.5544
 8189TIP3   OH224530   1.305   3.003   1.920 -0.5868 -0.5531  0.0559
 8189TIP3    H124531   1.259   3.087   1.922  1.0326  0.5482 -3.2319
 8189TIP3    H224532   1.265   2.956   1.847  1.4533 -0.7641 -0.9773
 8190TIP3   OH224533   2.725   2.367   3.127 -0.3372  0.1872 -0.2347
 8190TIP3    H124534   2.802   2.334   3.081 -0.3145 -1.8075  1.1225
 8190TIP3    H224535   2.752   2.369   3.219 -1.6630  0.1940  0.1714
 8191TIP3   OH224536   7.015   5.488   0.899 -0.5730 -0.1385  0.0591
 8191TIP3    H124537   7.044   5.399   0.922 -3.0279 -0.8011  0.8990
 8191TIP3    H224538   7.044   5.500   0.809  2.6164 -0.4926  0.9144
 8192TIP3   OH224539   2.932   6.543   3.578 -0.0647 -0.0985 -0.4264
 8192TIP3    H124540   2.887   6.528   3.495 -1.0066  1.8802 -0.3319
 8192TIP3    H224541   2.864   6.533   3.644  0.3650 -0.2793 -0.0100
 8193TIP3   OH224542   4.528   2.317   4.675  0.0584  0.0728  0.3691
 8193TIP3    H124543   4.591   2.386   4.655 -0.2654  0.7838  1.7040
 8193TIP3    H224544   4.567   2.238   4.637  1.3840  0.6384  0.5063
 8194TIP3   OH224545   0.146   0.672   2.104  0.5637 -0.2065  0.6084
 8194TIP3    H124546   0.063   0.684   2.150  0.9433  0.5709  1.1149
 8194TIP3    H224547   0.127   0.697   2.013  0.6494  1.7129  1.0791
 8195TIP3   OH224548   1.999   5.915   3.872 -0.4119 -0.2025 -0.6190
 8195TIP3    H124549   1.980   5.897   3.965  0.8160  2.5622  0.2848
 8195TIP3    H224550   1.950   5.849   3.824 -2.5551 -0.6563  1.9518
 8196TIP3   OH224551   1.598   5.377   3.837 -0.4156  0.4231  0.1001
 8196TIP3    H124552   1.597   5.471   3.819  0.1180  0.6306  1.0778
 8196TIP3    H224553   1.604   5.336   3.751 -0.1641  1.2975 -0.3067
 8197TIP3   OH224554   3.564   6.490   1.128 -0.2261  0.0731  0.7395
 8197TIP3    H124555   3.545   6.584   1.135 -0.6011  0.0713 -0.1403
 8197TIP3    H224556   3.480   6.450   1.104 -0.4734 -0.7198  2.7541
 8198TIP3   OH224557   3.320   3.184   3.570 -0.4077 -0.1889  0.3706
 8198TIP3    H124558   3.239   3.163   3.616 -0.3248  0.2583  0.7299
 8198TIP3    H224559   3.389   3.144   3.624 -0.2083  1.3567  1.3206
 8199TIP3   OH224560   4.781   3.653   2.016 -0.5448 -0.4757  0.2984
 8199TIP3    H124561   4.756   3.611   2.098 -0.4752 -0.7615  0.1768
 8199TIP3    H224562   4.719   3.725   2.005 -0.2688 -0.1576  0.8249
 8200TIP3   OH224563   3.649   0.606   4.088 -0.1702 -0.3669 -0.4482
 8200TIP3    H124564   3.630   0.610   4.182 -0.5539 -2.4096 -0.3903
 8200TIP3    H224565   3.737   0.568   4.084 -0.2608 -0.5250 -0.9236
 8201TIP3   OH224566   5.638   5.385   0.065  0.4608 -0.8292  0.0476
 8201TIP3    H124567   5.677   5.468   0.036 -0.1682 -0.0389  1.3608
 8201TIP3    H224568   5.562   5.374   0.008 -1.5377  1.3883  2.0327
 8202TIP3   OH224569   4.754   0.382   0.638 -0.3133  0.3744  0.4610
 8202TIP3    H124570   4.827   0.342   0.591  0.9276  2.3714  0.5811
 8202TIP3    H224571   4.718   0.311   0.691 -0.0099 -1.2555 -1.3974
 8203TIP3   OH224572   4.696   5.461   3.799 -0.5367 -0.3858  0.5289
 8203TIP3    H124573   4.769   5.512   3.834 -0.8038 -0.0605  0.6152
 8203TIP3    H224574   4.653   5.425   3.876  0.1730 -1.4801  0.4344
 8204TIP3   OH224575   6.510   4.487   4.015 -0.5259  0.0944 -0.1878
 8204TIP3    H124576   6.599   4.504   3.984 -0.9561  0.1204 -1.4483
 8204TIP3    H224577   6.523   4.440   4.098  0.6874 -1.1661 -1.0326
 8205TIP3   OH224578   6.750   5.434   0.931 -0.0691 -0.4195  0.5322
 8205TIP3    H124579   6.832   5.483   0.927 -0.9988  1.1507 -0.4629
 8205TIP3    H224580   6.753   5.389   1.015  2.1105 -0.9826  0.2035
 8206TIP3   OH224581   3.189   4.227   3.717 -0.6154  0.5279  0.4308
 8206TIP3    H124582   3.140   4.148   3.739 -0.8131 -0.2910 -2.5463
 8206TIP3    H224583   3.260   4.230   3.782 -0.4698 -2.2192  0.5218
 8207TIP3   OH224584   5.964   2.861   5.306 -0.0806 -0.2805 -0.1908
 8207TIP3    H124585   6.013   2.943   5.306  0.1503 -0.4065  1.1426
 8207TIP3    H224586   5.873   2.888   5.319  0.1596 -0.2912  1.7905
 8208TIP3   OH224587   5.172   6.125   4.431 -0.4998 -0.1923 -0.2168
 8208TIP3    H124588   5.116   6.197   4.398 -1.6215 -0.8129  0.2847
 8208TIP3    H224589   5.211   6.088   4.352  0.1699  1.0093 -0.4813
 8209TIP3   OH224590   6.899   4.897   2.250 -0.0741  0.2025  0.1032
 8209TIP3    H124591   6.962   4.853   2.193 -0.2263  1.5324 -1.1396
 8209TIP3    H224592   6.872   4.974   2.201 -1.7813  0.2991  1.1198
 8210TIP3   OH224593   5.188   4.126   3.505  0.0581  0.4686  0.4234
 8210TIP3    H124594   5.231   4.041   3.493  1.9997  1.5043 -0.4131
 8210TIP3    H224595   5.240   4.186   3.453 -0.9024  2.3107  1.5026
 8211TIP3   OH224596   2.575   2.503   3.746 -0.3213 -0.4453 -0.0525
 8211TIP3    H124597   2.496   2.482   3.696  0.8643 -1.5922 -1.5341
 8211TIP3    H224598   2.561   2.458   3.830 -0.8263 -1.4916 -0.6655
 8212TIP3   OH224599   5.362   0.627   0.457  0.1551  0.0999  0.0124
 8212TIP3    H124600   5.445   0.671   0.440  0.2108  0.7704  1.7684
 8212TIP3    H224601   5.355   0.626   0.553 -2.6190  1.5546 -0.0746
 8213TIP3   OH224602   6.982   6.718   4.239  0.5206 -0.9033  0.2882
 8213TIP3    H124603   6.964   6.665   4.161  0.7989 -0.8121  0.1608
 8213TIP3    H224604   7.050   6.779   4.211  0.6254 -0.8723  0.6036
 8214TIP3   OH224605   5.097   3.735   0.748  0.5090  0.6615  0.0025
 8214TIP3    H124606   5.165   3.696   0.693 -1.6296  0.0197 -2.3320
 8214TIP3    H224607   5.090   3.674   0.822 -0.1563 -1.4591 -1.6908
 8215TIP3   OH224608   4.530   4.940   3.686 -0.1349 -0.0458 -0.3921
 8215TIP3    H124609   4.536   4.973   3.596  0.0342 -1.2644 -0.8434
 8215TIP3    H224610   4.445   4.971   3.717  0.7674  2.3534 -0.1336
 8216TIP3   OH224611   5.852   3.236   3.047 -0.4100 -0.1564  0.1005
 8216TIP3    H124612   5.834   3.144   3.030 -1.3969 -0.2347  1.4058
 8216TIP3    H224613   5.844   3.278   2.962 -1.1875 -1.0885 -0.3070
 8217TIP3   OH224614   0.678   0.621   3.852  0.4332  0.1111  0.2168
 8217TIP3    H124615   0.595   0.668   3.848  0.8606  0.8575 -0.0699
 8217TIP3    H224616   0.738   0.673   3.799  1.2765 -0.0080  1.0171
 8218TIP3   OH224617   1.970   0.941   0.953 -0.1335 -0.0861  0.7307
 8218TIP3    H124618   2.035   0.903   1.012  0.1770 -1.4846 -0.4501
 8218TIP3    H224619   2.014   0.947   0.869 -0.7546  1.3136  0.4748
 8219TIP3   OH224620   4.500   3.706   3.421  0.1188  0.6023 -0.4502
 8219TIP3    H124621   4.563   3.721   3.491  0.9703  1.5302 -1.3942
 8219TIP3    H224622   4.553   3.689   3.344 -0.8002  0.2745 -1.0220
 8220TIP3   OH224623   5.707   5.554   1.581 -0.1790 -0.3452 -0.0318
 8220TIP3    H124624   5.794   5.518   1.565  0.7367  0.1641  3.1286
 8220TIP3    H224625   5.665   5.491   1.640 -1.1860  0.3918  0.0676
 8221TIP3   OH224626   0.653   2.916   1.734  0.3551  0.3206  0.3486
 8221TIP3    H124627   0.621   2.984   1.794 -1.7659 -1.5267  1.4234
 8221TIP3    H224628   0.574   2.877   1.697  1.4719 -1.8953  0.1544
 8222TIP3   OH224629   6.917   0.602   4.665 -0.3792 -0.4861 -0.2923
 8222TIP3    H124630   6.847   0.664   4.688  0.7100  1.0357 -0.9447
 8222TIP3    H224631   6.898   0.578   4.574  1.6127  2.4327 -1.6256
 8223TIP3   OH224632   2.589   4.936   3.899 -0.0954 -0.3705  0.2983
 8223TIP3    H124633   2.597   5.002   3.968  0.6757 -0.2991  0.1512
 8223TIP3    H224634   2.676   4.931   3.861 -0.8113  0.5018 -1.5311
 8224TIP3   OH224635   3.145   1.619   1.226 -0.1994 -0.1624  0.2801
 8224TIP3    H124636   3.078   1.574   1.174 -0.6185 -0.0760  0.7365
 8224TIP3    H224637   3.215   1.554   1.237  0.7323  0.3734 -1.9141
 8225TIP3   OH224638   3.444   0.648   2.393  0.3494  0.5459  0.0677
 8225TIP3    H124639   3.495   0.667   2.471 -2.3399 -0.5157  2.2521
 8225TIP3    H224640   3.443   0.730   2.344 -0.3522  2.2412  2.7282
 8226TIP3   OH224641   5.769   3.407   1.791 -0.0689 -0.4878  0.6319
 8226TIP3    H124642   5.725   3.445   1.715  0.5445 -0.1280  0.4501
 8226TIP3    H224643   5.714   3.332   1.815  0.0964 -1.0250 -0.5938
 8227TIP3   OH224644   3.651   5.501   4.250 -0.1669 -0.4945  0.1891
 8227TIP3    H124645   3.571   5.513   4.300 -0.5579 -1.5432 -0.1660
 8227TIP3    H224646   3.720   5.533   4.307 -1.0576  3.6830 -0.7168
 8228TIP3   OH224647   4.774   0.100   2.512  0.0995 -0.4940  0.0119
 8228TIP3    H124648   4.863   0.065   2.500  0.0244 -0.9599  0.7570
 8228TIP3    H224649   4.724   0.025   2.545 -0.7586 -0.4429 -1.1074
 8229TIP3   OH224650   0.658   0.153   4.437 -0.2910  0.2336  0.7001
 8229TIP3    H124651   0.595   0.182   4.372  1.0191  4.5951  1.0782
 8229TIP3    H224652   0.743   0.163   4.394  0.4211 -0.9796  1.7459
 8230TIP3   OH224653   0.146   4.493   0.764 -0.1083  0.0041  0.0083
 8230TIP3    H124654   0.141   4.518   0.856  1.5383  0.9159 -0.1043
 8230TIP3    H224655   0.200   4.415   0.763 -0.8867 -0.5393 -0.1154
 8231TIP3   OH224656   4.106   1.149   2.971  0.2643  0.5548  0.1146
 8231TIP3    H124657   4.089   1.223   2.912  1.5648  1.3931  0.7561
 8231TIP3    H224658   4.180   1.103   2.931  0.1601  0.2229  0.2987
 8232TIP3   OH224659   7.024   0.201   0.525 -0.8860 -0.1107  0.0647
 8232TIP3    H124660   7.119   0.212   0.519 -1.0652  0.8081 -2.9980
 8232TIP3    H224661   6.995   0.274   0.579  0.1447 -0.7312  1.5369
 8233TIP3   OH224662   2.556   6.650   2.777 -0.3541 -0.6259  0.4949
 8233TIP3    H124663   2.465   6.673   2.760  0.0920  0.0746 -1.2218
 8233TIP3    H224664   2.558   6.554   2.772 -1.1814 -0.7262  1.7461
 8234TIP3   OH224665   4.019   0.755   0.390 -0.4891  0.0069 -0.2708
 8234TIP3    H124666   3.953   0.719   0.449  0.9008 -0.9252  0.7999
 8234TIP3    H224667   4.052   0.833   0.436  0.9225 -0.9811  0.4584
 8235TIP3   OH224668   3.913   5.552   3.237  0.0065  0.5005 -0.4014
 8235TIP3    H124669   3.844   5.505   3.191 -1.0549  1.0358  0.6133
 8235TIP3    H224670   3.897   5.535   3.330  0.1747  2.0650 -0.0612
 8236TIP3   OH224671   5.942   0.375   1.303  0.0133 -0.3057  0.2923
 8236TIP3    H124672   5.913   0.323   1.228  1.0216 -2.2095  1.1576
 8236TIP3    H224673   5.916   0.324   1.380  0.4414  0.7938  1.2034
 8237TIP3   OH224674   1.206   0.863   3.022 -0.6609 -0.1223 -0.5295
 8237TIP3    H124675   1.139   0.823   2.967 -1.5227  0.5907 -0.0359
 8237TIP3    H224676   1.181   0.839   3.111 -0.5921  0.6021 -0.3031
 8238TIP3   OH224677   1.829   4.601   3.103 -0.1533  0.3246  0.8392
 8238TIP3    H124678   1.833   4.562   3.015  1.2153 -1.7479  1.7282
 8238TIP3    H224679   1.813   4.694   3.087 -1.4599 -0.2117 -1.5228
 8239TIP3   OH224680   6.913   0.729   3.800 -0.2842  0.0279  0.1798
 8239TIP3    H124681   6.843   0.776   3.754  0.0209  1.1011  0.7769
 8239TIP3    H224682   6.991   0.781   3.783  0.0472 -0.2186  0.9444
 8240TIP3   OH224683   6.395   3.240   3.516  0.0607 -0.0621  0.2049
 8240TIP3    H124684   6.318   3.253   3.460  0.0765  0.1186  0.2229
 8240TIP3    H224685   6.410   3.326   3.556  0.1999 -0.1274  0.2939
 8241TIP3   OH224686   1.897   6.745   4.744  0.0826  0.2705  0.3390
 8241TIP3    H124687   1.830   6.689   4.781 -0.0750 -0.7500 -1.3594
 8241TIP3    H224688   1.852   6.827   4.723 -0.4047 -0.0684  0.0672
 8242TIP3   OH224689   0.695   2.714   5.508 -0.0423  0.4350 -0.0469
 8242TIP3    H124690   0.622   2.772   5.488  0.6336  1.0343 -0.8731
 8242TIP3    H224691   0.678   2.635   5.456  0.1499  0.7807 -0.6507
 8243TIP3   OH224692   1.006   4.261   0.091 -0.1245  0.3357 -0.0553
 8243TIP3    H124693   0.911   4.266   0.096 -0.0127  2.1199  3.0688
 8243TIP3    H224694   1.028   4.180   0.137 -0.1226  1.1483  1.4405
 8244TIP3   OH224695   2.515   5.124   0.599 -0.1566  0.0466  0.1769
 8244TIP3    H124696   2.600   5.167   0.590  0.8683 -1.5801  1.2621
 8244TIP3    H224697   2.531   5.035   0.568 -1.5630 -0.1904  0.0948
 8245TIP3   OH224698   4.992   3.344   0.924 -0.7337 -0.3611 -0.1182
 8245TIP3    H124699   4.980   3.326   1.017  0.4822  0.8118  0.2974
 8245TIP3    H224700   5.078   3.307   0.903  0.1485  1.5798 -0.1205
 8246TIP3   OH224701   0.069   2.211   0.238 -0.1295  0.0532 -0.5002
 8246TIP3    H124702  -0.016   2.184   0.273 -0.5156  0.7891 -0.8383
 8246TIP3    H224703   0.112   2.254   0.311 -1.0764  1.8994 -0.9695
 8247TIP3   OH224704   6.853   2.653   0.361 -0.4159 -0.0294  0.2021
 8247TIP3    H124705   6.880   2.745   0.368 -0.9360  0.1753 -0.4377
 8247TIP3    H224706   6.907   2.608   0.426 -1.1085  0.9349  1.5008
 8248TIP3   OH224707   6.505   3.986   5.629  0.7055 -0.1135  0.0691
 8248TIP3    H124708   6.570   4.054   5.610 -1.0078  1.3005 -0.9832
 8248TIP3    H224709   6.529   3.914   5.571  1.7876  0.0443  0.2862
 8249TIP3   OH224710   5.991   4.076   3.731 -0.6302 -0.3055  0.3063
 8249TIP3    H124711   5.962   4.011   3.795 -0.8169 -0.8343 -0.3096
 8249TIP3    H224712   6.003   4.026   3.650  1.6098 -0.0477  0.4201
 8250TIP3   OH224713   0.406   6.573   1.949 -0.2961 -0.3062  0.1744
 8250TIP3    H124714   0.500   6.583   1.933  0.1785 -2.3226  1.3904
 8250TIP3    H224715   0.384   6.487   1.912 -2.5651  1.5700 -3.5143
 8251TIP3   OH224716   2.372   1.719   5.383 -0.0080  0.4338  0.0175
 8251TIP3    H124717   2.297   1.671   5.419  0.6422 -0.0367  0.7688
 8251TIP3    H224718   2.374   1.801   5.431 -1.1774  1.3051 -1.3340
 8252TIP3   OH224719   4.100   2.718   0.162  0.7948 -0.6666  0.6439
 8252TIP3    H124720   4.158   2.683   0.093  0.8467 -1.5241  1.1079
 8252TIP3    H224721   4.134   2.680   0.243 -0.2014 -0.8971  0.9629
 8253TIP3   OH224722   5.730   1.133   1.030 -0.1064  0.3264 -0.2510
 8253TIP3    H124723   5.786   1.161   0.957 -0.1007  0.3269 -0.2465
 8253TIP3    H224724   5.789   1.130   1.105 -0.2925  1.1403 -0.0634
 8254TIP3   OH224725   0.792   5.992   2.839  0.4253  0.0216  0.0011
 8254TIP3    H124726   0.839   6.076   2.844  0.2121  0.0702  1.7672
 8254TIP3    H224727   0.708   6.015   2.800 -0.1153  0.9117  1.5676
 8255TIP3   OH224728   1.005   4.903   4.426 -0.0163 -0.3299 -0.2021
 8255TIP3    H124729   0.919   4.931   4.393 -0.8052 -0.3159  1.7351
 8255TIP3    H224730   1.063   4.975   4.404 -0.5153 -0.2696 -1.4112
 8256TIP3   OH224731   0.450   4.625   3.076  0.0184  0.4181 -0.0882
 8256TIP3    H124732   0.414   4.704   3.036 -1.2755 -0.8463 -1.5318
 8256TIP3    H224733   0.533   4.611   3.030  2.1559  2.8619  2.6648
 8257TIP3   OH224734   3.202   4.241   0.245  0.4857 -0.1751 -0.0290
 8257TIP3    H124735   3.285   4.212   0.283  0.1350  0.7814  1.5231
 8257TIP3    H224736   3.219   4.330   0.214  0.4308 -0.5120 -1.0860
 8258TIP3   OH224737   0.749   5.606   4.276 -0.4377 -0.1101  0.2805
 8258TIP3    H124738   0.753   5.702   4.282 -1.8354 -0.0623  0.7118
 8258TIP3    H224739   0.823   5.577   4.330 -0.2764  0.7174  0.5336
 8259TIP3   OH224740   5.342   1.745   5.213  0.6988  0.0239  0.8883
 8259TIP3    H124741   5.324   1.831   5.249  0.1347  0.2136  0.1800
 8259TIP3    H224742   5.293   1.742   5.131  3.3276  0.3072 -0.8173
 8260TIP3   OH224743   0.721   6.148   4.530 -0.2456 -0.1385 -0.2298
 8260TIP3    H124744   0.661   6.206   4.483 -0.2004 -0.0247 -0.1474
 8260TIP3    H224745   0.670   6.068   4.545 -0.1388 -0.3150 -0.7945
 8261TIP3   OH224746   3.140   2.133   1.839 -0.1860 -0.3393 -0.0640
 8261TIP3    H124747   3.100   2.170   1.761  1.5895 -0.0705 -0.8889
 8261TIP3    H224748   3.140   2.039   1.825  0.5907 -0.2606 -0.6399
 8262TIP3   OH224749   1.522   2.961   0.745  0.8024  0.1201 -0.1758
 8262TIP3    H124750   1.505   2.867   0.743  0.4552  0.1954 -1.5793
 8262TIP3    H224751   1.475   2.996   0.669 -0.3100  1.6497  1.1334
 8263TIP3   OH224752   1.494   1.807   1.086 -0.2387 -0.7726 -0.0659
 8263TIP3    H124753   1.483   1.882   1.144  0.7285  0.4516 -1.4258
 8263TIP3    H224754   1.543   1.743   1.139 -0.1360 -0.0326  0.7526
 8264TIP3   OH224755   6.376   5.500   2.415 -0.0045 -0.6992  0.5327
 8264TIP3    H124756   6.315   5.428   2.398 -1.1419  0.4711 -0.5000
 8264TIP3    H224757   6.327   5.562   2.468 -0.4619  1.1535 -1.8876
 8265TIP3   OH224758   4.450   6.552   5.754  0.8248  0.3709  0.3764
 8265TIP3    H124759   4.530   6.540   5.805  0.8831  0.0102  0.2010
 8265TIP3    H224760   4.465   6.634   5.706  0.7630  0.7148  0.9410
 8266TIP3   OH224761   2.462   3.976   3.727 -0.1071  0.4344 -0.1682
 8266TIP3    H124762   2.400   4.016   3.787 -1.0125  0.4824 -1.0979
 8266TIP3    H224763   2.547   3.986   3.769 -0.8332 -0.6549  1.6745
 8267TIP3   OH224764   4.982   2.123   0.641 -0.2751 -0.1410 -0.2331
 8267TIP3    H124765   4.916   2.174   0.593  0.8918  1.0981 -0.5662
 8267TIP3    H224766   5.054   2.112   0.579 -0.3826 -2.0533 -0.0987
 8268TIP3   OH224767   4.259   6.089   4.968 -0.1112 -0.2077 -0.0421
 8268TIP3    H124768   4.259   6.158   4.901 -0.3189 -0.7079 -0.5737
 8268TIP3    H224769   4.269   6.008   4.918  1.5418 -0.4845  0.6692
 8269TIP3   OH224770   6.217   0.931   4.942 -0.1156  0.4214  0.4016
 8269TIP3    H124771   6.199   1.025   4.931  0.0230  0.3217 -0.7586
 8269TIP3    H224772   6.147   0.901   5.000 -0.6847  1.0726  0.0749
 8270TIP3   OH224773   2.126   6.619   5.525 -0.1102  0.0198 -0.1707
 8270TIP3    H124774   2.086   6.619   5.612  2.7085  1.3979  1.2770
 8270TIP3    H224775   2.156   6.709   5.512 -0.7716 -0.0434 -2.7943
 8271TIP3   OH224776   2.148   1.901   1.087 -0.2687  0.1007 -0.1726
 8271TIP3    H124777   2.094   1.863   1.156 -0.5709  0.8918  0.0375
 8271TIP3    H224778   2.227   1.847   1.086  0.6765  1.3259  2.2371
 8272TIP3   OH224779   5.039   5.702   3.853 -0.0866 -0.2050  0.4064
 8272TIP3    H124780   5.043   5.615   3.892 -1.2369  0.4466  2.0637
 8272TIP3    H224781   5.077   5.761   3.919 -1.6676  0.8633  0.4321
 8273TIP3   OH224782   4.097   5.147   0.306  0.1034 -0.0900  0.1233
 8273TIP3    H124783   4.113   5.119   0.396 -1.4316 -0.2694  0.3681
 8273TIP3    H224784   4.169   5.109   0.256  1.9328  1.3692  1.4743
 8274TIP3   OH224785   0.029   6.779   1.962 -0.0138 -0.1161  0.2146
 8274TIP3    H124786   0.104   6.800   2.018  0.1062 -0.4676  0.1867
 8274TIP3    H224787  -0.045   6.776   2.022 -0.1318  0.9106  0.1470
 8275TIP3   OH224788   3.099   1.378   3.525  0.4200  0.0279 -0.5772
 8275TIP3    H124789   3.003   1.373   3.529  0.5035 -1.4163  2.2140
 8275TIP3    H224790   3.118   1.471   3.541 -0.5272  0.1715 -0.1592
 8276TIP3   OH224791   6.181   1.109   2.966  0.4754 -0.3258 -0.8468
 8276TIP3    H124792   6.266   1.072   2.940  0.9058 -0.1604  0.2829
 8276TIP3    H224793   6.148   1.050   3.033 -0.2108 -0.2752 -1.1389
 8277TIP3   OH224794   7.003   2.766   3.005  0.1780  0.6912 -0.2319
 8277TIP3    H124795   6.944   2.837   3.026 -3.3795 -1.6807 -1.3320
 8277TIP3    H224796   7.016   2.719   3.087  2.2249  2.2388  0.4123
 8278TIP3   OH224797   0.243   6.615   5.761  0.4871  0.2218  0.2640
 8278TIP3    H124798   0.260   6.670   5.837  2.1210  0.6357 -0.3720
 8278TIP3    H224799   0.276   6.529   5.785  1.3911  0.4559 -0.1208
 8279TIP3   OH224800   3.596   2.309   5.431 -0.2815  0.0216  0.3882
 8279TIP3    H124801   3.688   2.329   5.416  0.0996 -1.0405  1.1431
 8279TIP3    H224802   3.583   2.226   5.386 -0.9194  0.2576  0.1351
 8280TIP3   OH224803   6.214   3.815   2.042  0.1682 -0.1246 -0.7779
 8280TIP3    H124804   6.236   3.891   1.987  0.4076  0.1698 -0.2796
 8280TIP3    H224805   6.275   3.820   2.115  0.2229 -0.8395 -0.7719
 8281TIP3   OH224806   2.536   0.308   5.840 -0.4892  0.1986  0.0158
 8281TIP3    H124807   2.459   0.251   5.828 -0.9589  0.9112 -0.4120
 8281TIP3    H224808   2.499   0.394   5.862  0.2394  0.0802  1.8928
 8282TIP3   OH224809   0.289   2.350   4.394  0.0293  0.3262 -0.1672
 8282TIP3    H124810   0.295   2.440   4.361 -1.0412  0.3418 -0.3622
 8282TIP3    H224811   0.370   2.309   4.366 -0.2544  0.7216 -1.6881
 8283TIP3   OH224812   1.931   2.026   1.437  0.7593 -0.1071 -0.0922
 8283TIP3    H124813   1.956   2.104   1.487 -0.7186 -0.1307  0.7148
 8283TIP3    H224814   1.848   2.048   1.397  0.3795 -1.2198  0.0417
 8284TIP3   OH224815   5.425   3.979   3.297  0.4934  0.7834  0.5473
 8284TIP3    H124816   5.438   4.032   3.219 -0.5471  1.7789  1.0381
 8284TIP3    H224817   5.512   3.944   3.316  0.8720  0.9762 -0.7225
 8285TIP3   OH224818   5.405   4.889   2.994 -0.7561  0.6798  0.1862
 8285TIP3    H124819   5.310   4.877   2.999 -0.6313  0.0994  1.4515
 8285TIP3    H224820   5.429   4.856   2.907 -1.5611 -0.2023  0.2880
 8286TIP3   OH224821   1.656   0.945   5.180  0.1727 -0.1688  0.1282
 8286TIP3    H124822   1.624   0.859   5.153  0.5885 -0.0699 -0.6830
 8286TIP3    H224823   1.723   0.926   5.246 -0.0270 -0.4483  0.2550
 8287TIP3   OH224824   2.571   2.055   4.075 -0.1733 -0.5768  0.0085
 8287TIP3    H124825   2.489   2.070   4.122  1.0023  4.0860  1.0971
 8287TIP3    H224826   2.634   2.032   4.143  0.6918  2.4272  0.3804
 8288TIP3   OH224827   7.077   2.594   2.102  0.2645  0.1506  0.0525
 8288TIP3    H124828   7.105   2.617   2.191 -1.4648  0.0288  0.6588
 8288TIP3    H224829   7.158   2.594   2.051  1.6520 -1.8059  2.0354
 8289TIP3   OH224830   3.800   0.541   4.907 -0.6363  0.9155  0.0032
 8289TIP3    H124831   3.764   0.602   4.972 -1.8823 -0.5790  0.7795
 8289TIP3    H224832   3.893   0.563   4.903 -0.5486  1.1714  2.1765
 8290TIP3   OH224833   7.033   5.593   5.025 -0.3365  0.7832 -0.2556
 8290TIP3    H124834   7.040   5.615   4.932  1.3327  0.8890 -0.1350
 8290TIP3    H224835   6.973   5.659   5.061 -1.5584  0.3126 -1.3739
 8291TIP3   OH224836   5.288   3.977   5.755  0.6385  0.0158  0.5538
 8291TIP3    H124837   5.369   3.991   5.705  0.4661 -0.1395  0.2274
 8291TIP3    H224838   5.245   4.062   5.753 -0.3056 -0.4506 -1.2446
 8292TIP3   OH224839   0.006   5.484   3.790 -0.0416 -0.6043 -0.0362
 8292TIP3    H124840   0.100   5.468   3.800  0.1342 -0.5909 -1.4761
 8292TIP3    H224841   0.001   5.570   3.747 -0.5225 -2.1736 -3.4537
 8293TIP3   OH224842   6.928   5.328   3.897 -0.3274  0.1164 -0.0363
 8293TIP3    H124843   6.895   5.252   3.946 -1.1315 -0.5234 -1.5118
 8293TIP3    H224844   6.879   5.326   3.815  0.7370  1.3708 -0.7223
 8294TIP3   OH224845   3.630   5.176   5.617  0.3508 -0.4275  0.1602
 8294TIP3    H124846   3.691   5.141   5.681 -0.4548 -0.0910  1.1338
 8294TIP3    H224847   3.571   5.232   5.667  0.1903  0.4886 -1.0038
 8295TIP3   OH224848   3.674   3.248   2.818  0.1762  0.0717 -1.1012
 8295TIP3    H124849   3.596   3.295   2.847  0.6468  1.7112 -2.3748
 8295TIP3    H224850   3.745   3.281   2.874  0.4904  0.8637 -1.9403
 8296TIP3   OH224851   1.037   2.575   0.371 -0.4383  0.1924  0.2420
 8296TIP3    H124852   1.044   2.484   0.341 -0.6214  1.0316 -2.6617
 8296TIP3    H224853   1.102   2.583   0.441  2.7510 -1.1046 -2.3188
 8297TIP3   OH224854   6.702   2.066   0.411  0.7428  0.2471 -0.2135
 8297TIP3    H124855   6.691   1.993   0.350  0.0492  0.6249 -0.5543
 8297TIP3    H224856   6.742   2.026   0.488 -0.2737 -0.6419 -0.1154
 8298TIP3   OH224857   6.975   6.424   0.333  0.1879 -0.6736 -0.3839
 8298TIP3    H124858   6.906   6.468   0.383  1.7458  2.4199 -0.7214
 8298TIP3    H224859   7.026   6.376   0.398 -0.7760 -0.9315  0.2061
 8299TIP3   OH224860   4.480   1.972   2.449 -0.2548  0.4495 -0.0101
 8299TIP3    H124861   4.565   1.988   2.489 -0.8496 -0.1901  1.5946
 8299TIP3    H224862   4.426   2.046   2.478 -0.7538 -0.1235  0.5274
 8300TIP3   OH224863   3.457   5.475   1.528 -0.1922  0.2044 -0.5259
 8300TIP3    H124864   3.471   5.513   1.614  2.0547  0.3186 -0.8916
 8300TIP3    H224865   3.448   5.381   1.544  1.4425  0.0667 -0.2254
 8301TIP3   OH224866   4.577   2.785   2.418  0.3321  0.5316 -0.3354
 8301TIP3    H124867   4.662   2.744   2.433  0.8727  0.9035 -2.1940
 8301TIP3    H224868   4.564   2.840   2.495  0.9842 -0.7672  0.7576
 8302TIP3   OH224869   2.151   4.213   0.662 -0.0569  0.0778  0.5388
 8302TIP3    H124870   2.211   4.286   0.650  0.7225 -0.3102  1.8700
 8302TIP3    H224871   2.149   4.199   0.757 -0.0776 -1.7180  0.3060
 8303TIP3   OH224872   2.296   0.906   4.765 -0.1351  0.2783 -0.2890
 8303TIP3    H124873   2.319   0.847   4.837  0.2947 -0.1296 -0.7592
 8303TIP3    H224874   2.242   0.974   4.807  0.0600  0.0161  0.4067
 8304TIP3   OH224875   1.144   6.133   0.097 -0.1484 -0.3653 -0.1810
 8304TIP3    H124876   1.100   6.213   0.124  0.6516  0.7362 -1.9285
 8304TIP3    H224877   1.087   6.095   0.031  0.2870 -0.2822 -0.6160
 8305TIP3   OH224878   3.666   1.133   3.718 -0.3990  0.1412  0.5277
 8305TIP3    H124879   3.658   1.150   3.812 -0.9250 -0.0483  0.5212
 8305TIP3    H224880   3.618   1.205   3.676  0.3453  0.5653  0.3744
 8306TIP3   OH224881   6.974   2.509   3.689  0.3834 -0.8172  0.5376
 8306TIP3    H124882   6.961   2.441   3.624 -0.0401 -0.6820  0.4784
 8306TIP3    H224883   6.909   2.575   3.668  1.2378 -0.0641  0.1649
 8307TIP3   OH224884   2.150   5.344   4.241  0.3574  0.5639 -0.0343
 8307TIP3    H124885   2.173   5.434   4.217  0.7668  0.8872  1.4852
 8307TIP3    H224886   2.055   5.340   4.231  0.5400  0.4900 -2.2222
 8308TIP3   OH224887   3.487   5.489   2.244  0.3985 -0.3097  0.2798
 8308TIP3    H124888   3.401   5.509   2.279  1.6420  3.0151  1.9166
 8308TIP3    H224889   3.514   5.409   2.290 -1.4915 -1.0937  0.1304
 8309TIP3   OH224890   0.236   4.826   0.324 -0.4618  0.0567  0.1375
 8309TIP3    H124891   0.290   4.865   0.255  0.3819 -0.2233  0.6143
 8309TIP3    H224892   0.269   4.866   0.405  0.6646 -1.8282  0.6737
 8310TIP3   OH224893   4.400   3.377   4.798  0.5889 -0.5789 -0.1454
 8310TIP3    H124894   4.404   3.305   4.735  2.5636 -1.1911  0.6113
 8310TIP3    H224895   4.351   3.445   4.753  1.1240 -1.3480 -1.9784
 8311TIP3   OH224896   4.859   6.220   4.604  0.0271 -0.2754 -0.4160
 8311TIP3    H124897   4.934   6.189   4.654 -2.6750 -2.8643  2.4953
 8311TIP3    H224898   4.847   6.310   4.632  1.7080  0.0035 -0.5228
 8312TIP3   OH224899   5.414   5.812   4.299  0.7308 -0.6772  0.6250
 8312TIP3    H124900   5.390   5.725   4.266  1.8156 -1.0133  0.6504
 8312TIP3    H224901   5.490   5.837   4.245 -0.1317  0.6697 -0.0052
 8313TIP3   OH224902   1.160   4.891   1.140  0.8179 -0.0404 -0.2212
 8313TIP3    H124903   1.184   4.915   1.050 -0.6826  0.2728 -0.5603
 8313TIP3    H224904   1.136   4.799   1.135  0.7720 -0.0333 -0.1327
 8314TIP3   OH224905   1.347   2.880   4.893 -0.0794 -0.5296 -0.2420
 8314TIP3    H124906   1.380   2.929   4.817  0.2795 -0.9234 -0.3412
 8314TIP3    H224907   1.296   2.944   4.942 -1.8224 -0.7009 -1.7479
 8315TIP3   OH224908   2.212   4.963   5.423  0.3734 -0.9117  0.0949
 8315TIP3    H124909   2.196   5.033   5.486 -0.3944 -0.8254 -0.1864
 8315TIP3    H224910   2.243   4.890   5.477  0.7270 -0.5154  0.4431
 8316TIP3   OH224911   5.478   1.004   4.196 -0.7737 -0.2248 -0.2183
 8316TIP3    H124912   5.391   1.016   4.157 -0.4695 -0.0626 -0.8498
 8316TIP3    H224913   5.484   1.072   4.263 -0.6792  0.5306 -0.9721
 8317TIP3   OH224914   2.788   3.157   4.912 -0.0684 -0.3299  0.6394
 8317TIP3    H124915   2.797   3.066   4.884  2.0941 -0.4588  1.5740
 8317TIP3    H224916   2.702   3.161   4.955 -1.4360 -1.2025 -1.8111
 8318TIP3   OH224917   3.791   1.139   4.401 -0.2428 -0.9546  0.4789
 8318TIP3    H124918   3.708   1.179   4.376 -0.5412 -3.2483 -2.8008
 8318TIP3    H224919   3.770   1.047   4.416  1.8162 -1.8553 -1.6152
 8319TIP3   OH224920   5.527   4.088   4.214  0.0753  0.0664 -0.4334
 8319TIP3    H124921   5.479   4.071   4.134 -0.6104 -0.3034  0.0528
 8319TIP3    H224922   5.545   4.182   4.212 -0.3489  0.1384 -0.7903
 8320TIP3   OH224923   5.960   5.267   1.254  0.2965 -0.1381  0.2943
 8320TIP3    H124924   5.921   5.303   1.174 -1.7698 -2.2505  0.2164
 8320TIP3    H224925   5.912   5.311   1.325 -0.0773 -0.4959  0.2695
 8321TIP3   OH224926   3.807   1.690   4.467  0.2513 -0.2698 -0.2534
 8321TIP3    H124927   3.807   1.765   4.526  2.6370  0.5374 -1.1716
 8321TIP3    H224928   3.740   1.710   4.401 -0.1355  0.3465  0.3155
 8322TIP3   OH224929   5.123   2.324   4.125  0.0652 -0.2259  0.3340
 8322TIP3    H124930   5.209   2.357   4.153  0.1248 -1.0089  1.1439
 8322TIP3    H224931   5.133   2.307   4.031  0.1181  1.7039 -0.0600
 8323TIP3   OH224932   2.261   6.502   0.198  0.1426 -0.0392 -0.1032
 8323TIP3    H124933   2.321   6.451   0.253 -2.4087 -2.4615  0.7054
 8323TIP3    H224934   2.301   6.502   0.112  3.1480  1.9048  1.1479
 8324TIP3   OH224935   2.734   4.137   2.086 -0.5599 -0.1677 -0.5460
 8324TIP3    H124936   2.768   4.192   2.156 -0.0425 -2.2390  0.9398
 8324TIP3    H224937   2.765   4.178   2.005 -2.0076  2.8726  0.2711
 8325TIP3   OH224938   5.424   5.946   4.545  0.3323 -0.3113  0.0289
 8325TIP3    H124939   5.408   5.921   4.454 -0.2682  1.0874 -0.2761
 8325TIP3    H224940   5.451   6.037   4.541 -0.0721 -0.1126  1.2729
 8326TIP3   OH224941   0.378   0.536   5.332  0.0609 -0.2614  0.8041
 8326TIP3    H124942   0.348   0.483   5.406 -0.9521 -1.2682 -0.2889
 8326TIP3    H224943   0.423   0.473   5.275  0.0440  0.3211  0.1413
 8327TIP3   OH224944   0.038   2.510   1.598  0.2309 -0.1862 -0.3240
 8327TIP3    H124945   0.098   2.458   1.544  1.1040 -1.3506  1.6551
 8327TIP3    H224946   0.058   2.601   1.576  3.2832 -0.4909  0.7433
 8328TIP3   OH224947   1.585   3.468   5.080  0.0941 -1.0039 -0.4924
 8328TIP3    H124948   1.660   3.428   5.124  0.7245  1.2783  0.6800
 8328TIP3    H224949   1.526   3.493   5.151  0.0209  0.6281 -1.0829
 8329TIP3   OH224950   7.140   0.662   1.639 -0.4362  0.0856 -0.2975
 8329TIP3    H124951   7.188   0.582   1.621  1.9239  1.0745  1.0773
 8329TIP3    H224952   7.081   0.673   1.564  1.5609 -1.1583 -2.1530
 8330TIP3   OH224953   6.535   3.102   5.871  0.6535 -0.2101  0.6265
 8330TIP3    H124954   6.608   3.072   5.924 -0.6984 -1.6253  1.7981
 8330TIP3    H224955   6.520   3.030   5.809 -0.6322 -0.5812  1.3473
 8331TIP3   OH224956   1.847   1.189   1.694  0.1657 -0.0168 -0.6548
 8331TIP3    H124957   1.795   1.205   1.616 -0.1304  0.8931 -0.2857
 8331TIP3    H224958   1.845   1.094   1.706 -0.8469 -0.0484 -1.0309
 8332TIP3   OH224959   3.724   6.358   0.529 -0.5292  1.1512  0.2020
 8332TIP3    H124960   3.681   6.273   0.533  1.9265 -0.2991 -1.5083
 8332TIP3    H224961   3.750   6.376   0.620 -0.4805 -0.2566  0.4883
 8333TIP3   OH224962   4.288   0.700   2.436 -0.8588 -0.5483 -0.4160
 8333TIP3    H124963   4.347   0.757   2.387 -1.5428  0.1431 -0.4412
 8333TIP3    H224964   4.216   0.682   2.375 -0.4427 -1.8062 -0.5689
 8334TIP3   OH224965   2.398   1.577   1.410  0.1839 -0.1208  0.3116
 8334TIP3    H124966   2.406   1.616   1.497 -2.2724  0.3938  0.3684
 8334TIP3    H224967   2.364   1.489   1.426  0.7472 -0.4196 -0.0882
 8335TIP3   OH224968   5.658   6.471   5.649  0.3777 -0.3074 -0.4772
 8335TIP3    H124969   5.618   6.468   5.562  1.1069  1.6060 -0.9454
 8335TIP3    H224970   5.595   6.519   5.703  1.4923  1.9308 -0.9972
 8336TIP3   OH224971   4.421   6.423   1.440 -0.6291  0.4547 -0.0810
 8336TIP3    H124972   4.453   6.374   1.364 -1.9228 -2.0423  0.8725
 8336TIP3    H224973   4.333   6.451   1.416 -0.6649  0.5198  0.1221
 8337TIP3   OH224974   1.498   5.387   3.534 -0.3241 -0.2995  0.3449
 8337TIP3    H124975   1.451   5.353   3.459  2.3097 -0.1496 -1.5037
 8337TIP3    H224976   1.439   5.453   3.572 -1.7836 -0.4781 -1.5044
 8338TIP3   OH224977   3.867   3.760   3.720 -1.1814 -0.5534 -0.3374
 8338TIP3    H124978   3.816   3.684   3.692  0.6378 -2.0787  0.2524
 8338TIP3    H224979   3.938   3.765   3.656  0.0186 -0.8166  0.9244
 8339TIP3   OH224980   4.638   0.884   0.980  0.0669 -0.1075 -0.5261
 8339TIP3    H124981   4.720   0.837   1.000  0.0394  0.2130  0.3937
 8339TIP3    H224982   4.646   0.908   0.888  0.6107 -0.8735 -0.6906
 8340TIP3   OH224983   1.124   0.067   1.731 -0.1199 -0.7809 -0.6348
 8340TIP3    H124984   1.143   0.102   1.818  1.7640 -1.2391 -0.8155
 8340TIP3    H224985   1.108   0.144   1.676 -1.2331 -0.4893  0.0731
 8341TIP3   OH224986   5.692   3.500   2.256  0.7149  0.2088  0.7467
 8341TIP3    H124987   5.660   3.582   2.293  1.3891  1.2555 -0.8917
 8341TIP3    H224988   5.668   3.505   2.163  1.1558 -1.2551  0.5296
 8342TIP3   OH224989   7.033   0.227   0.004 -0.4863 -0.4306  0.7690
 8342TIP3    H124990   7.009   0.254   0.093  0.2424 -2.3647  1.6000
 8342TIP3    H224991   7.100   0.160   0.016 -2.7711 -3.2791 -1.0621
 8343TIP3   OH224992   2.189   2.710   3.303  0.4221  0.2941 -0.0977
 8343TIP3    H124993   2.094   2.710   3.291  0.3378  2.6628  0.1882
 8343TIP3    H224994   2.224   2.674   3.221 -0.6499  1.3148 -1.0288
 8344TIP3   OH224995   3.989   6.799   5.229  0.3897 -0.2995 -0.6999
 8344TIP3    H124996   4.011   6.727   5.289  1.4885 -1.2862 -2.2355
 8344TIP3    H224997   3.899   6.781   5.202 -0.9260  1.2590  2.0795
 8345TIP3   OH224998   1.813   1.911   0.950  0.3747 -0.3871  0.5120
 8345TIP3    H124999   1.794   1.838   1.008  0.4985  0.8957  2.2712
 8345TIP3    H225000   1.844   1.980   1.009  0.5144  0.9911 -1.1050
 8346TIP3   OH225001   1.272   4.133   3.806 -0.0304  0.0294 -0.3755
 8346TIP3    H125002   1.364   4.114   3.827 -0.0739  0.9213  0.6901
 8346TIP3    H225003   1.222   4.082   3.869 -0.1969  1.4957  0.7185
 8347TIP3   OH225004   2.761   5.396   2.553 -0.2982 -0.1591  0.0134
 8347TIP3    H125005   2.711   5.349   2.619 -0.0574  0.4962  0.6738
 8347TIP3    H225006   2.811   5.461   2.602  0.4844 -0.1792 -0.7326
 8348TIP3   OH225007   2.310   6.155   2.421  0.6458 -0.0530  0.1155
 8348TIP3    H125008   2.288   6.207   2.343  1.8825  0.6137  0.1875
 8348TIP3    H225009   2.400   6.180   2.442  0.2978 -0.1403  1.8320
 8349TIP3   OH225010   6.097   2.672   2.599  0.0184  0.3638  0.0075
 8349TIP3    H125011   6.010   2.631   2.597 -0.2401  0.9047 -1.6526
 8349TIP3    H225012   6.091   2.742   2.534  1.5035  0.8630  0.3738
 8350TIP3   OH225013   1.364   5.592   3.662 -0.1396 -0.8623 -0.4933
 8350TIP3    H125014   1.434   5.629   3.716 -0.4906 -2.4393  1.1322
 8350TIP3    H225015   1.285   5.637   3.692  0.1420  1.3018 -2.6915
 8351TIP3   OH225016   1.273   1.179   3.602  0.9968 -0.0020  0.4823
 8351TIP3    H125017   1.254   1.251   3.661  0.1989 -1.3624  1.9576
 8351TIP3    H225018   1.368   1.169   3.606  1.2548  1.7165 -0.6948
 8352TIP3   OH225019   0.773   4.609   0.044  0.1330 -0.0401  0.0385
 8352TIP3    H125020   0.811   4.556  -0.027 -0.7039 -0.4090 -0.1413
 8352TIP3    H225021   0.767   4.548   0.118 -0.1236  0.0154  0.0619
 8353TIP3   OH225022   0.743   0.146   0.958  0.0286  0.1953  0.5429
 8353TIP3    H125023   0.739   0.059   0.919 -0.4483  0.0743  0.8557
 8353TIP3    H225024   0.675   0.196   0.913 -0.1643  0.2064  0.8415
 8354TIP3   OH225025   5.023   3.351   1.214 -0.5026  0.3993 -0.3659
 8354TIP3    H125026   5.117   3.335   1.214 -0.3471  1.2355 -0.0407
 8354TIP3    H225027   5.013   3.436   1.258 -1.7430 -1.4213  3.2436
 8355TIP3   OH225028   0.450   2.149   1.552  0.3911  1.1091 -0.1945
 8355TIP3    H125029   0.477   2.079   1.612  0.1531 -0.5382 -1.9337
 8355TIP3    H225030   0.528   2.205   1.545  0.2965  1.6116  1.9200
 8356TIP3   OH225031   3.910   0.945   4.723  0.1843  0.4521 -0.3577
 8356TIP3    H125032   3.850   0.958   4.796 -0.4529  0.1643 -0.8259
 8356TIP3    H225033   3.996   0.936   4.764 -0.1368  0.5429  0.3382
 8357TIP3   OH225034   6.146   1.896   5.820 -0.1822 -0.7082  0.4576
 8357TIP3    H125035   6.074   1.885   5.882 -0.3546 -0.4278  0.3089
 8357TIP3    H225036   6.192   1.975   5.849 -0.5431 -0.3113 -0.0461
 8358TIP3   OH225037   2.313   2.819   0.562 -0.0994  0.2585 -0.6297
 8358TIP3    H125038   2.317   2.905   0.521 -0.2048  0.4370 -0.2681
 8358TIP3    H225039   2.271   2.834   0.646  0.2362 -0.0830 -0.3953
 8359TIP3   OH225040   5.278   4.922   3.724  0.7122 -0.0865 -0.5219
 8359TIP3    H125041   5.196   4.966   3.748  0.5945 -1.2870  1.5065
 8359TIP3    H225042   5.252   4.860   3.656 -0.1931 -0.7924  0.4345
 8360TIP3   OH225043   3.476   1.675   4.648  0.0735 -0.2647 -0.1537
 8360TIP3    H125044   3.488   1.617   4.723 -0.7801 -0.0068  0.1955
 8360TIP3    H225045   3.470   1.617   4.572  1.7498 -0.4910 -0.1423
 8361TIP3   OH225046   4.363   0.237   3.957 -0.9745 -0.4967 -0.1641
 8361TIP3    H125047   4.458   0.242   3.968 -0.8799  0.3887 -1.2009
 8361TIP3    H225048   4.328   0.309   4.010 -0.9695 -0.0953 -0.6950
 8362TIP3   OH225049   1.580   0.988   1.159 -0.5123 -0.1482 -0.2928
 8362TIP3    H125050   1.507   0.939   1.120 -0.8443 -0.8142  1.0982
 8362TIP3    H225051   1.564   0.984   1.253  0.4828  1.0604 -0.0499
 8363TIP3   OH225052   5.616   6.069   1.696 -0.3605 -0.3815  0.2559
 8363TIP3    H125053   5.694   6.027   1.732 -1.7992 -1.4787  2.2282
 8363TIP3    H225054   5.542   6.022   1.734 -2.0330  1.1128 -0.9395
 8364TIP3   OH225055   3.762   0.484   0.249  0.4101  0.0565 -0.0766
 8364TIP3    H125056   3.833   0.493   0.313  0.6470  0.2953 -0.3664
 8364TIP3    H225057   3.708   0.561   0.262  0.3380 -0.0044 -0.0173
 8365TIP3   OH225058   0.304   3.511   2.487  0.0489 -0.5948 -0.1364
 8365TIP3    H125059   0.398   3.515   2.508 -0.1697  0.1595  0.7631
 8365TIP3    H225060   0.292   3.577   2.419  0.0190 -0.0482  0.3915
 8366TIP3   OH225061   4.726   0.442   3.816  0.0726 -0.3327  0.0492
 8366TIP3    H125062   4.669   0.517   3.798  0.3909  0.2196  1.2426
 8366TIP3    H225063   4.743   0.403   3.730  0.7004  1.5450 -0.7239
 8367TIP3   OH225064   2.271   6.685   1.373 -0.3517 -0.3955  0.2940
 8367TIP3    H125065   2.313   6.599   1.374  1.0704  0.2784  0.8406
 8367TIP3    H225066   2.182   6.668   1.404 -0.8519 -2.0055 -1.8043
 8368TIP3   OH225067   0.610   2.935   3.403 -0.0357  0.0261 -0.4933
 8368TIP3    H125068   0.677   2.968   3.343 -0.1039 -1.0926 -1.2074
 8368TIP3    H225069   0.660   2.899   3.477  0.1962 -1.1907 -1.2174
 8369TIP3   OH225070   3.344   2.527   0.354 -0.1570 -0.2268  0.1706
 8369TIP3    H125071   3.306   2.577   0.281 -0.1024 -0.0185  0.2832
 8369TIP3    H225072   3.280   2.459   0.373 -1.2538  1.0731  1.4051
 8370TIP3   OH225073   5.646   1.292   2.060  0.2899  0.0159 -0.0738
 8370TIP3    H125074   5.615   1.219   2.007 -0.9636 -1.1351  2.0894
 8370TIP3    H225075   5.573   1.353   2.064  0.6547  0.4740 -0.3115
 8371TIP3   OH225076   0.669   1.306   4.777  0.3380  0.2858  0.0004
 8371TIP3    H125077   0.734   1.343   4.837  0.4242 -0.2224  0.2185
 8371TIP3    H225078   0.668   1.368   4.704  0.9531  0.3901  0.0683
 8372TIP3   OH225079   0.702   3.243   5.757  0.0726 -0.4267  0.0896
 8372TIP3    H125080   0.690   3.318   5.699 -0.2985 -0.6496 -0.1269
 8372TIP3    H225081   0.652   3.266   5.836  1.3327  0.2788  0.7044
 8373TIP3   OH225082   1.143   3.564   3.073  0.0842 -0.0744  0.2079
 8373TIP3    H125083   1.086   3.639   3.090  0.7560  0.5311 -0.1281
 8373TIP3    H225084   1.180   3.542   3.158  2.5651  2.2191 -0.1407
 8374TIP3   OH225085   4.722   0.447   2.215  0.0516  0.2713 -0.5657
 8374TIP3    H125086   4.626   0.438   2.214  0.0635  0.1364 -1.0790
 8374TIP3    H225087   4.746   0.441   2.307 -0.4237  0.1475 -0.4474
 8375TIP3   OH225088   2.920   2.187   4.051  0.2148 -0.5084  0.1964
 8375TIP3    H125089   2.868   2.227   3.982 -1.0017 -1.9796  0.2184
 8375TIP3    H225090   2.891   2.231   4.131 -1.4096 -1.6606  0.2747
 8376TIP3   OH225091   0.167   5.961   0.414 -0.2403  0.4814  0.1413
 8376TIP3    H125092   0.091   5.982   0.358 -1.2515 -0.0966  1.2473
 8376TIP3    H225093   0.131   5.902   0.481  1.7906 -2.2389 -0.9749
 8377TIP3   OH225094   4.784   4.583   3.540  0.0526  0.5015  0.2325
 8377TIP3    H125095   4.856   4.524   3.518 -0.4960 -0.4272  0.8683
 8377TIP3    H225096   4.797   4.602   3.633 -0.7782 -0.0528  0.4710
 8378TIP3   OH225097   1.716   0.265   3.894  1.0974 -0.3122  0.1451
 8378TIP3    H125098   1.794   0.306   3.932  0.6572  0.4531  0.2349
 8378TIP3    H225099   1.730   0.271   3.799  1.5276 -0.9363  0.1574
 8379TIP3   OH225100   1.681   0.474   2.353 -0.7461  0.1319 -0.1558
 8379TIP3    H125101   1.602   0.437   2.313 -1.0066 -2.9570  2.6686
 8379TIP3    H225102   1.750   0.460   2.289 -1.7175 -1.3755 -0.9238
 8380TIP3   OH225103   3.527   0.791   3.174 -0.4094 -0.0178 -0.3549
 8380TIP3    H125104   3.536   0.812   3.267  1.6999  0.1951 -0.5729
 8380TIP3    H225105   3.517   0.876   3.131 -1.2159 -0.1061 -0.3610
 8381TIP3   OH225106   3.314   4.102   0.556  0.6644 -0.2928 -1.3377
 8381TIP3    H125107   3.371   4.077   0.483 -0.7059  1.2045 -3.0259
 8381TIP3    H225108   3.332   4.195   0.570  0.5190 -0.4393 -0.1070
 8382TIP3   OH225109   4.892   1.849   4.217  0.8060 -0.1813 -0.1162
 8382TIP3    H125110   4.823   1.890   4.164  0.2016  0.2129  0.9325
 8382TIP3    H225111   4.973   1.892   4.189  0.3763  0.6543 -0.0910
 8383TIP3   OH225112   4.672   5.104   1.127 -0.1273  0.5296  0.0459
 8383TIP3    H125113   4.654   5.144   1.042  2.0075  0.9413 -0.2671
 8383TIP3    H225114   4.691   5.013   1.107 -1.4358  0.1653  0.3415
 8384TIP3   OH225115   4.927   0.686   4.361 -0.1419 -0.0292 -0.0512
 8384TIP3    H125116   4.937   0.766   4.413  0.9769  0.6635 -1.2682
 8384TIP3    H225117   4.962   0.709   4.275  1.3822 -2.1822 -0.0814
 8385TIP3   OH225118   2.574   1.199   0.692  0.0452 -0.4187  0.2556
 8385TIP3    H125119   2.597   1.271   0.751  0.0602  1.1157 -1.5209
 8385TIP3    H225120   2.499   1.232   0.643  0.0233 -1.6496 -0.5805
 8386TIP3   OH225121   5.457   3.416   0.233  0.2626 -0.0074  0.1355
 8386TIP3    H125122   5.411   3.470   0.297  0.2024  0.3011 -0.1676
 8386TIP3    H225123   5.538   3.463   0.215 -1.2256  1.7698 -2.6366
 8387TIP3   OH225124   4.516   5.047   3.428 -0.0837 -0.2589  0.3632
 8387TIP3    H125125   4.498   5.063   3.336  0.4746  1.1908  0.4760
 8387TIP3    H225126   4.608   5.070   3.439  0.0529 -1.1356  1.1343
 8388TIP3   OH225127   2.994   3.833   2.187 -0.3892 -0.5630  0.0336
 8388TIP3    H125128   2.940   3.842   2.108  0.2003  2.5530 -0.1647
 8388TIP3    H225129   2.945   3.773   2.243 -1.9912 -1.0233 -1.7570
 8389TIP3   OH225130   4.791   0.798   2.567 -0.7515  0.0903  0.5978
 8389TIP3    H125131   4.843   0.784   2.645 -0.5495 -1.0512  0.2907
 8389TIP3    H225132   4.846   0.766   2.495 -1.8163 -1.1199  0.2635
 8390TIP3   OH225133   5.908   3.837   3.818 -0.3750 -0.2608 -0.0993
 8390TIP3    H125134   5.952   3.789   3.889  0.0605 -0.4446 -0.4878
 8390TIP3    H225135   5.892   3.770   3.751  0.1066  0.1092 -0.5862
 8391TIP3   OH225136   0.062   6.623   2.593  0.5251  0.1434 -0.1640
 8391TIP3    H125137   0.010   6.704   2.596  1.1377  0.5576 -0.3609
 8391TIP3    H225138   0.130   6.641   2.528  0.4877 -0.6491 -0.4342
 8392TIP3   OH225139   5.964   3.304   4.226  0.0570 -0.3138 -0.2092
 8392TIP3    H125140   6.016   3.291   4.305  0.2791  0.0781 -0.2905
 8392TIP3    H225141   6.027   3.331   4.159 -0.2473  0.1679 -0.3085
 8393TIP3   OH225142   4.906   4.071   2.330 -0.5414  0.4780  0.3402
 8393TIP3    H125143   4.965   4.129   2.380  0.9311 -0.0804 -0.6697
 8393TIP3    H225144   4.860   4.130   2.270  1.3558  0.6112 -1.0745
 8394TIP3   OH225145   0.274   1.558   3.534  0.3041  0.0921 -0.2235
 8394TIP3    H125146   0.343   1.509   3.577 -0.2378 -0.1168  0.4208
 8394TIP3    H225147   0.312   1.585   3.450  1.2847  0.3027  0.2822
 8395TIP3   OH225148   1.053   6.190   1.783 -0.4220  0.7268 -0.6642
 8395TIP3    H125149   1.087   6.105   1.756  0.4397  0.2983  1.5676
 8395TIP3    H225150   0.986   6.211   1.717 -0.8430 -1.7947 -1.1423
 8396TIP3   OH225151   7.209   5.616   5.654 -0.1867  0.1905 -0.0657
 8396TIP3    H125152   7.188   5.523   5.645  0.6706  0.0348 -0.6275
 8396TIP3    H225153   7.125   5.660   5.659 -0.6240 -0.4786 -1.2578
 8397TIP3   OH225154   4.742   0.358   1.788 -0.3607 -0.3259 -0.1313
 8397TIP3    H125155   4.787   0.339   1.705 -1.0927 -0.2329 -0.5527
 8397TIP3    H225156   4.649   0.350   1.768 -0.5403 -3.0192  1.3028
 8398TIP3   OH225157   4.602   6.099   3.261  0.2606  0.6770  0.2590
 8398TIP3    H125158   4.645   6.141   3.336  0.0063 -1.1933  1.5047
 8398TIP3    H225159   4.672   6.087   3.197  0.5946  1.8123  0.3847
 8399TIP3   OH225160   7.013   5.006   5.069 -0.7065  0.0017  0.1268
 8399TIP3    H125161   6.987   5.097   5.085 -0.4993  0.3872 -1.5690
 8399TIP3    H225162   7.044   5.005   4.979 -2.3297 -2.1177 -0.4972
 8400TIP3   OH225163   3.422   0.091   1.801  0.0038  0.4049  0.2781
 8400TIP3    H125164   3.516   0.086   1.785  0.0153 -0.1754  0.5261
 8400TIP3    H225165   3.411   0.060   1.891 -0.2842  1.6904  0.7189
 8401TIP3   OH225166   6.144   3.557   5.562 -0.1524  0.6619 -1.0113
 8401TIP3    H125167   6.204   3.482   5.559 -0.0996  0.7266 -1.9740
 8401TIP3    H225168   6.166   3.602   5.643 -0.7184 -0.7981 -0.0001
 8402TIP3   OH225169   3.208   0.386   2.273  0.4561 -0.3870  0.2208
 8402TIP3    H125170   3.168   0.431   2.347  1.4601  2.3814 -0.7815
 8402TIP3    H225171   3.275   0.330   2.312  0.4134  0.3945  1.4583
 8403TIP3   OH225172   3.782   5.526   2.142  0.4222  0.3838  0.2182
 8403TIP3    H125173   3.854   5.527   2.205 -0.0915 -1.3677  0.8963
 8403TIP3    H225174   3.703   5.529   2.196 -0.0489  2.2113 -0.5104
 8404TIP3   OH225175   4.529   1.095   2.430 -0.0214 -0.3617 -0.3577
 8404TIP3    H125176   4.514   1.009   2.393  0.2330  0.6112 -2.8919
 8404TIP3    H225177   4.624   1.107   2.427 -0.1642  0.6884 -1.8089
 8405TIP3   OH225178   5.166   3.652   1.026 -0.5296 -0.1569 -0.6078
 8405TIP3    H125179   5.087   3.693   1.062 -0.4330 -1.4938  1.2835
 8405TIP3    H225180   5.207   3.609   1.102  1.9583  0.3873 -1.5544
 8406TIP3   OH225181   1.408   4.094   2.772 -0.1155 -0.7464 -0.8995
 8406TIP3    H125182   1.367   4.090   2.685 -3.0728 -0.9275  0.3662
 8406TIP3    H225183   1.396   4.185   2.800 -1.1368 -1.1670  0.1180
 8407TIP3   OH225184   4.593   6.331   0.068  0.8589 -0.3737  0.2214
 8407TIP3    H125185   4.641   6.414   0.073 -0.0043  0.2288 -1.0378
 8407TIP3    H225186   4.504   6.353   0.098 -0.2916 -0.0235 -3.0513
 8408TIP3   OH225187   2.022   2.014   3.387  0.2679  0.1202  0.3481
 8408TIP3    H125188   2.078   2.063   3.326  0.7240  1.9425  2.0993
 8408TIP3    H225189   2.025   2.066   3.468 -1.3823 -1.4779  1.5010
 8409TIP3   OH225190   3.707   4.711   2.900  0.3388 -0.4799  0.1209
 8409TIP3    H125191   3.707   4.626   2.943 -0.9443 -0.1910  0.7138
 8409TIP3    H225192   3.669   4.694   2.813  2.1285 -0.8970 -0.6333
 8410TIP3   OH225193   1.070   1.901   1.289 -0.2319  0.3345  0.0107
 8410TIP3    H125194   1.102   1.838   1.353  0.4706  1.8257  1.1735
 8410TIP3    H225195   1.019   1.963   1.339  0.9243  1.9471 -0.7140
 8411TIP3   OH225196   0.860   6.198   1.988 -0.3150 -0.0330  0.0567
 8411TIP3    H125197   0.939   6.207   1.935  0.3007 -1.6648  0.6355
 8411TIP3    H225198   0.891   6.206   2.078 -1.0363  0.6147  0.2645
 8412TIP3   OH225199   4.525   4.279   0.687  0.1848  0.2089  0.3512
 8412TIP3    H125200   4.487   4.192   0.676 -1.6887  0.9549  0.4710
 8412TIP3    H225201   4.599   4.267   0.746  0.4196 -1.3935 -0.2263
 8413TIP3   OH225202   4.418   4.476   4.627 -0.4584  0.2319 -0.0866
 8413TIP3    H125203   4.326   4.467   4.653 -0.3993 -2.5210 -0.4716
 8413TIP3    H225204   4.438   4.392   4.584  2.4513  0.4521  0.6814
 8414TIP3   OH225205   6.196   3.725   3.183 -0.3512  0.1312  0.3192
 8414TIP3    H125206   6.215   3.669   3.258  0.4584  1.1324  0.8949
 8414TIP3    H225207   6.244   3.685   3.110  2.1897  1.3296  1.2454
 8415TIP3   OH225208   1.990   5.482   3.003  0.3590  0.3432 -0.1158
 8415TIP3    H125209   2.002   5.529   2.921 -1.8768 -0.1222 -0.7655
 8415TIP3    H225210   1.949   5.399   2.978 -0.5243  0.2627  1.4690
 8416TIP3   OH225211   3.180   4.746   4.014 -0.1650  0.1366 -0.0179
 8416TIP3    H125212   3.151   4.816   3.955 -2.5679 -0.2114  0.6420
 8416TIP3    H225213   3.135   4.762   4.096  1.4562 -0.6177  1.0891
 8417TIP3   OH225214   2.956   2.736   4.483 -0.3362  0.0728  1.2135
 8417TIP3    H125215   3.002   2.820   4.490  0.9324 -0.4453 -0.2389
 8417TIP3    H225216   2.995   2.682   4.552 -0.4038  0.3247  1.4554
 8418TIP3   OH225217   3.922   6.553   2.084  0.0801 -0.5805  0.0156
 8418TIP3    H125218   3.921   6.464   2.119  0.9324 -0.1330  1.2262
 8418TIP3    H225219   3.927   6.609   2.161  2.2737  0.4296 -0.7907
 8419TIP3   OH225220   3.016   6.387   1.159  0.3423  0.3727  0.0167
 8419TIP3    H125221   2.932   6.353   1.190  0.2252  1.2368  0.6800
 8419TIP3    H225222   3.014   6.372   1.064 -0.6739  0.5984 -0.0180
 8420TIP3   OH225223   4.755   4.074   1.087  0.2219 -0.1037  0.4375
 8420TIP3    H125224   4.678   4.043   1.133  0.6537 -0.5089  0.8964
 8420TIP3    H225225   4.743   4.045   0.997 -1.4584  2.1523 -0.1743
 8421TIP3   OH225226   4.287   4.702   5.436 -0.0862  0.5191 -0.3805
 8421TIP3    H125227   4.274   4.777   5.493 -0.5355  0.6880 -0.6987
 8421TIP3    H225228   4.199   4.669   5.418  0.1819 -1.1747  1.1628
 8422TIP3   OH225229   1.569   6.137   4.232  0.3605  0.2974 -0.8227
 8422TIP3    H125230   1.503   6.123   4.163 -0.0489  1.8988 -0.8049
 8422TIP3    H225231   1.544   6.077   4.302 -0.5061  0.1904 -1.2102
 8423TIP3   OH225232   0.984   5.620   2.724 -0.3926  0.4536  0.5059
 8423TIP3    H125233   0.967   5.692   2.663  0.3638  1.1483  1.0822
 8423TIP3    H225234   1.074   5.593   2.704  0.1355  1.1801  1.7715
 8424TIP3   OH225235   5.353   6.621   4.833 -0.0109  0.5282  0.1420
 8424TIP3    H125236   5.333   6.692   4.894 -0.4159  0.5103  0.0329
 8424TIP3    H225237   5.352   6.662   4.747  0.7032  0.5818  0.1589
 8425TIP3   OH225238   4.915   3.101   1.150  0.3020 -0.1190  0.0318
 8425TIP3    H125239   4.945   3.182   1.190  0.0036 -0.4750  0.9996
 8425TIP3    H225240   4.895   3.043   1.224  1.2799 -1.3580 -0.6289
 8426TIP3   OH225241   0.753   5.419   2.949  0.0109  0.4009 -0.4267
 8426TIP3    H125242   0.841   5.384   2.934 -0.2883 -0.3987 -0.3759
 8426TIP3    H225243   0.736   5.473   2.871 -0.0175 -0.6205 -1.1519
 8427TIP3   OH225244   4.460   0.536   0.073  0.3259 -0.4192 -0.0215
 8427TIP3    H125245   4.439   0.497   0.158 -0.9007 -0.3966 -0.2997
 8427TIP3    H225246   4.375   0.555   0.033  0.7290 -2.8351 -2.3722
 8428TIP3   OH225247   6.152   0.698   0.184 -0.0069 -0.6701  0.2146
 8428TIP3    H125248   6.199   0.781   0.174 -1.6028  0.2256 -0.1280
 8428TIP3    H225249   6.192   0.640   0.119  1.2784 -0.2763  0.6115
 8429TIP3   OH225250   5.658   0.828   2.147 -0.1253 -0.2584  0.2211
 8429TIP3    H125251   5.716   0.892   2.190 -0.9900  2.6900 -2.5980
 8429TIP3    H225252   5.702   0.807   2.065 -1.6303 -0.3232 -0.6014
 8430TIP3   OH225253   6.116   5.482   1.849 -0.0800 -0.6419  0.6423
 8430TIP3    H125254   6.032   5.525   1.861 -0.3752 -1.0592  0.1249
 8430TIP3    H225255   6.155   5.480   1.936  0.0082  0.7935  0.6618
 8431TIP3   OH225256   0.858   0.454   4.427  0.2499  0.1484  0.0707
 8431TIP3    H125257   0.887   0.465   4.518 -0.5222 -0.1664  0.3646
 8431TIP3    H225258   0.789   0.519   4.417 -0.7755 -0.8968  0.2149
 8432TIP3   OH225259   2.135   5.288   3.354 -0.3208 -0.2619 -0.0778
 8432TIP3    H125260   2.205   5.319   3.297  0.4100 -1.1322  0.3057
 8432TIP3    H225261   2.080   5.234   3.298 -0.6766  0.4207 -0.3815
 8433TIP3   OH225262   4.202   3.202   2.584  0.3880  0.1236 -0.2810
 8433TIP3    H125263   4.168   3.212   2.672  0.5561  1.0945 -0.3170
 8433TIP3    H225264   4.234   3.289   2.560  2.6138 -0.6370 -0.3608
 8434TIP3   OH225265   5.465   0.161   2.899  0.1882  0.6785  0.0425
 8434TIP3    H125266   5.535   0.169   2.835  0.7788  0.6119  0.6660
 8434TIP3    H225267   5.507   0.122   2.976 -1.2269 -2.6625 -0.7196
 8435TIP3   OH225268   2.960   4.680   0.146  0.8967  0.2118  0.5480
 8435TIP3    H125269   2.918   4.766   0.159 -1.0670 -0.6451  0.2335
 8435TIP3    H225270   2.969   4.672   0.051  0.8307 -0.0473  0.5632
 8436TIP3   OH225271   4.094   2.219   2.861 -0.1346  0.1711 -0.0749
 8436TIP3    H125272   4.074   2.125   2.861 -1.1815  0.3782 -0.8606
 8436TIP3    H225273   4.139   2.233   2.944 -1.8972 -0.6302  1.0905
 8437TIP3   OH225274   4.556   2.608   3.948 -0.4290 -0.1466 -0.1341
 8437TIP3    H125275   4.562   2.635   4.040 -2.0796  2.3534 -0.6397
 8437TIP3    H225276   4.627   2.655   3.905 -0.0957 -0.7501 -0.2403
 8438TIP3   OH225277   2.901   5.178   5.506  0.6837 -0.0390  0.2026
 8438TIP3    H125278   2.966   5.107   5.511 -0.9623 -1.6232 -0.1392
 8438TIP3    H225279   2.884   5.200   5.598  0.9904 -0.2724  0.3199
 8439TIP3   OH225280   6.318   0.479   0.587  0.1614  0.0728 -0.4568
 8439TIP3    H125281   6.287   0.567   0.608  2.3364  0.8458 -0.2366
 8439TIP3    H225282   6.252   0.445   0.526 -2.1701  0.7564  1.4975
 8440TIP3   OH225283   3.761   5.645   1.520 -0.2958  0.8511  0.1226
 8440TIP3    H125284   3.803   5.719   1.476  0.5074  0.4842  0.2588
 8440TIP3    H225285   3.794   5.649   1.609 -2.3914  1.9706  0.9309
 8441TIP3   OH225286   0.630   1.833   5.299 -0.0049 -0.4428  0.4264
 8441TIP3    H125287   0.568   1.762   5.282 -0.1480  0.0686 -1.3753
 8441TIP3    H225288   0.609   1.899   5.233  1.1752  0.6007  1.0563
 8442TIP3   OH225289   3.234   1.870   4.620  0.0256  0.0006 -0.1083
 8442TIP3    H125290   3.190   1.837   4.542 -0.1945  0.2327 -0.0827
 8442TIP3    H225291   3.181   1.944   4.648 -0.7853 -1.0058  1.1487
 8443TIP3   OH225292   5.064   6.721   0.242 -0.1306  0.0170 -0.2112
 8443TIP3    H125293   5.051   6.668   0.163 -2.5024  0.5804 -0.2730
 8443TIP3    H225294   5.014   6.675   0.310  0.2103  0.6118  0.4573
 8444TIP3   OH225295   5.866   4.147   5.076  0.3621 -0.3805 -0.2054
 8444TIP3    H125296   5.959   4.126   5.086 -0.0011 -1.8380  0.2845
 8444TIP3    H225297   5.847   4.206   5.148  0.7823 -0.5116  0.0167
 8445TIP3   OH225298   4.295   5.737   0.348  0.1585  0.0212  0.4862
 8445TIP3    H125299   4.246   5.659   0.323  0.3441  1.0376 -3.7917
 8445TIP3    H225300   4.385   5.706   0.359  0.1306 -0.5056 -0.6223
 8446TIP3   OH225301   0.087   0.127   0.141 -0.4132  0.2299  0.2793
 8446TIP3    H125302   0.166   0.076   0.158 -0.8728 -0.4968  0.2706
 8446TIP3    H225303   0.088   0.144   0.047  0.4672  1.4702  0.4929
 8447TIP3   OH225304   5.009   5.203   1.348 -0.1133  0.0354 -0.1248
 8447TIP3    H125305   5.048   5.290   1.340 -0.7232  0.3687  0.5007
 8447TIP3    H225306   4.916   5.219   1.362 -0.2805 -0.7303 -0.3085
 8448TIP3   OH225307   0.222   3.940   1.213 -0.2382  0.1950 -0.1408
 8448TIP3    H125308   0.182   3.981   1.136  0.7414  0.2662 -0.6284
 8448TIP3    H225309   0.272   3.867   1.178  0.9973  0.8060  0.3155
 8449TIP3   OH225310   2.106   5.178   2.595  0.2034  0.6723  0.4310
 8449TIP3    H125311   2.201   5.189   2.607  0.8991 -2.4008 -1.1399
 8449TIP3    H225312   2.069   5.262   2.620  3.3948  2.2477  0.4121
 8450TIP3   OH225313   3.666   2.150   4.260 -0.2840 -0.0408 -0.3483
 8450TIP3    H125314   3.689   2.237   4.293 -0.8124 -1.0187  2.9645
 8450TIP3    H225315   3.750   2.108   4.243  0.0278  0.4758 -0.1177
 8451TIP3   OH225316   5.858   3.166   3.333 -0.3617 -0.8702  0.4220
 8451TIP3    H125317   5.803   3.087   3.329 -1.9408  0.1532  1.1170
 8451TIP3    H225318   5.869   3.192   3.241 -3.6702  0.5931  0.2865
 8452TIP3   OH225319   0.472   3.691   3.311 -0.2261 -0.8798 -0.0559
 8452TIP3    H125320   0.465   3.668   3.404 -0.9609 -3.3928 -0.6263
 8452TIP3    H225321   0.471   3.606   3.266 -0.0319  0.2702 -2.3729
 8453TIP3   OH225322   0.344   3.325   2.017 -0.3728 -0.0788 -0.2924
 8453TIP3    H125323   0.379   3.260   1.955  0.3812 -0.7122  0.7688
 8453TIP3    H225324   0.252   3.336   1.990  0.3031  0.8507 -2.4936
 8454TIP3   OH225325   1.561   2.916   1.964 -0.0120  0.2891  0.2214
 8454TIP3    H125326   1.570   2.918   1.869 -0.1306  0.4032  0.2121
 8454TIP3    H225327   1.473   2.950   1.981  0.8901  2.6902  0.4850
 8455TIP3   OH225328   6.405   6.314   5.287  0.3257  0.2960 -0.1035
 8455TIP3    H125329   6.382   6.236   5.338  0.0323 -0.0700 -0.7939
 8455TIP3    H225330   6.335   6.323   5.223 -0.3141  1.8632  0.7580
 8456TIP3   OH225331   0.863   0.438   2.926 -0.1503 -0.0087 -0.2026
 8456TIP3    H125332   0.885   0.517   2.976  1.3155  0.1780 -1.0640
 8456TIP3    H225333   0.773   0.451   2.898 -0.1432  1.0671  0.2139
 8457TIP3   OH225334   6.578   3.917   0.424 -0.0002 -0.2212  0.0927
 8457TIP3    H125335   6.612   3.967   0.349 -0.6869 -0.1187 -0.1566
 8457TIP3    H225336   6.585   3.826   0.397  0.7483 -0.2405  0.3326
 8458TIP3   OH225337   5.402   3.007   4.140  0.0577 -0.0464 -0.0799
 8458TIP3    H125338   5.334   3.050   4.088  0.4878  0.0952 -0.5339
 8458TIP3    H225339   5.364   3.000   4.227  0.1220  1.6478  0.1326
 8459TIP3   OH225340   2.247   4.477   1.562  0.2322 -0.4296  0.6949
 8459TIP3    H125341   2.178   4.539   1.586  1.3611 -0.1252  3.4081
 8459TIP3    H225342   2.321   4.532   1.536 -0.6093 -0.7486 -2.9409
 8460TIP3   OH225343   4.358   5.691   0.003  0.6127 -0.0856  0.1900
 8460TIP3    H125344   4.341   5.758   0.069  2.3149  0.0286  0.5611
 8460TIP3    H225345   4.288   5.701  -0.061  0.0663  1.1309  0.9594
 8461TIP3   OH225346   6.513   0.752   2.340  0.0264  0.0307 -0.0005
 8461TIP3    H125347   6.593   0.772   2.389  0.1266  1.1332 -0.5880
 8461TIP3    H225348   6.485   0.667   2.373 -0.0465  0.8316  2.1808
 8462TIP3   OH225349   0.174   5.147   3.887  0.2909  0.1008 -0.4247
 8462TIP3    H125350   0.188   5.062   3.844 -1.0807  0.1247 -0.9874
 8462TIP3    H225351   0.079   5.151   3.901  0.4228  1.2291  0.2594
 8463TIP3   OH225352   0.761   1.240   0.100  0.3358 -0.1021 -0.6708
 8463TIP3    H125353   0.689   1.186   0.133  0.0048 -0.1112 -1.4055
 8463TIP3    H225354   0.728   1.330   0.107  0.6051 -0.0398 -0.1481
 8464TIP3   OH225355   4.388   5.963   3.164  0.1593 -0.1257  0.3975
 8464TIP3    H125356   4.408   5.869   3.168 -0.6644 -0.2618  1.8628
 8464TIP3    H225357   4.460   6.004   3.213 -0.5528 -0.1948  1.5335
 8465TIP3   OH225358   6.163   1.873   2.623 -0.1007 -0.6883 -0.2361
 8465TIP3    H125359   6.092   1.812   2.641 -0.0178 -1.0057 -0.9567
 8465TIP3    H225360   6.243   1.823   2.640 -0.0373 -0.3459  0.5300
 8466TIP3   OH225361   4.045   1.727   1.752  0.1911  0.1243  0.3237
 8466TIP3    H125362   3.991   1.702   1.826 -0.1118 -2.3706 -0.6216
 8466TIP3    H225363   3.984   1.766   1.689 -0.8283 -3.1501 -0.9606
 8467TIP3   OH225364   0.690   5.456   2.620  0.3405 -0.0813 -0.5960
 8467TIP3    H125365   0.671   5.527   2.559  1.8176 -0.2175 -1.2649
 8467TIP3    H225366   0.781   5.471   2.647  0.6000 -1.5583 -0.5463
 8468TIP3   OH225367   3.331   4.479   0.207 -0.3655 -0.2694 -0.1485
 8468TIP3    H125368   3.287   4.556   0.245 -0.9214 -1.1140  0.9772
 8468TIP3    H225369   3.399   4.516   0.151 -1.1741  1.0572 -0.3074
 8469TIP3   OH225370   6.686   4.998   5.446  0.6354 -0.2955  0.0741
 8469TIP3    H125371   6.755   4.943   5.483  2.0081 -0.2548 -2.1942
 8469TIP3    H225372   6.733   5.059   5.389 -1.0875  1.4812  0.4500
 8470TIP3   OH225373   2.661   5.093   1.917 -1.0633 -0.2495 -0.8258
 8470TIP3    H125374   2.749   5.128   1.929 -0.8603 -0.8085 -0.6554
 8470TIP3    H225375   2.633   5.126   1.832  0.4788 -2.4666 -2.3023
 8471TIP3   OH225376   5.236   2.698   5.677 -0.1642  0.0080 -0.0677
 8471TIP3    H125377   5.166   2.641   5.648  0.9071 -0.9589 -0.8475
 8471TIP3    H225378   5.233   2.694   5.773 -0.6599 -0.6684 -0.1095
 8472TIP3   OH225379   5.021   5.756   3.212  0.6147  0.3416 -0.6366
 8472TIP3    H125380   5.103   5.710   3.230 -0.3793 -0.8802  0.9983
 8472TIP3    H225381   4.964   5.691   3.173 -0.5398  0.3483  0.9525
 8473TIP3   OH225382   3.511   3.295   0.823  0.2525  0.3974  0.1133
 8473TIP3    H125383   3.424   3.285   0.863  1.7506 -0.6394  3.4570
 8473TIP3    H225384   3.516   3.223   0.760 -1.1242  0.1909  0.2054
 8474TIP3   OH225385   1.511   5.266   1.601  0.4319  0.0842 -0.4316
 8474TIP3    H125386   1.549   5.223   1.523  0.2547 -2.0783  0.5887
 8474TIP3    H225387   1.543   5.214   1.674 -1.6841  0.3273  0.7388
 8475TIP3   OH225388   7.113   5.899   5.532 -0.0628 -0.1092  0.7646
 8475TIP3    H125389   7.139   5.813   5.500 -0.7355 -0.0288 -0.0318
 8475TIP3    H225390   7.119   5.956   5.456  0.3003  0.5327  1.2707
 8476TIP3   OH225391   6.516   2.864   2.295  0.2033  0.1061 -0.3700
 8476TIP3    H125392   6.562   2.894   2.217  1.3094 -1.4192 -0.3537
 8476TIP3    H225393   6.573   2.891   2.368 -0.3048  0.6094 -0.1546
 8477TIP3   OH225394   1.337   0.982   5.806  0.2194  0.6070  0.1594
 8477TIP3    H125395   1.255   1.023   5.779 -0.6647 -0.3794  1.2180
 8477TIP3    H225396   1.351   0.912   5.743  0.4260  0.9757 -0.2086
 8478TIP3   OH225397   0.191   6.544   2.179  0.4943 -0.2558  0.0948
 8478TIP3    H125398   0.271   6.535   2.232  0.3706 -1.8086  0.0474
 8478TIP3    H225399   0.223   6.552   2.089  0.6567  1.2718  0.2575
 8479TIP3   OH225400   3.140   5.820   4.839  0.1712  0.0249 -0.7652
 8479TIP3    H125401   3.133   5.886   4.908 -0.8283  0.4435 -1.2630
 8479TIP3    H225402   3.056   5.775   4.840 -0.6342  1.3138 -2.9835
 8480TIP3   OH225403   6.404   6.188   4.000  0.3801  0.6806  0.0738
 8480TIP3    H125404   6.342   6.260   3.996 -1.0478 -0.4226  1.0798
 8480TIP3    H225405   6.487   6.229   4.025 -0.2097  2.0510 -0.1457
 8481TIP3   OH225406   6.971   2.914   4.895  0.3212 -0.1668  0.0937
 8481TIP3    H125407   6.879   2.894   4.878 -0.0019 -0.3315  1.7902
 8481TIP3    H225408   7.004   2.836   4.941  1.2884 -0.0695 -0.4109
 8482TIP3   OH225409   6.134   4.829   1.745  0.0358 -0.0765 -0.2945
 8482TIP3    H125410   6.155   4.745   1.704 -1.6372 -0.3118 -0.7667
 8482TIP3    H225411   6.054   4.858   1.700 -0.2148  1.0747  0.8276
 8483TIP3   OH225412   4.775   4.691   4.826  0.3610  0.3596 -0.7338
 8483TIP3    H125413   4.714   4.735   4.884  0.6857  0.6280 -0.5937
 8483TIP3    H225414   4.723   4.623   4.783  0.0160  0.4535 -0.4639
 8484TIP3   OH225415   5.563   1.224   5.237  0.9117 -0.2669 -0.3239
 8484TIP3    H125416   5.506   1.188   5.304  0.9683 -1.6764 -0.9971
 8484TIP3    H225417   5.504   1.271   5.177  0.6202 -0.6221 -0.3153
 8485TIP3   OH225418   3.588   5.959   5.312 -0.1468  0.2515  0.1020
 8485TIP3    H125419   3.671   5.993   5.277 -0.1995  1.3680  0.9960
 8485TIP3    H225420   3.551   5.908   5.240  1.1744 -0.0334 -0.4105
 8486TIP3   OH225421   5.749   1.159   0.121  0.4837 -0.2769  0.2494
 8486TIP3    H125422   5.659   1.126   0.109  0.0780  0.5216  0.9887
 8486TIP3    H225423   5.738   1.242   0.167  1.4388  1.2009 -2.0460
 8487TIP3   OH225424   3.234   4.137   1.997  0.1026 -0.1526  0.1459
 8487TIP3    H125425   3.311   4.192   2.014 -0.1757  0.5520 -0.8296
 8487TIP3    H225426   3.255   4.091   1.916 -0.2608 -0.4408  0.2131
 8488TIP3   OH225427   6.803   4.503   0.012 -0.5022 -0.8577  0.2619
 8488TIP3    H125428   6.852   4.421   0.020 -0.0657 -0.6271 -0.0263
 8488TIP3    H225429   6.717   4.476  -0.021  0.1208 -1.0766 -1.2805
 8489TIP3   OH225430   1.343   6.038   1.376 -0.3755 -0.1305  0.3462
 8489TIP3    H125431   1.319   6.051   1.284 -0.7861  1.2211  0.6107
 8489TIP3    H225432   1.265   5.998   1.415 -0.7682  0.6706  0.4020
 8490TIP3   OH225433   3.171   5.912   5.138 -0.0209  0.1062 -0.7149
 8490TIP3    H125434   3.177   5.867   5.223  0.6189 -0.3362 -0.9847
 8490TIP3    H225435   3.261   5.939   5.119  0.3515 -2.0542 -2.4469
 8491TIP3   OH225436   2.254   2.560   3.088 -0.5667  0.9034  0.0244
 8491TIP3    H125437   2.270   2.542   2.995  0.4935  1.2603  0.1268
 8491TIP3    H225438   2.162   2.536   3.101 -0.0149 -1.8726 -0.4576
 8492TIP3   OH225439   0.123   1.956   5.328 -0.4633  0.1018  0.2737
 8492TIP3    H125440   0.097   2.006   5.250  1.2465  0.1866 -0.2949
 8492TIP3    H225441   0.165   2.021   5.384 -1.9261  0.0954  1.4352
 8493TIP3   OH225442   2.504   3.463   1.463 -0.8262 -0.3380 -0.5412
 8493TIP3    H125443   2.468   3.451   1.551 -0.0295  0.4851 -0.0890
 8493TIP3    H225444   2.487   3.555   1.442 -2.5930 -0.9325 -2.0018
 8494TIP3   OH225445   3.189   1.936   0.556  0.5310  0.5860  0.1547
 8494TIP3    H125446   3.226   2.023   0.543  0.7545  0.7818  1.8831
 8494TIP3    H225447   3.254   1.876   0.519  0.5597  1.1140 -0.6752
 8495TIP3   OH225448   2.593   6.069   5.414  0.0595  0.1820  0.3972
 8495TIP3    H125449   2.671   6.038   5.460  0.5374  1.8629  0.7842
 8495TIP3    H225450   2.626   6.131   5.350 -0.9567  1.0841  0.7078
 8496TIP3   OH225451   1.726   0.936   4.375 -0.3452  0.5068 -0.6108
 8496TIP3    H125452   1.699   1.028   4.373 -0.3771  0.5991  1.7064
 8496TIP3    H225453   1.745   0.919   4.467  0.3195 -1.6373 -1.1020
 8497TIP3   OH225454   1.802   4.909   1.595  0.1081 -0.4939 -0.1088
 8497TIP3    H125455   1.809   4.907   1.499 -0.1940  0.7676 -0.1760
 8497TIP3    H225456   1.891   4.896   1.626  0.6829  1.7479 -0.6466
 8498TIP3   OH225457   5.865   5.702   5.432  0.4128 -0.6783 -0.0837
 8498TIP3    H125458   5.794   5.655   5.475  0.4223 -0.8787 -0.2864
 8498TIP3    H225459   5.925   5.726   5.503  0.0646 -0.3655  0.1073
 8499TIP3   OH225460   4.697   4.010   4.231 -0.7314  0.0430  0.2941
 8499TIP3    H125461   4.790   3.990   4.217 -0.9148 -0.6237 -0.0357
 8499TIP3    H225462   4.656   3.992   4.146 -1.0544  1.0466  0.2198
 8500TIP3   OH225463   6.239   4.509   2.462 -0.2298 -0.0710 -0.0956
 8500TIP3    H125464   6.322   4.531   2.504  0.6063  0.4592 -1.8814
 8500TIP3    H225465   6.258   4.428   2.414 -0.5649  0.3189 -0.9130
 8501TIP3   OH225466   0.768   3.300   3.200 -0.0415 -0.3736  0.0720
 8501TIP3    H125467   0.843   3.314   3.143 -0.9388  0.6334 -0.9200
 8501TIP3    H225468   0.779   3.211   3.233  0.2429 -1.2212 -2.1386
 8502TIP3   OH225469   2.122   4.911   2.513  0.2488  0.1106 -0.2275
 8502TIP3    H125470   2.101   5.004   2.521  0.8590  0.1533  1.0352
 8502TIP3    H225471   2.197   4.908   2.453  1.8386  0.6772  1.6641
 8503TIP3   OH225472   3.021   1.114   0.473 -0.1065  0.3049  0.2443
 8503TIP3    H125473   3.048   1.177   0.407  0.6853  1.4813  1.6375
 8503TIP3    H225474   2.925   1.114   0.468 -0.0742  0.7686 -0.5210
 8504TIP3   OH225475   6.272   4.791   0.936 -0.2636  0.5715 -0.1393
 8504TIP3    H125476   6.349   4.822   0.889  0.8877  0.4756  1.5780
 8504TIP3    H225477   6.225   4.870   0.961 -1.6365  0.5882 -2.5487
 8505TIP3   OH225478   0.364   2.558   5.633  0.0582  0.4207 -0.1920
 8505TIP3    H125479   0.414   2.591   5.708  1.5239  1.2737 -1.4779
 8505TIP3    H225480   0.359   2.633   5.574 -0.4279 -0.4508 -1.2815
 8506TIP3   OH225481   0.486   5.347   5.617  0.4924 -0.2908  0.1541
 8506TIP3    H125482   0.407   5.336   5.670  0.0006  1.3429 -0.1598
 8506TIP3    H225483   0.463   5.417   5.555  1.6716 -0.8800 -0.9887
 8507TIP3   OH225484   0.541   3.383   1.627  0.6591 -0.0368 -0.1268
 8507TIP3    H125485   0.491   3.310   1.590 -0.9122  0.1453  1.5103
 8507TIP3    H225486   0.492   3.461   1.601  0.2017  0.1625  1.2877
 8508TIP3   OH225487   6.736   6.736   4.376 -0.5773 -0.3931  0.1817
 8508TIP3    H125488   6.824   6.740   4.339 -0.5257  1.5941  0.4159
 8508TIP3    H225489   6.679   6.720   4.301 -0.1166 -0.4567 -0.1563
 8509TIP3   OH225490   7.102   5.533   1.838  0.1704 -0.1807 -0.0869
 8509TIP3    H125491   7.035   5.549   1.772 -0.3360  0.0103  0.4575
 8509TIP3    H225492   7.108   5.615   1.886  1.4028  0.0775 -0.6520
 8510TIP3   OH225493   1.991   6.361   1.098  0.8273 -0.1353 -0.0066
 8510TIP3    H125494   2.063   6.308   1.133  1.5651  1.6558  1.3612
 8510TIP3    H225495   1.920   6.351   1.162  1.1106  0.7767  0.4767
 8511TIP3   OH225496   4.859   0.594   4.635  0.1791  0.4412  0.0807
 8511TIP3    H125497   4.934   0.536   4.638  0.5085  0.8890  1.0341
 8511TIP3    H225498   4.868   0.642   4.553  0.8885  0.4215  0.1417
 8512TIP3   OH225499   6.214   2.593   5.573  0.3907  0.3081 -0.0408
 8512TIP3    H125500   6.229   2.595   5.478 -0.7882 -0.2463 -0.2475
 8512TIP3    H225501   6.218   2.500   5.597 -1.2471  0.2564  0.1154
 8513TIP3   OH225502   6.568   5.404   5.278  0.1973  0.5228 -0.1664
 8513TIP3    H125503   6.513   5.456   5.220  2.2548  0.9622 -1.8574
 8513TIP3    H225504   6.637   5.465   5.307 -0.2250  0.0602  2.0266
 8514TIP3   OH225505   2.029   0.548   3.336 -0.5050 -0.4369  0.4652
 8514TIP3    H125506   2.079   0.495   3.398  0.9410  0.5858  0.2454
 8514TIP3    H225507   1.941   0.553   3.373  0.2519 -0.0629  2.3246
 8515TIP3   OH225508   5.895   6.340   5.006 -0.4289  0.2827  0.3135
 8515TIP3    H125509   5.867   6.252   4.982 -2.7647  0.8837  0.5656
 8515TIP3    H225510   5.858   6.354   5.093 -1.5200  2.0482 -0.3704
 8516TIP3   OH225511   0.892   4.263   4.206 -0.2717 -0.1638 -0.0319
 8516TIP3    H125512   0.941   4.218   4.137  1.1527 -2.2834  2.1836
 8516TIP3    H225513   0.936   4.348   4.215 -2.8675  1.9382 -4.1407
 8517TIP3   OH225514   1.801   2.965   5.039 -0.9360  0.0742  0.1363
 8517TIP3    H125515   1.827   2.965   5.131 -0.9164 -1.3572  0.1603
 8517TIP3    H225516   1.792   2.872   5.017 -0.1218  0.3566 -1.5408
 8518TIP3   OH225517   3.714   0.929   1.675 -0.1447 -0.3896 -0.5653
 8518TIP3    H125518   3.688   0.966   1.590  1.7845 -0.8272 -1.3958
 8518TIP3    H225519   3.750   0.843   1.654 -1.1132 -1.2033  0.9200
 8519TIP3   OH225520   2.414   1.107   4.004  0.3084  0.1776  0.1647
 8519TIP3    H125521   2.428   1.019   4.040 -1.2750  0.1987  0.8768
 8519TIP3    H225522   2.340   1.097   3.944  0.6662  0.8726 -0.4071
 8520TIP3   OH225523   5.351   4.012   2.468 -0.1348 -0.2444  0.7909
 8520TIP3    H125524   5.312   4.055   2.392  2.2343 -1.7781 -1.4692
 8520TIP3    H225525   5.408   4.078   2.506 -0.5984  0.2470  0.6436
 8521TIP3   OH225526   3.896   5.853   1.403 -0.3399  0.0325 -0.0097
 8521TIP3    H125527   3.991   5.857   1.399 -0.1565  1.3792  2.8691
 8521TIP3    H225528   3.867   5.931   1.356  0.0082 -0.0793 -0.4144
 8522TIP3   OH225529   6.917   0.744   1.148  0.0019  0.5220  0.6689
 8522TIP3    H125530   6.910   0.826   1.099 -1.1675 -0.0003 -0.1035
 8522TIP3    H225531   7.010   0.722   1.146 -0.1230 -0.3108 -2.8566
 8523TIP3   OH225532   5.256   1.309   3.746 -0.0944  0.4504 -0.1750
 8523TIP3    H125533   5.268   1.388   3.694 -0.6511  2.0865  2.0032
 8523TIP3    H225534   5.161   1.294   3.743  0.1364 -0.9401 -1.6045
 8524TIP3   OH225535   1.765   1.773   3.647  0.0939 -0.1112 -0.4676
 8524TIP3    H125536   1.810   1.763   3.563  0.3487 -1.1808 -0.2126
 8524TIP3    H225537   1.689   1.716   3.641  0.3734 -0.5654  0.1987
 8525TIP3   OH225538   4.412   3.173   1.975  0.1935  0.0298  0.0952
 8525TIP3    H125539   4.416   3.101   1.911  1.3757  2.5255 -2.8914
 8525TIP3    H225540   4.349   3.234   1.938  2.1619  2.3511  0.3530
 8526TIP3   OH225541   0.586   0.259   0.506  0.5879 -0.2814  0.5410
 8526TIP3    H125542   0.548   0.345   0.524  0.0395 -0.5250  0.5637
 8526TIP3    H225543   0.537   0.227   0.430 -0.4990 -1.3684  1.6564
 8527TIP3   OH225544   4.512   4.727   2.490 -0.2197  0.1376  0.0014
 8527TIP3    H125545   4.462   4.703   2.568  1.1223  0.6890  1.0749
 8527TIP3    H225546   4.475   4.673   2.420 -1.6201 -0.1914  0.9631
 8528TIP3   OH225547   0.184   2.495   2.216  0.3516 -0.2683 -0.4139
 8528TIP3    H125548   0.179   2.401   2.204 -0.1344 -0.4087  0.7681
 8528TIP3    H225549   0.236   2.526   2.142  2.2894 -1.6996  0.2466
 8529TIP3   OH225550   6.850   6.169   4.066 -0.4465 -0.3308  0.2861
 8529TIP3    H125551   6.917   6.129   4.121  0.9727 -0.2560 -1.2940
 8529TIP3    H225552   6.823   6.099   4.007 -2.2596 -0.5330  1.2993
 8530TIP3   OH225553   5.465   0.366   0.156 -0.0228  0.0459 -0.0185
 8530TIP3    H125554   5.547   0.334   0.118  0.9758  0.5792  1.5563
 8530TIP3    H225555   5.408   0.383   0.081  1.1638 -0.7183 -1.1334
 8531TIP3   OH225556   3.869   4.584   4.853  0.2975  0.8590 -0.5193
 8531TIP3    H125557   3.944   4.523   4.848  1.3366  2.1526 -1.6468
 8531TIP3    H225558   3.877   4.637   4.773  0.1117  3.2365  0.9532
 8532TIP3   OH225559   6.262   2.097   2.527  0.2517 -0.6468 -0.1475
 8532TIP3    H125560   6.213   2.024   2.565 -0.1716 -0.0242  0.5328
 8532TIP3    H225561   6.345   2.098   2.574  0.7598 -1.4386 -1.0059
 8533TIP3   OH225562   4.146   5.959   3.318  0.5108 -0.0307 -0.2934
 8533TIP3    H125563   4.152   5.866   3.342  0.7926  0.6169  2.5065
 8533TIP3    H225564   4.214   5.971   3.252  0.3568 -1.8302 -0.8542
 8534TIP3   OH225565   4.475   2.615   4.580 -0.0735 -0.1015  0.0640
 8534TIP3    H125566   4.561   2.655   4.571 -0.1614  0.0066 -0.3104
 8534TIP3    H225567   4.469   2.552   4.508  0.1732 -0.9995  0.8179
 8535TIP3   OH225568   3.063   0.286   5.499  0.0155 -0.2161  0.5102
 8535TIP3    H125569   2.978   0.266   5.461 -0.9823 -0.1302  2.5489
 8535TIP3    H225570   3.124   0.280   5.426 -1.6417 -0.8717 -0.8924
 8536TIP3   OH225571   4.491   4.930   2.751  0.1976 -0.5957  0.0739
 8536TIP3    H125572   4.500   4.987   2.827 -2.9145 -0.3272  0.3466
 8536TIP3    H225573   4.517   4.843   2.782  2.7916  0.1487  0.2573
 8537TIP3   OH225574   3.081   1.522   3.219 -0.3293 -0.9686 -0.0603
 8537TIP3    H125575   3.135   1.505   3.142 -0.7372 -1.1261 -0.3213
 8537TIP3    H225576   3.101   1.451   3.279  0.1499 -0.7254  0.0647
 8538TIP3   OH225577   4.546   5.877   1.845  0.3607 -0.4312  0.2561
 8538TIP3    H125578   4.463   5.922   1.861  0.5614  0.2212 -0.4744
 8538TIP3    H225579   4.613   5.940   1.871  0.6453 -1.4765  2.2061
 8539TIP3   OH225580   4.607   4.524   5.159 -0.0645 -0.2317 -0.2427
 8539TIP3    H125581   4.614   4.436   5.197  0.6967 -0.3186 -0.5570
 8539TIP3    H225582   4.695   4.543   5.127 -0.5231  0.1122 -1.3588
 8540TIP3   OH225583   4.153   4.051   1.405  0.5177 -0.3632  0.2535
 8540TIP3    H125584   4.210   4.128   1.402 -2.4074  2.0240  0.5291
 8540TIP3    H225585   4.119   4.044   1.316  0.8779 -1.4884  0.1930
 8541TIP3   OH225586   3.722   6.481   3.436 -0.1909  0.3611 -0.2114
 8541TIP3    H125587   3.748   6.421   3.366 -0.8933 -1.4533  1.0011
 8541TIP3    H225588   3.641   6.521   3.404 -1.3600 -1.6019  0.1046
 8542TIP3   OH225589   2.747   5.497   3.333  0.1411  0.3582  0.1971
 8542TIP3    H125590   2.702   5.434   3.389  1.6273  0.6653  1.8239
 8542TIP3    H225591   2.678   5.534   3.278 -1.1129 -1.0806  0.7262
 8543TIP3   OH225592   6.265   5.737   0.605  0.3713 -1.0101  0.5383
 8543TIP3    H125593   6.246   5.643   0.605 -1.3153 -0.7725  3.1857
 8543TIP3    H225594   6.284   5.758   0.697  1.4364  1.1331 -0.1043
 8544TIP3   OH225595   6.068   0.606   1.372 -0.2064  0.0648  0.0409
 8544TIP3    H125596   6.127   0.569   1.438 -0.4255 -0.4270 -0.0312
 8544TIP3    H225597   6.012   0.533   1.347 -0.7826  0.5017  0.0374
 8545TIP3   OH225598   2.934   4.852   1.044  0.1312  0.1068  0.0540
 8545TIP3    H125599   2.954   4.945   1.034  0.9889 -0.2298 -1.8942
 8545TIP3    H225600   3.020   4.810   1.051 -0.2035 -0.6160 -0.0958
 8546TIP3   OH225601   3.945   2.181   4.801 -0.5334 -0.7914 -0.2103
 8546TIP3    H125602   3.978   2.109   4.854  0.1428 -0.7590 -0.5719
 8546TIP3    H225603   3.863   2.149   4.764 -1.4183 -0.5394  1.4516
 8547TIP3   OH225604   6.493   4.023   0.772  0.7471  0.2662 -0.1051
 8547TIP3    H125605   6.533   4.101   0.811  0.6367 -0.4975  1.6220
 8547TIP3    H225606   6.553   3.952   0.792 -0.1139 -0.4243  0.0856
 8548TIP3   OH225607   7.130   5.384   5.784 -0.1667  0.0790  0.4518
 8548TIP3    H125608   7.153   5.295   5.758  1.8529  0.1846  1.7141
 8548TIP3    H225609   7.083   5.374   5.867 -0.3486  0.1737  0.3612
 8549TIP3   OH225610   6.091   5.420   5.684 -0.0874 -0.1309  0.0668
 8549TIP3    H125611   6.017   5.466   5.646 -0.2504 -0.1372  0.3724
 8549TIP3    H225612   6.153   5.409   5.611  0.0441  0.7372  0.0356
 8550TIP3   OH225613   2.708   0.235   3.581 -0.4961  0.0769  0.2014
 8550TIP3    H125614   2.728   0.141   3.579 -0.3368  0.0982  0.7170
 8550TIP3    H225615   2.752   0.271   3.504  1.3148  0.0936  1.1873
 8551TIP3   OH225616   3.353   1.876   5.694 -0.3853 -0.1800  0.2906
 8551TIP3    H125617   3.368   1.908   5.783  1.5816 -2.3125  0.8148
 8551TIP3    H225618   3.320   1.953   5.647  2.0960  2.0545  1.9131
 8552TIP3   OH225619   6.094   5.199   1.829 -0.0611  0.0492 -0.1566
 8552TIP3    H125620   6.051   5.283   1.845  0.1679 -0.2779  2.8037
 8552TIP3    H225621   6.188   5.218   1.836 -0.0316 -0.5428  1.3252
 8553TIP3   OH225622   5.740   5.479   4.386  0.2914  0.1667  0.3125
 8553TIP3    H125623   5.727   5.566   4.348  1.7904  0.9163  1.4024
 8553TIP3    H225624   5.668   5.469   4.448 -0.5784  0.0859 -0.6652
 8554TIP3   OH225625   2.560   3.133   1.196 -0.8630  0.2172  0.2926
 8554TIP3    H125626   2.526   3.090   1.274 -1.6928 -1.7422 -1.0417
 8554TIP3    H225627   2.652   3.148   1.215 -1.2190  0.5258  1.9286
 8555TIP3   OH225628   7.172   6.537   1.604  0.6731 -0.1473  0.0111
 8555TIP3    H125629   7.231   6.511   1.533  0.6236 -1.1666  0.3246
 8555TIP3    H225630   7.157   6.631   1.590  0.0982 -0.4627 -1.7338
 8556TIP3   OH225631   5.075   4.680   1.866 -0.1529  0.1303 -0.1219
 8556TIP3    H125632   5.059   4.745   1.797  0.5108  0.2420 -0.1830
 8556TIP3    H225633   5.106   4.732   1.940  1.2188 -0.1742 -0.4471
 8557TIP3   OH225634   2.861   5.394   2.070 -0.1443  0.3524 -0.1973
 8557TIP3    H125635   2.897   5.348   1.994 -0.9263 -0.0429 -0.3351
 8557TIP3    H225636   2.929   5.386   2.137  0.3640  0.3198 -0.7094
 8558TIP3   OH225637   5.762   6.128   1.035 -0.4147  0.4911  0.4981
 8558TIP3    H125638   5.667   6.141   1.036 -0.8136 -2.0305  0.8142
 8558TIP3    H225639   5.774   6.034   1.023  2.0759  0.7933 -0.0233
 8559TIP3   OH225640   0.954   1.169   0.872 -0.0900  0.7887  0.0083
 8559TIP3    H125641   1.047   1.152   0.883 -0.4323 -0.6780  0.8718
 8559TIP3    H225642   0.948   1.219   0.790  1.4029  0.5091 -0.2925
 8560TIP3   OH225643   2.825   5.431   5.721 -0.0306  0.2607  0.2303
 8560TIP3    H125644   2.899   5.392   5.768 -0.1742 -0.2905  0.0171
 8560TIP3    H225645   2.765   5.460   5.789  0.6956  1.3380  0.4131
 8561TIP3   OH225646   4.357   2.846   2.280  0.2683  0.3248 -0.2514
 8561TIP3    H125647   4.433   2.820   2.331 -1.0585 -0.6094  1.3420
 8561TIP3    H225648   4.283   2.806   2.324 -1.4768  3.2740 -0.1919
 8562TIP3   OH225649   6.915   6.213   5.472 -0.3113 -0.5378 -0.2081
 8562TIP3    H125650   6.941   6.288   5.418 -0.3401 -0.3904 -0.0155
 8562TIP3    H225651   6.831   6.185   5.435  0.5885 -1.6495 -1.4879
 8563TIP3   OH225652   3.786   4.133   5.101 -0.2440  0.3913 -0.3477
 8563TIP3    H125653   3.803   4.094   5.016  1.8112 -0.6099  0.4664
 8563TIP3    H225654   3.841   4.085   5.162 -1.1473  1.5203  1.4706
 8564TIP3   OH225655   6.045   1.332   2.900 -0.8248  0.0569  0.1557
 8564TIP3    H125656   6.079   1.334   2.810  0.3719  1.4836  0.5936
 8564TIP3    H225657   6.078   1.249   2.936  0.9182  0.6596  0.0529
 8565TIP3   OH225658   6.978   3.658   5.361  0.4204  0.0631 -0.0189
 8565TIP3    H125659   6.939   3.615   5.285 -1.0021  1.3152 -0.0345
 8565TIP3    H225660   6.923   3.631   5.434  1.9282 -1.3375  0.6807
 8566TIP3   OH225661   6.071   4.318   0.096  0.0087  0.0120  0.0176
 8566TIP3    H125662   5.979   4.334   0.076 -0.5774 -0.6558  2.0092
 8566TIP3    H225663   6.074   4.227   0.127  1.2475  0.1969  0.5109
 8567TIP3   OH225664   0.759   0.390   5.409 -0.3621  0.6695 -0.2830
 8567TIP3    H125665   0.833   0.433   5.366 -1.0855  0.7825 -1.4495
 8567TIP3    H225666   0.730   0.453   5.476  1.4278  0.0530  1.1534
 8568TIP3   OH225667   5.372   0.127   5.114 -0.2545  0.8451  0.2224
 8568TIP3    H125668   5.347   0.101   5.203 -1.2572  0.7709 -0.0728
 8568TIP3    H225669   5.300   0.097   5.059  0.9674 -0.3153 -0.8156
 8569TIP3   OH225670   5.861   6.587   1.947  0.6901  0.0260  0.1124
 8569TIP3    H125671   5.826   6.649   2.012  1.1363  0.3325  0.0643
 8569TIP3    H225672   5.802   6.596   1.872  1.2541  1.0412 -0.2252
 8570TIP3   OH225673   6.338   4.063   1.172  0.3753 -0.0373  0.1459
 8570TIP3    H125674   6.299   4.147   1.194 -1.0367 -0.8139  0.7962
 8570TIP3    H225675   6.395   4.042   1.246 -1.3240 -0.8264  1.3096
 8571TIP3   OH225676   1.351   6.588   3.141 -0.1870  0.4224  0.0429
 8571TIP3    H125677   1.307   6.594   3.056  1.9586 -0.9534 -1.2396
 8571TIP3    H225678   1.399   6.671   3.148  0.2676  0.2181 -0.5017
 8572TIP3   OH225679   5.339   2.121   2.085  0.5750  0.2137 -0.0932
 8572TIP3    H125680   5.413   2.141   2.028  0.5844 -0.7224 -0.4149
 8572TIP3    H225681   5.374   2.062   2.151 -0.3667 -2.1824 -1.6121
 8573TIP3   OH225682   1.807   2.661   2.778  0.0120 -0.5562  0.1464
 8573TIP3    H125683   1.798   2.749   2.814 -0.5519 -0.2033 -0.8261
 8573TIP3    H225684   1.775   2.604   2.848  1.1538 -0.0682  1.1054
 8574TIP3   OH225685   5.205   1.747   4.957  0.5630 -0.6691 -0.3668
 8574TIP3    H125686   5.127   1.792   4.926  0.1167 -1.8817 -1.0588
 8574TIP3    H225687   5.276   1.782   4.903  0.7600  1.3283  1.0698
 8575TIP3   OH225688   0.166   0.502   4.523  0.0307  0.2127 -0.1305
 8575TIP3    H125689   0.129   0.590   4.513  1.0110  0.5146 -1.3812
 8575TIP3    H225690   0.103   0.445   4.480 -0.1473  0.4255 -0.1528
 8576TIP3   OH225691   1.546   1.907   4.481 -0.0538 -0.1408 -0.0409
 8576TIP3    H125692   1.546   1.831   4.539  0.0489  0.1437  0.3332
 8576TIP3    H225693   1.603   1.881   4.408 -1.5444 -1.1643 -0.9060
 8577TIP3   OH225694   3.688   0.104   4.731  0.0882  0.1644  0.5115
 8577TIP3    H125695   3.744   0.089   4.806  0.2958 -1.2501  0.1052
 8577TIP3    H225696   3.748   0.114   4.657 -0.1110  1.5443  0.5056
 8578TIP3   OH225697   4.998   2.523   3.145  0.1804  0.0734  0.1987
 8578TIP3    H125698   4.953   2.489   3.068  0.6021 -0.1535  0.0453
 8578TIP3    H225699   5.031   2.608   3.117  2.9932 -1.2614 -0.9400
 8579TIP3   OH225700   3.292   3.354   0.366  0.3814  0.2175 -0.0169
 8579TIP3    H125701   3.361   3.363   0.432  0.2133 -2.6039  0.6534
 8579TIP3    H225702   3.334   3.311   0.292  0.1037  1.6081 -1.0194
 8580TIP3   OH225703   3.207   5.583   3.152 -0.1714  0.3799  0.0289
 8580TIP3    H125704   3.147   5.598   3.225  0.4157 -0.3695  0.6803
 8580TIP3    H225705   3.289   5.557   3.193  0.3744  0.6060 -0.8805
 8581TIP3   OH225706   2.783   3.815   3.177  0.4456  0.6343  0.4096
 8581TIP3    H125707   2.814   3.762   3.250  2.0434 -0.6745 -1.1261
 8581TIP3    H225708   2.689   3.798   3.172  0.5651 -0.3573  1.2860
 8582TIP3   OH225709   1.367   6.732   4.055  0.0523  0.2555 -0.5845
 8582TIP3    H125710   1.287   6.681   4.068  0.8482 -0.2837  3.7299
 8582TIP3    H225711   1.434   6.665   4.035  0.0790  0.3048 -0.6626
 8583TIP3   OH225712   4.353   0.345   0.849 -0.5304 -0.6226 -0.0524
 8583TIP3    H125713   4.403   0.425   0.866  1.6262 -1.5091 -1.7493
 8583TIP3    H225714   4.267   0.362   0.888  0.0193  2.2841  0.1330
 8584TIP3   OH225715   4.795   6.664   3.284 -0.4882 -0.3350 -0.3194
 8584TIP3    H125716   4.867   6.717   3.315  1.6296 -2.9309 -0.4260
 8584TIP3    H225717   4.795   6.676   3.189 -0.3834 -0.1314 -0.2940
 8585TIP3   OH225718   0.326   4.386   4.413  0.4525 -0.2514 -0.2777
 8585TIP3    H125719   0.299   4.305   4.456  0.6123 -1.4341 -2.2884
 8585TIP3    H225720   0.422   4.381   4.409  0.4451 -0.1342 -0.6995
 8586TIP3   OH225721   4.958   1.411   3.213  0.4772 -0.6889 -0.4164
 8586TIP3    H125722   5.013   1.333   3.217  1.6955  0.1730  2.1020
 8586TIP3    H225723   4.871   1.380   3.239  1.3695 -1.0143  2.6608
 8587TIP3   OH225724   4.248   6.216   0.129 -0.5783 -0.4606  0.3314
 8587TIP3    H125725   4.188   6.182   0.195  0.9569 -0.2546  1.9275
 8587TIP3    H225726   4.274   6.302   0.162 -0.0286 -0.1969 -0.7190
 8588TIP3   OH225727   2.927   1.442   0.320 -0.2325 -0.3252 -0.7129
 8588TIP3    H125728   2.861   1.408   0.380 -2.4518  3.6754 -0.5516
 8588TIP3    H225729   2.980   1.502   0.373 -0.6667  1.4016 -2.1068
 8589TIP3   OH225730   6.487   4.793   3.737 -0.0125  0.3365 -0.1614
 8589TIP3    H125731   6.400   4.789   3.697 -0.1682  1.6217  0.0234
 8589TIP3    H225732   6.519   4.881   3.716  0.3772  0.6322  1.5485
 8590TIP3   OH225733   3.576   4.752   4.463 -0.0486 -0.1745 -0.0324
 8590TIP3    H125734   3.522   4.733   4.386  1.1079 -2.7091 -0.3190
 8590TIP3    H225735   3.625   4.671   4.479  0.1708  0.4344  3.0662
 8591TIP3   OH225736   1.472   2.482   1.756 -0.5316  0.8247 -0.4453
 8591TIP3    H125737   1.400   2.490   1.819  0.3684  0.2712  0.6942
 8591TIP3    H225738   1.543   2.533   1.794  0.4287 -0.5048 -0.3833
 8592TIP3   OH225739   4.437   0.899   4.334  0.1724  0.1904 -0.0802
 8592TIP3    H125740   4.456   0.957   4.260 -0.9704  2.7841  1.5565
 8592TIP3    H225741   4.498   0.926   4.402  0.0791 -1.0525  0.5295
 8593TIP3   OH225742   2.030   5.277   0.746 -0.4788  0.4672 -0.3322
 8593TIP3    H125743   1.973   5.274   0.824 -0.8404  1.6622 -0.5227
 8593TIP3    H225744   2.111   5.318   0.778  0.1491 -0.8670 -0.1524
 8594TIP3   OH225745   7.044   2.610   3.307 -0.4511 -0.1758  0.6485
 8594TIP3    H125746   7.089   2.542   3.257  0.3622 -0.3782  1.6138
 8594TIP3    H225747   6.957   2.575   3.324 -0.4936 -0.3958 -0.0186
 8595TIP3   OH225748   1.047   5.462   5.840 -0.1594  0.3863  0.2216
 8595TIP3    H125749   1.026   5.376   5.804 -0.1116  0.0313  1.0286
 8595TIP3    H225750   1.003   5.524   5.782 -1.9533 -0.2685  0.8251
 8596TIP3   OH225751   3.297   1.897   1.760 -0.0582  0.0242  0.8849
 8596TIP3    H125752   3.263   1.862   1.677 -0.0089  0.4118  0.6960
 8596TIP3    H225753   3.255   1.844   1.827 -0.0965 -0.2987  0.6113
 8597TIP3   OH225754   6.680   3.536   3.782  0.0742 -0.4239 -0.0813
 8597TIP3    H125755   6.773   3.514   3.788  0.9799  2.0058 -2.8111
 8597TIP3    H225756   6.674   3.623   3.821 -0.4559  0.5466 -2.1612
 8598TIP3   OH225757   1.385   0.917   0.994 -0.5102 -0.1865 -0.0417
 8598TIP3    H125758   1.290   0.929   0.996 -0.6224 -1.0655  0.4827
 8598TIP3    H225759   1.399   0.846   0.932 -0.1693  0.1772 -0.3788
 8599TIP3   OH225760   6.009   5.076   2.377 -0.4080 -0.4012 -0.2604
 8599TIP3    H125761   5.988   5.060   2.469  0.7617  0.5896  0.2026
 8599TIP3    H225762   6.078   5.013   2.356  1.2221  1.1046  0.3500
 8600TIP3   OH225763   5.034   3.147   5.303 -0.3480  0.4911  0.0840
 8600TIP3    H125764   5.024   3.057   5.334  0.6970  0.5356  0.5675
 8600TIP3    H225765   4.972   3.197   5.356 -2.7769 -0.2442 -1.8321
 8601TIP3   OH225766   6.746   4.036   1.794 -0.3271  0.2809  0.3667
 8601TIP3    H125767   6.681   4.024   1.863  1.2231 -0.4660  1.7897
 8601TIP3    H225768   6.828   4.050   1.842  0.3182  2.9910 -1.3240
 8602TIP3   OH225769   2.903   3.748   4.602  0.2467 -0.4707 -0.3203
 8602TIP3    H125770   2.840   3.679   4.584  0.6353 -0.6249 -1.1815
 8602TIP3    H225771   2.895   3.766   4.695 -1.0287 -0.5111 -0.4154
 8603TIP3   OH225772   1.375   4.394   5.847  0.5034  0.0893  0.0890
 8603TIP3    H125773   1.340   4.381   5.935  0.6771  0.8961  0.2850
 8603TIP3    H225774   1.326   4.468   5.812  1.8078  1.0677  0.2645
 8604TIP3   OH225775   4.642   6.728   2.668 -0.3573 -0.3754  0.4741
 8604TIP3    H125776   4.644   6.635   2.690 -2.1533 -1.0737 -1.8861
 8604TIP3    H225777   4.734   6.752   2.658  0.2231 -1.4578  2.5382
 8605TIP3   OH225778   0.424   6.627   2.887 -0.6093  0.3677  0.2109
 8605TIP3    H125779   0.338   6.613   2.849 -0.2991  1.1130 -0.7894
 8605TIP3    H225780   0.408   6.672   2.970 -1.2155 -0.1863  0.3989
 8606TIP3   OH225781   4.815   2.897   0.697 -0.0200  0.5903 -0.2363
 8606TIP3    H125782   4.747   2.836   0.667  1.0788 -0.8947  0.1586
 8606TIP3    H225783   4.821   2.881   0.792  0.8120  0.7524 -0.2554
 8607TIP3   OH225784   6.360   2.547   0.529  0.0092 -0.1334 -0.1204
 8607TIP3    H125785   6.338   2.542   0.436  0.6614  0.8399 -0.3412
 8607TIP3    H225786   6.339   2.637   0.554  0.9102 -0.0565  0.3889
 8608TIP3   OH225787   1.634   5.630   1.132  0.1145 -0.3812  0.2427
 8608TIP3    H125788   1.550   5.613   1.089 -0.0659 -1.1014  0.8534
 8608TIP3    H225789   1.616   5.618   1.225  0.5308  1.0050  0.5289
 8609TIP3   OH225790   1.004   5.003   1.556  0.0586  0.0010 -0.5651
 8609TIP3    H125791   1.074   5.026   1.616  0.0249 -0.4741 -0.3406
 8609TIP3    H225792   1.031   5.039   1.471  0.1769  0.5394 -0.3012
 8610TIP3   OH225793   3.259   1.172   2.851  0.0832 -0.5383  0.2378
 8610TIP3    H125794   3.318   1.230   2.804 -0.2746  0.1532  0.6170
 8610TIP3    H225795   3.272   1.086   2.811 -0.2678  0.0377 -1.1503
 8611TIP3   OH225796   3.199   3.978   4.131  0.1539 -0.2592  0.4287
 8611TIP3    H125797   3.283   4.004   4.093  0.8153 -2.1761  0.4236
 8611TIP3    H225798   3.205   3.882   4.138 -1.2245 -0.2692  2.3447
 8612TIP3   OH225799   5.616   0.521   5.404 -0.2926  0.1290  0.1808
 8612TIP3    H125800   5.597   0.431   5.430 -1.7953  0.8462  1.7182
 8612TIP3    H225801   5.531   0.560   5.387  0.3436  1.2647 -0.5253
 8613TIP3   OH225802   2.158   2.382   2.459 -0.0369  0.5038  0.2197
 8613TIP3    H125803   2.108   2.421   2.531 -1.9035 -0.9775 -0.2076
 8613TIP3    H225804   2.124   2.425   2.380 -0.4918 -0.3604 -0.0592
 8614TIP3   OH225805   0.676   3.777   1.089  0.7283 -0.2877 -0.4487
 8614TIP3    H125806   0.619   3.745   1.159  1.0255 -2.2885 -1.0724
 8614TIP3    H225807   0.625   3.845   1.046 -0.5302 -0.8755  0.0607
 8615TIP3   OH225808   0.517   1.786   5.884  0.6195 -0.3933  0.0017
 8615TIP3    H125809   0.578   1.806   5.814  1.0000  1.0804  0.7178
 8615TIP3    H225810   0.452   1.856   5.881 -0.6177 -1.4956 -0.2332
 8616TIP3   OH225811   2.699   4.595   1.965 -0.3761  0.0034  0.1794
 8616TIP3    H125812   2.721   4.513   1.921  0.0143 -0.8340  1.8437
 8616TIP3    H225813   2.779   4.620   2.011 -0.5449  1.2405 -0.1606
 8617TIP3   OH225814   4.716   4.178   3.798 -0.1368  1.1085 -0.3017
 8617TIP3    H125815   4.703   4.091   3.836  1.1165  1.0184 -0.0069
 8617TIP3    H225816   4.807   4.177   3.768  0.5463  2.9313  1.4521
 8618TIP3   OH225817   3.439   5.153   0.933 -0.0711 -0.3546 -0.4649
 8618TIP3    H125818   3.453   5.092   0.861  2.2369 -0.7327  0.2359
 8618TIP3    H225819   3.512   5.215   0.927 -1.0724  0.9531  0.2438
 8619TIP3   OH225820   2.293   4.948   4.977 -0.6119  0.0980  0.3231
 8619TIP3    H125821   2.354   4.987   5.040  0.5766 -0.4317 -0.4512
 8619TIP3    H225822   2.218   5.007   4.977 -0.7263  0.0275  2.3337
 8620TIP3   OH225823   6.257   5.020   1.366 -0.4236 -0.6312  0.3659
 8620TIP3    H125824   6.174   4.996   1.324  0.1910  0.7097 -1.7872
 8620TIP3    H225825   6.266   5.114   1.348  2.0350 -0.9508 -0.3526
 8621TIP3   OH225826   4.828   5.967   3.155  0.1506 -0.3661 -0.5747
 8621TIP3    H125827   4.751   5.918   3.124 -0.6255  0.8575 -0.6437
 8621TIP3    H225828   4.901   5.906   3.142 -0.7698 -1.4999 -0.6692
 8622TIP3   OH225829   1.335   0.084   4.002  0.1276  0.3435  0.6633
 8622TIP3    H125830   1.249   0.112   4.031  0.1225 -0.1878  1.1727
 8622TIP3    H225831   1.396   0.122   4.065  0.3023  0.9588  0.1428
 8623TIP3   OH225832   4.098   4.010   2.622  0.3296 -0.3634 -0.1225
 8623TIP3    H125833   4.088   4.052   2.537 -2.1049 -0.4141  0.0761
 8623TIP3    H225834   4.142   3.927   2.603  0.4396 -0.0623 -1.2272
 8624TIP3   OH225835   3.753   6.434   0.783  0.3961 -0.4830  0.2670
 8624TIP3    H125836   3.811   6.510   0.792 -0.5980  0.1393  1.9364
 8624TIP3    H225837   3.665   6.471   0.782 -0.0517 -1.3635 -2.8136
 8625TIP3   OH225838   4.557   3.173   2.479  0.9821  0.0444 -0.1749
 8625TIP3    H125839   4.557   3.267   2.464  1.2091  0.2509  1.0313
 8625TIP3    H225840   4.508   3.137   2.405  0.4114  1.1519 -0.3567
 8626TIP3   OH225841   3.217   2.537   2.679 -0.0664  0.1298  0.2688
 8626TIP3    H125842   3.278   2.568   2.612 -1.8785  1.6967 -0.7415
 8626TIP3    H225843   3.167   2.467   2.636  0.7862 -0.9819  1.0163
 8627TIP3   OH225844   3.833   1.468   2.482 -0.3906 -0.0974  0.0686
 8627TIP3    H125845   3.778   1.397   2.517 -3.1583  1.5792 -0.5650
 8627TIP3    H225846   3.852   1.522   2.559 -1.1294  0.2305  0.0309
 8628TIP3   OH225847   7.152   4.831   2.632  0.5347 -0.2536  1.0232
 8628TIP3    H125848   7.120   4.748   2.668  1.8672 -1.4021 -0.2823
 8628TIP3    H225849   7.232   4.807   2.583  1.1044  1.8384  0.8124
 8629TIP3   OH225850   3.358   4.453   3.047 -0.2357  0.3637 -0.1766
 8629TIP3    H125851   3.434   4.504   3.020  0.5273 -0.9802 -0.6641
 8629TIP3    H225852   3.331   4.491   3.130  1.7881  0.0485  0.6659
 8630TIP3   OH225853   6.682   2.076   2.053  0.0763  0.4383  0.0958
 8630TIP3    H125854   6.628   2.126   1.993 -0.9688  0.3321  0.9154
 8630TIP3    H225855   6.666   2.115   2.139 -1.0357 -1.4414  0.8198
 8631TIP3   OH225856   7.109   4.934   1.924  0.4434 -0.3247  0.6318
 8631TIP3    H125857   7.112   5.027   1.948  0.9104  0.1237 -1.0102
 8631TIP3    H225858   7.019   4.919   1.897  0.9548  0.4420 -1.7782
 8632TIP3   OH225859   6.331   1.362   0.476  0.0815 -0.5158  0.2374
 8632TIP3    H125860   6.408   1.321   0.516  2.6048  2.0860 -1.5271
 8632TIP3    H225861   6.291   1.412   0.548  1.7506  0.3374  0.6401
 8633TIP3   OH225862   1.354   4.132   0.372  0.0700  0.2289 -0.7966
 8633TIP3    H125863   1.442   4.109   0.404 -0.5049  0.1026  0.7673
 8633TIP3    H225864   1.319   4.191   0.439 -1.6985 -1.1153 -0.4868
 8634TIP3   OH225865   3.208   3.168   0.115 -0.5233 -0.4743 -0.6913
 8634TIP3    H125866   3.289   3.186   0.068 -0.2717 -0.8817 -0.4268
 8634TIP3    H225867   3.166   3.254   0.125  1.3284  0.2618  1.7975
 8635TIP3   OH225868   3.620   5.568   1.311 -0.0031  0.3390 -0.4626
 8635TIP3    H125869   3.675   5.612   1.376  0.7072  2.0965 -2.1395
 8635TIP3    H225870   3.531   5.584   1.341  0.3207  0.4133  0.4960
 8636TIP3   OH225871   5.260   6.265   5.463 -0.1557  0.0254 -0.1415
 8636TIP3    H125872   5.230   6.176   5.485 -0.8374  0.1443 -0.5750
 8636TIP3    H225873   5.305   6.255   5.380  3.3029 -0.6030  1.5995
 8637TIP3   OH225874   3.579   1.762   2.090 -0.3998  0.3112  0.0955
 8637TIP3    H125875   3.525   1.805   2.155 -0.1323  0.8212 -0.0100
 8637TIP3    H225876   3.638   1.706   2.140 -2.5770 -2.1649  0.1211
 8638TIP3   OH225877   2.341   4.204   1.129 -0.2374 -0.6137 -0.1314
 8638TIP3    H125878   2.429   4.243   1.137 -0.0758 -0.8705 -0.5788
 8638TIP3    H225879   2.325   4.162   1.213 -0.1575 -0.0968  0.1435
 8639TIP3   OH225880   0.541   1.447   3.663 -0.0832  0.2295  0.7211
 8639TIP3    H125881   0.556   1.391   3.740  0.5644  0.9838  1.1531
 8639TIP3    H225882   0.543   1.536   3.698 -1.7174  0.5303  0.1421
 8640TIP3   OH225883   7.146   6.093   2.730 -0.3034  0.0601 -0.1395
 8640TIP3    H125884   7.186   6.180   2.727 -1.2028  0.4841 -2.9224
 8640TIP3    H225885   7.221   6.033   2.731  0.3274  0.8014  2.2703
 8641TIP3   OH225886   6.708   0.785   0.038 -0.2246  0.4225 -0.0810
 8641TIP3    H125887   6.747   0.719  -0.020 -0.8908 -0.1505  0.1083
 8641TIP3    H225888   6.783   0.825   0.083  0.2420  0.3718 -0.8037
 8642TIP3   OH225889   2.325   0.331   0.072 -0.1764  0.0220  0.2948
 8642TIP3    H125890   2.416   0.337   0.101 -0.1889  1.3737  0.1135
 8642TIP3    H225891   2.285   0.413   0.102 -0.5875  0.7802 -2.1177
 8643TIP3   OH225892   4.611   6.780   4.685 -0.0316 -0.7272  0.3863
 8643TIP3    H125893   4.597   6.829   4.766 -0.4108 -0.9984  0.4875
 8643TIP3    H225894   4.588   6.690   4.707 -0.0888 -0.8105 -0.0098
 8644TIP3   OH225895   6.645   0.114   4.859 -0.4559 -0.0710 -0.0269
 8644TIP3    H125896   6.691   0.031   4.877 -0.4722 -0.1846 -0.4980
 8644TIP3    H225897   6.657   0.165   4.939 -0.1031 -0.3732  0.1205
 8645TIP3   OH225898   0.954   2.671   3.747  0.4242 -0.2092 -0.3518
 8645TIP3    H125899   0.899   2.701   3.675  1.0574 -0.7624 -1.0665
 8645TIP3    H225900   0.894   2.669   3.823 -0.7137 -1.3888 -1.2343
 8646TIP3   OH225901   6.370   5.044   2.418 -0.2414  0.1489  0.1817
 8646TIP3    H125902   6.365   4.982   2.345 -1.0594 -1.2221  1.3494
 8646TIP3    H225903   6.449   5.095   2.401 -0.3548 -0.2011 -1.5974
 8647TIP3   OH225904   2.849   3.935   5.443 -0.2840 -0.0470 -0.1240
 8647TIP3    H125905   2.917   3.990   5.482 -1.5569  0.7232  1.0969
 8647TIP3    H225906   2.869   3.846   5.472  0.7389  0.0234 -0.5800
 8648TIP3   OH225907   4.998   2.526   1.090  0.0739 -0.0400 -0.1780
 8648TIP3    H125908   5.036   2.440   1.073  2.0267  0.7155  0.1052
 8648TIP3    H225909   5.028   2.581   1.017  1.1572  1.0495  1.0402
 8649TIP3   OH225910   1.891   4.726   4.493  0.0386 -0.4830  0.8875
 8649TIP3    H125911   1.983   4.728   4.470  0.3033 -1.3930  1.7947
 8649TIP3    H225912   1.889   4.700   4.585 -1.1232 -0.8066  0.7984
 8650TIP3   OH225913   2.143   0.236   4.399 -0.2097  0.0348  0.0513
 8650TIP3    H125914   2.188   0.238   4.484 -0.2776  2.0102  0.0786
 8650TIP3    H225915   2.084   0.311   4.402 -1.2511 -0.7152 -1.2007
 8651TIP3   OH225916   1.229   5.895   5.761  0.1423  0.1622  0.3050
 8651TIP3    H125917   1.306   5.930   5.716  1.6964 -2.1354  1.0649
 8651TIP3    H225918   1.156   5.947   5.725  1.6529  0.5095 -2.5728
 8652TIP3   OH225919   6.825   0.340   4.762  0.5805  0.0010 -0.0043
 8652TIP3    H125920   6.739   0.338   4.720  0.0949  0.0339  0.9589
 8652TIP3    H225921   6.870   0.413   4.721  0.3301 -0.3198 -0.8616
 8653TIP3   OH225922   4.100   5.595   4.555  0.3510  0.0031 -0.4429
 8653TIP3    H125923   4.070   5.538   4.626  1.5678  0.8051  0.7620
 8653TIP3    H225924   4.195   5.584   4.554  0.3226 -0.5353 -2.4607
 8654TIP3   OH225925   0.486   6.432   0.022 -0.2547 -0.1072 -0.6584
 8654TIP3    H125926   0.435   6.353   0.042 -0.3839  0.2946  0.7320
 8654TIP3    H225927   0.441   6.473  -0.051 -0.2245 -1.2833 -1.3559
 8655TIP3   OH225928   0.931   5.048   1.007 -0.1969  0.3951  0.5743
 8655TIP3    H125929   0.970   4.981   1.062  1.6881  0.9430 -0.0145
 8655TIP3    H225930   0.954   5.131   1.050 -1.2656  0.7281  0.5355
 8656TIP3   OH225931   3.090   4.122   4.346 -0.0046 -0.0819  0.1791
 8656TIP3    H125932   3.139   4.196   4.381  0.6762 -0.3705 -0.1568
 8656TIP3    H225933   3.146   4.085   4.278 -0.6398 -0.4811 -0.1405
 8657TIP3   OH225934   1.981   3.874   0.090  0.3995 -0.0079 -0.5187
 8657TIP3    H125935   1.933   3.817   0.031  1.3602 -0.1118 -1.2331
 8657TIP3    H225936   2.041   3.815   0.136  1.0348  0.3354 -0.8846
 8658TIP3   OH225937   2.757   2.102   1.260 -0.4622  0.0786  0.2021
 8658TIP3    H125938   2.778   2.183   1.307 -1.9173  0.2598  0.5882
 8658TIP3    H225939   2.662   2.104   1.250 -0.4033 -1.0550 -0.7810
 8659TIP3   OH225940   5.537   2.881   2.969 -0.3379 -0.4474  0.1313
 8659TIP3    H125941   5.515   2.795   3.005  0.0737 -0.4422  0.3925
 8659TIP3    H225942   5.622   2.903   3.007 -0.1797 -0.1716 -0.3691
 8660TIP3   OH225943   6.031   3.141   1.926  0.0089 -0.4311 -0.0516
 8660TIP3    H125944   6.126   3.154   1.928 -0.0946  0.3625  2.2341
 8660TIP3    H225945   5.995   3.229   1.939 -0.9415 -1.1323  2.7205
 8661TIP3   OH225946   1.042   2.272   0.480 -0.3235 -0.6084  0.1937
 8661TIP3    H125947   1.038   2.249   0.573 -0.9375  1.5075  0.7544
 8661TIP3    H225948   0.961   2.236   0.443  0.3243 -2.2031  0.2492
 8662TIP3   OH225949   2.356   1.428   5.258  0.2501  0.3839  0.5672
 8662TIP3    H125950   2.405   1.510   5.251 -1.1415  1.1339 -1.4838
 8662TIP3    H225951   2.265   1.453   5.240 -0.2506 -1.5738  0.1170
 8663TIP3   OH225952   1.564   0.872   1.850  0.1227  0.2940  0.0022
 8663TIP3    H125953   1.561   0.968   1.843 -2.0635  0.2895  0.2201
 8663TIP3    H225954   1.613   0.856   1.931 -1.3319  1.3516  1.1608
 8664TIP3   OH225955   5.490   1.033   0.034  0.8547 -0.7790 -0.4563
 8664TIP3    H125956   5.510   0.952  -0.014 -1.0387 -0.9878 -0.9890
 8664TIP3    H225957   5.412   1.011   0.086 -0.4300  1.0136 -1.5173
 8665TIP3   OH225958   6.300   2.046   3.787 -0.5289 -1.0636 -0.4292
 8665TIP3    H125959   6.382   2.065   3.832 -0.8858  0.8416 -0.4996
 8665TIP3    H225960   6.236   2.107   3.825 -1.6706 -1.7893 -1.0988
 8666TIP3   OH225961  -0.027   5.295   0.196  0.0821 -0.0248  0.2988
 8666TIP3    H125962   0.040   5.327   0.256  0.1613  0.3809  0.0024
 8666TIP3    H225963   0.016   5.226   0.146  0.4568  0.6162 -0.2773
 8667TIP3   OH225964   0.347   1.224   5.607 -0.0291  0.1870  0.6536
 8667TIP3    H125965   0.294   1.147   5.583 -2.7490  2.4375 -1.1620
 8667TIP3    H225966   0.313   1.250   5.693 -1.0767  0.9113  0.0387
 8668TIP3   OH225967   0.111   1.262   4.884  0.2234 -0.4608  0.3929
 8668TIP3    H125968   0.077   1.350   4.897 -0.4962 -0.8502  1.3222
 8668TIP3    H225969   0.147   1.262   4.796 -1.2834  0.2855 -0.2487
 8669TIP3   OH225970   6.385   1.462   2.956  0.7936  0.2660  0.3131
 8669TIP3    H125971   6.312   1.407   2.928  0.8474  0.0538  0.5816
 8669TIP3    H225972   6.408   1.513   2.878  0.2709  0.4349  0.2650
 8670TIP3   OH225973   7.163   4.309   5.715  0.7852 -0.3496 -0.2305
 8670TIP3    H125974   7.118   4.247   5.772  0.0264  1.5306  1.3204
 8670TIP3    H225975   7.242   4.333   5.764  0.9524  0.0965 -0.7069
 8671TIP3   OH225976   0.204   3.129   5.357 -0.0283 -0.5368  0.2885
 8671TIP3    H125977   0.247   3.046   5.337  0.1100 -0.5369  0.5790
 8671TIP3    H225978   0.221   3.184   5.281 -0.6468 -0.9798 -0.1706
 8672TIP3   OH225979   5.658   1.224   0.665  0.4991 -0.2282 -0.5997
 8672TIP3    H125980   5.730   1.242   0.726  0.5351 -1.9384 -0.0853
 8672TIP3    H225981   5.579   1.252   0.713  0.4965 -1.8472  0.4219
 8673TIP3   OH225982   1.165   0.277   0.461  0.4933  0.1761 -0.2142
 8673TIP3    H125983   1.128   0.322   0.385 -1.6270  0.2905  0.8102
 8673TIP3    H225984   1.210   0.201   0.424 -1.0750 -0.1588 -1.5770
 8674TIP3   OH225985   3.167   5.460   4.871  0.6726 -0.0177 -0.1079
 8674TIP3    H125986   3.243   5.402   4.870 -0.3594 -1.4431  0.2285
 8674TIP3    H225987   3.146   5.473   4.779  1.0764  0.0593 -0.1928
 8675TIP3   OH225988   7.044   0.965   3.756 -0.0903 -0.7863 -0.7835
 8675TIP3    H125989   7.052   1.032   3.689  0.8392  0.1289  0.2004
 8675TIP3    H225990   7.133   0.955   3.791 -0.7972 -0.0656  1.3931
 8676TIP3   OH225991   5.174   3.655   2.879  0.1844  0.6995  0.6274
 8676TIP3    H125992   5.146   3.594   2.810  1.9470  1.2751 -0.6516
 8676TIP3    H225993   5.255   3.617   2.913 -0.2549  0.8318  1.8801
 8677TIP3   OH225994   3.102   0.236   5.234 -0.0922 -0.2093  0.2297
 8677TIP3    H125995   3.170   0.280   5.184 -0.1441 -0.1430  0.2163
 8677TIP3    H225996   3.040   0.204   5.168  0.3708 -1.0416  0.1840
 8678TIP3   OH225997   2.791   0.350   3.848  0.3442  0.8146 -0.4319
 8678TIP3    H125998   2.847   0.297   3.904  0.0831  0.9148 -0.0754
 8678TIP3    H225999   2.801   0.310   3.761  1.5623  1.3071 -0.5409
 8679TIP3   OH226000   0.453   5.847   4.113  0.2509 -0.0258 -0.3344
 8679TIP3    H126001   0.507   5.894   4.050  0.9522  0.6310  0.7284
 8679TIP3    H226002   0.501   5.766   4.129 -0.6113 -0.8332 -1.6412
 8680TIP3   OH226003   6.366   1.104   4.719 -0.3977 -0.2228  0.1901
 8680TIP3    H126004   6.288   1.048   4.723  1.6963 -3.3167  0.7434
 8680TIP3    H226005   6.382   1.115   4.625 -0.0667 -1.8234  0.0312
 8681TIP3   OH226006   0.873   1.985   3.164  0.9099  0.2984  0.0005
 8681TIP3    H126007   0.876   2.053   3.232  0.8297 -0.0126  0.3213
 8681TIP3    H226008   0.813   2.020   3.099  0.0216  0.0790  0.6771
 8682TIP3   OH226009   0.631   3.386   0.140  0.5506  0.0590 -0.1868
 8682TIP3    H126010   0.542   3.422   0.138  1.3539  2.2199  0.7762
 8682TIP3    H226011   0.688   3.462   0.132  2.3401 -1.0430  1.4129
 8683TIP3   OH226012   0.579   3.780   0.268  0.0839 -0.2264  0.7344
 8683TIP3    H126013   0.506   3.798   0.209  1.5344  1.7798 -0.5775
 8683TIP3    H226014   0.588   3.860   0.321  1.4100 -0.3637  0.7557
 8684TIP3   OH226015   2.972   2.257   2.292  0.0015 -0.4050 -0.7240
 8684TIP3    H126016   3.048   2.206   2.264 -0.2900 -0.4953 -1.3688
 8684TIP3    H226017   2.972   2.333   2.234  1.4789  1.3340  1.3466
 8685TIP3   OH226018   2.767   1.248   4.797  0.2165  0.5646  0.4757
 8685TIP3    H126019   2.710   1.185   4.840  0.9742  0.1208  0.8325
 8685TIP3    H226020   2.778   1.318   4.862  0.0964  0.6395  0.4157
 8686TIP3   OH226021   1.891   3.016   5.293  0.0798  0.7693  0.0225
 8686TIP3    H126022   1.842   3.016   5.376  1.1930  2.1477  0.7121
 8686TIP3    H226023   1.950   2.941   5.301  0.4943  1.1581  0.6850
 8687TIP3   OH226024   0.734   4.423   0.900 -0.0056  0.4315 -0.2123
 8687TIP3    H126025   0.741   4.518   0.909  0.1010  0.8862 -3.8152
 8687TIP3    H226026   0.824   4.393   0.889  0.2819 -0.6073  3.4442
 8688TIP3   OH226027   2.435   2.007   4.909  0.2391  0.6601 -0.4025
 8688TIP3    H126028   2.490   2.080   4.936  0.7225  0.5260 -1.0156
 8688TIP3    H226029   2.403   1.969   4.991  1.1409  0.6758 -0.0382
 8689TIP3   OH226030   5.915   0.569   4.679  0.1667  0.1758  0.2078
 8689TIP3    H126031   5.986   0.588   4.740 -1.0671  0.0404  1.7387
 8689TIP3    H226032   5.840   0.617   4.714 -0.5385  0.2429 -1.3143
 8690TIP3   OH226033   0.814   1.952   5.797 -0.1959 -0.2222 -0.3433
 8690TIP3    H126034   0.816   1.857   5.808 -0.8427 -0.2612 -0.5301
 8690TIP3    H226035   0.801   1.965   5.703  0.5992  0.0650 -0.4241
 8691TIP3   OH226036   4.934   2.719   0.387  0.2460  0.2296  0.2465
 8691TIP3    H126037   4.901   2.696   0.300  0.5365  0.9173 -0.0538
 8691TIP3    H226038   4.957   2.635   0.426 -0.3350 -0.1276 -0.1562
 8692TIP3   OH226039   1.147   6.167   3.283  0.1114  0.3580 -0.2425
 8692TIP3    H126040   1.182   6.222   3.354 -0.2913  1.4281 -0.8408
 8692TIP3    H226041   1.095   6.228   3.230 -2.2718 -1.0588  0.3197
 8693TIP3   OH226042   4.560   5.520   4.900 -0.3258 -0.5177 -0.1327
 8693TIP3    H126043   4.504   5.457   4.947 -0.2149 -0.9795 -0.6039
 8693TIP3    H226044   4.627   5.465   4.858  0.6678  0.0510  0.6707
 8694TIP3   OH226045   6.764   5.734   4.009  0.2704  0.4502 -0.2935
 8694TIP3    H126046   6.809   5.775   4.083  1.1823 -1.0707  0.0462
 8694TIP3    H226047   6.692   5.794   3.989 -0.2348  0.7625  2.0567
 8695TIP3   OH226048   1.560   4.317   1.490 -0.1580 -0.3452  0.3111
 8695TIP3    H126049   1.641   4.267   1.488  0.0477  0.0163 -0.8836
 8695TIP3    H226050   1.500   4.269   1.432 -0.0157  0.6618 -0.7012
 8696TIP3   OH226051   4.023   5.984   2.158 -0.8890  0.1485  0.6268
 8696TIP3    H126052   3.969   6.045   2.109  0.7609  1.0946 -0.1241
 8696TIP3    H226053   4.105   6.031   2.174  0.8665 -2.1253 -0.8477
 8697TIP3   OH226054   5.033   2.844   2.808  0.2704  0.0130  0.1951
 8697TIP3    H126055   5.040   2.938   2.794  1.8083 -0.1538 -0.3091
 8697TIP3    H226056   5.060   2.831   2.899  2.2073 -0.1381 -0.3676
 8698TIP3   OH226057   7.176   0.314   2.577 -0.1074  0.2142  0.0655
 8698TIP3    H126058   7.186   0.394   2.629  0.2642 -1.1327  2.1636
 8698TIP3    H226059   7.125   0.255   2.632 -1.3133 -0.6657 -1.8746
 8699TIP3   OH226060   6.193   0.092   0.104 -0.2167  0.4989 -0.1389
 8699TIP3    H126061   6.198   0.044   0.187 -1.6048  1.1900  0.3764
 8699TIP3    H226062   6.146   0.033   0.045 -0.5465  0.5900  0.0279
 8700TIP3   OH226063   0.258   6.209   1.115  0.1277 -0.5318 -0.1963
 8700TIP3    H126064   0.346   6.189   1.083  1.1765  1.2030  1.3832
 8700TIP3    H226065   0.257   6.177   1.205 -0.5653  0.1909  0.0706
 8701TIP3   OH226066   0.989   3.101   0.311  0.5944 -0.2367  0.0390
 8701TIP3    H126067   0.974   3.191   0.342  1.0920  0.2682 -1.1248
 8701TIP3    H226068   1.032   3.112   0.226 -0.3843 -1.5707 -0.6581
 8702TIP3   OH226069   5.830   2.609   2.571 -0.3236  0.1586 -0.5451
 8702TIP3    H126070   5.815   2.647   2.485 -0.2742 -2.5250 -1.8591
 8702TIP3    H226071   5.743   2.583   2.602 -0.4676  1.9657  0.7244
 8703TIP3   OH226072   0.442   5.404   1.135 -0.2227  0.5076 -1.0785
 8703TIP3    H126073   0.392   5.446   1.204 -0.9871 -1.1771 -0.5526
 8703TIP3    H226074   0.527   5.448   1.136  0.2047 -0.1722  1.7257
 8704TIP3   OH226075   6.521   3.879   1.102 -0.4765 -0.1892  0.1127
 8704TIP3    H126076   6.597   3.907   1.152  0.2525 -0.1085 -1.0218
 8704TIP3    H226077   6.466   3.957   1.095 -0.9875 -0.4007  1.4603
 8705TIP3   OH226078   4.140   1.002   0.484 -0.7005 -0.1656 -0.4084
 8705TIP3    H126079   4.065   1.061   0.485 -2.4224 -2.1948 -1.9003
 8705TIP3    H226080   4.205   1.047   0.429 -0.9354  1.4349  0.5742
 8706TIP3   OH226081   4.130   4.450   4.657  0.1315  0.8360  0.0846
 8706TIP3    H126082   4.103   4.386   4.723  0.5222  0.7754  0.1895
 8706TIP3    H226083   4.061   4.447   4.591 -0.3458  1.0103  0.5657
 8707TIP3   OH226084   0.465   4.464   4.060  0.1156  0.4249  0.3769
 8707TIP3    H126085   0.441   4.527   4.128  1.5757  1.0565  0.3582
 8707TIP3    H226086   0.406   4.483   3.987 -0.3825  0.8332  0.8773
 8708TIP3   OH226087   6.706   5.662   4.584  0.2739 -0.2632  0.2804
 8708TIP3    H126088   6.616   5.663   4.550  0.3351  0.6150  0.1121
 8708TIP3    H226089   6.717   5.749   4.623  0.5111 -0.9109  1.7512
 8709TIP3   OH226090   0.164   5.205   1.683 -0.2207 -0.5674  0.0045
 8709TIP3    H126091   0.127   5.198   1.770 -1.1798 -0.0523 -0.3525
 8709TIP3    H226092   0.210   5.289   1.682 -1.4411  0.1169 -0.4258
 8710TIP3   OH226093   0.549   0.466   0.164  0.1406 -0.1413  0.0201
 8710TIP3    H126094   0.583   0.547   0.204 -0.8962  0.5163 -0.3859
 8710TIP3    H226095   0.623   0.405   0.168  1.0032  0.8716  0.2050
 8711TIP3   OH226096   2.544   6.152   4.543 -0.0957 -0.0956 -0.5679
 8711TIP3    H126097   2.539   6.184   4.633  1.2708  0.1109 -0.5416
 8711TIP3    H226098   2.498   6.068   4.544  0.0308 -0.1620  0.3550
 8712TIP3   OH226099   0.531   3.349   0.899  0.0022  0.3938  0.1857
 8712TIP3    H126100   0.496   3.421   0.952 -0.5075 -1.1270  2.0266
 8712TIP3    H226101   0.453   3.304   0.866  0.2720 -0.4094  0.6237
 8713TIP3   OH226102   2.510   4.421   0.292  0.4265 -0.2894  0.5061
 8713TIP3    H126103   2.502   4.409   0.197 -0.0220  2.9890  0.0030
 8713TIP3    H226104   2.419   4.430   0.322  0.6164 -0.2802  1.0844
 8714TIP3   OH226105   2.257   6.336   4.707 -0.6304  0.1679 -0.5989
 8714TIP3    H126106   2.199   6.346   4.783  0.7200  0.7510  0.3955
 8714TIP3    H226107   2.280   6.244   4.707 -1.5411 -0.0718 -1.0063
 8715TIP3   OH226108   0.821   6.399   5.308 -0.4889  0.5941 -0.0629
 8715TIP3    H126109   0.813   6.466   5.376  0.7954 -1.6966  2.5697
 8715TIP3    H226110   0.879   6.438   5.243  0.2348  2.0919  1.3950
 8716TIP3   OH226111   5.755   1.021   5.339  0.5209 -0.0581 -0.1739
 8716TIP3    H126112   5.742   1.103   5.388  0.9746 -1.4007  2.4044
 8716TIP3    H226113   5.667   0.985   5.329  0.3293  0.6808 -1.2281
 8717TIP3   OH226114   6.341   3.700   0.435 -0.5917 -0.1601 -0.5885
 8717TIP3    H126115   6.431   3.669   0.427 -0.1226  1.0112  0.0709
 8717TIP3    H226116   6.315   3.678   0.524 -1.0417 -0.6656 -0.8340
 8718TIP3   OH226117   3.412   5.599   1.782  0.0464 -0.5767  0.0070
 8718TIP3    H126118   3.316   5.603   1.784  0.0895  0.6117  0.3491
 8718TIP3    H226119   3.436   5.565   1.868 -0.0710 -1.1657 -0.1878
 8719TIP3   OH226120   5.729   2.900   3.293 -0.3925  0.1649  0.1037
 8719TIP3    H126121   5.713   2.862   3.379 -0.4837 -1.0555 -0.4261
 8719TIP3    H226122   5.756   2.826   3.239 -0.3358  0.9095 -0.9198
 8720TIP3   OH226123   6.707   4.152   5.321  0.3707  0.6007  0.6494
 8720TIP3    H126124   6.758   4.074   5.299 -0.6236 -0.1206  0.8307
 8720TIP3    H226125   6.657   4.171   5.241 -2.0652 -1.0935  1.6652
 8721TIP3   OH226126   4.378   3.224   5.259  0.1989  0.5158 -0.0152
 8721TIP3    H126127   4.363   3.216   5.353  0.1477  0.3481 -0.0373
 8721TIP3    H226128   4.343   3.143   5.222 -0.3194  0.8327 -0.2410
 8722TIP3   OH226129   3.012   2.821   4.930  0.1489  0.1879  0.1501
 8722TIP3    H126130   2.919   2.840   4.940 -0.0991 -1.6335  1.7901
 8722TIP3    H226131   3.025   2.815   4.835 -1.5470 -0.2371 -0.0840
 8723TIP3   OH226132   1.823   1.429   1.342  0.3552  0.2026 -0.1947
 8723TIP3    H126133   1.901   1.460   1.297 -0.6771  1.9267 -0.8764
 8723TIP3    H226134   1.825   1.473   1.427 -0.4503  1.2233 -0.6736
 8724TIP3   OH226135   6.272   2.893   5.506 -0.4538  0.6764  0.5549
 8724TIP3    H126136   6.196   2.947   5.527 -0.2485  0.5864  1.5520
 8724TIP3    H226137   6.256   2.809   5.549 -0.4043  0.1852 -0.3383
 8725TIP3   OH226138   1.435   4.659   3.081  0.1004  0.2005 -0.5401
 8725TIP3    H126139   1.478   4.708   3.011  0.9579  0.5456  0.2081
 8725TIP3    H226140   1.507   4.625   3.134 -0.3591 -3.3272 -1.9306
 8726TIP3   OH226141   3.822   6.563   4.656  0.5803 -0.7002 -0.0016
 8726TIP3    H126142   3.830   6.633   4.592 -2.1478 -0.0860  0.2520
 8726TIP3    H226143   3.730   6.563   4.683  0.9841 -2.8515  1.7575
 8727TIP3   OH226144   2.136   3.901   3.803  0.2761  0.3398  0.0556
 8727TIP3    H126145   2.167   3.967   3.741 -1.2801  0.4755 -0.6415
 8727TIP3    H226146   2.124   3.822   3.750  0.5517 -0.0272  0.5367
 8728TIP3   OH226147   1.996   1.446   4.351  0.1050  0.2649  0.2734
 8728TIP3    H126148   2.019   1.354   4.337 -0.0569  0.2639  0.0102
 8728TIP3    H226149   2.076   1.485   4.388  0.4503  0.2018 -0.3946
 8729TIP3   OH226150   0.557   3.713   2.350 -0.3321 -0.1006  0.1072
 8729TIP3    H126151   0.608   3.665   2.286 -1.5253 -0.6308 -0.4833
 8729TIP3    H226152   0.544   3.800   2.312 -0.3079 -0.1334  0.0258
 8730TIP3   OH226153   4.486   5.471   3.619  0.3451 -0.2629 -0.1132
 8730TIP3    H126154   4.492   5.375   3.613  0.4674 -0.2904  0.3755
 8730TIP3    H226155   4.563   5.496   3.669  0.5367  0.1337 -0.6069
 8731TIP3   OH226156   0.963   0.860   4.724 -0.1520  0.1063  0.2962
 8731TIP3    H126157   0.894   0.815   4.773  0.6481 -0.0187  1.3629
 8731TIP3    H226158   0.993   0.795   4.660  0.4387 -0.6252  1.2841
 8732TIP3   OH226159   5.299   1.228   1.822 -0.1288 -0.0929  0.2190
 8732TIP3    H126160   5.264   1.203   1.908  2.2896  1.0033  1.6284
 8732TIP3    H226161   5.388   1.193   1.822  0.6539  1.7708 -0.9541
 8733TIP3   OH226162   1.617   3.692   3.218 -0.1981  0.5024 -0.1114
 8733TIP3    H126163   1.582   3.727   3.137  2.2057  1.0194 -1.0049
 8733TIP3    H226164   1.658   3.609   3.192 -0.4702  0.0536  0.8349
 8734TIP3   OH226165   4.185   3.467   1.183 -0.2362 -0.9240  0.0879
 8734TIP3    H126166   4.248   3.419   1.236  0.1244  0.0524  0.5712
 8734TIP3    H226167   4.219   3.463   1.094  1.8445  1.5941  0.6654
 8735TIP3   OH226168   3.601   2.872   3.927 -0.1425 -0.0955  0.4721
 8735TIP3    H126169   3.610   2.868   3.831  2.5994  1.6198  0.5475
 8735TIP3    H226170   3.675   2.822   3.960 -0.4087  0.3032  1.6984
 8736TIP3   OH226171   3.752   0.241   1.355 -0.0705  0.0503 -0.0322
 8736TIP3    H126172   3.724   0.150   1.338 -0.8931  0.5103 -1.2675
 8736TIP3    H226173   3.689   0.273   1.420 -0.7641  0.2158 -0.7674
 8737TIP3   OH226174   5.641   2.169   0.441  0.3467  0.1708  0.4135
 8737TIP3    H126175   5.571   2.129   0.391  0.6241 -0.6544  0.6601
 8737TIP3    H226176   5.660   2.251   0.396  0.9079 -0.7570 -1.1323
 8738TIP3   OH226177   2.766   2.337   2.126 -0.1402 -0.1699 -0.4647
 8738TIP3    H126178   2.784   2.431   2.124  1.7747 -0.3901  1.9690
 8738TIP3    H226179   2.842   2.297   2.083 -0.1508 -0.6543 -0.0498
 8739TIP3   OH226180   0.390   3.528   2.944 -0.9151  0.2921  0.1594
 8739TIP3    H126181   0.426   3.492   3.025  0.4959  1.9884  0.3443
 8739TIP3    H226182   0.443   3.491   2.875 -1.2591 -0.1169  0.1101
 8740TIP3   OH226183   5.625   3.623   3.080  0.5152  0.1435 -0.1527
 8740TIP3    H126184   5.711   3.582   3.089  0.3084 -0.1730  0.4274
 8740TIP3    H226185   5.643   3.706   3.035  0.7157 -1.3527 -3.0548
 8741TIP3   OH226186   0.099   0.461   3.723  0.4099  0.0641  0.1077
 8741TIP3    H126187   0.135   0.395   3.663  0.7121 -0.1689  0.5327
 8741TIP3    H226188   0.008   0.471   3.696  0.0327 -1.3897  0.7567
 8742TIP3   OH226189   2.151   2.004   4.037 -0.0789  0.3679  0.1179
 8742TIP3    H126190   2.202   1.950   3.976  1.5858  1.1912  0.7449
 8742TIP3    H226191   2.083   2.043   3.982  0.0433 -0.6098 -0.7755
 8743TIP3   OH226192   6.004   3.937   4.819  0.4422  0.0794 -0.1882
 8743TIP3    H126193   6.047   4.021   4.834 -0.1097  0.1576  1.0790
 8743TIP3    H226194   5.999   3.897   4.906  0.0484 -0.9499 -0.6673
 8744TIP3   OH226195   6.621   2.597   4.980  0.2026 -0.8871 -0.0296
 8744TIP3    H126196   6.616   2.682   5.023 -0.9023 -0.3969 -1.0770
 8744TIP3    H226197   6.584   2.611   4.893  1.4962 -2.0652 -0.8330
 8745TIP3   OH226198   2.072   5.013   4.690 -0.2778 -0.1794  0.6442
 8745TIP3    H126199   2.116   5.035   4.608 -0.8280 -0.1932  0.3474
 8745TIP3    H226200   2.079   5.093   4.743 -3.6189  1.3743 -0.9994
 8746TIP3   OH226201   2.087   2.330   1.861  0.0814 -0.1627  0.0382
 8746TIP3    H126202   2.124   2.370   1.940 -0.9877 -0.6213  0.7936
 8746TIP3    H226203   2.084   2.237   1.880  0.0293 -0.3027 -0.6408
 8747TIP3   OH226204   2.951   2.803   2.572  0.0335  0.1933  0.0211
 8747TIP3    H126205   2.890   2.745   2.528  1.5729 -0.5283 -1.2480
 8747TIP3    H226206   2.955   2.770   2.662 -1.3324  0.2118  0.1133
 8748TIP3   OH226207   1.017   3.308   3.414 -0.8331  0.1667 -0.0021
 8748TIP3    H126208   1.082   3.240   3.429  0.0734  0.9790 -0.1012
 8748TIP3    H226209   1.041   3.345   3.328 -2.0451 -0.1863 -0.5076
 8749TIP3   OH226210   6.571   3.947   3.753  0.1933  0.0472  0.5738
 8749TIP3    H126211   6.667   3.946   3.748  0.3529 -0.2283  2.8359
 8749TIP3    H226212   6.549   4.039   3.770 -0.1189  0.4347 -1.6031
 8750TIP3   OH226213   1.048   4.285   5.167  0.1484  0.3717  0.1240
 8750TIP3    H126214   1.074   4.305   5.257 -1.0707  1.5167  0.2519
 8750TIP3    H226215   1.128   4.253   5.125  0.7368 -0.1560  1.5942
 8751TIP3   OH226216   0.030   5.493   4.428 -0.1192  0.7451 -0.5052
 8751TIP3    H126217  -0.054   5.499   4.382  0.3721 -0.8228 -1.7220
 8751TIP3    H226218   0.094   5.526   4.365  0.2740  1.0959  0.0750
 8752TIP3   OH226219   7.192   2.033   1.900 -0.7028  0.2173  0.0873
 8752TIP3    H126220   7.104   2.061   1.874 -0.2367 -0.0045 -1.8753
 8752TIP3    H226221   7.251   2.083   1.843  0.2596 -2.4123 -1.3735
 8753TIP3   OH226222   6.117   1.253   1.246  0.0736 -0.4450  0.2805
 8753TIP3    H126223   6.188   1.215   1.297  0.4716 -1.8532 -1.2180
 8753TIP3    H226224   6.160   1.286   1.167 -0.6316  0.9208  0.4389
 8754TIP3   OH226225   2.747   5.916   3.887  0.2700  0.3088 -0.0556
 8754TIP3    H126226   2.839   5.941   3.882  0.0172  1.5999  1.1685
 8754TIP3    H226227   2.747   5.836   3.940  0.6218  0.9071  0.8831
 8755TIP3   OH226228   4.238   1.228   4.348 -0.0628 -0.3718 -0.1642
 8755TIP3    H126229   4.239   1.145   4.397 -1.1532  0.4040  1.2484
 8755TIP3    H226230   4.169   1.216   4.283  0.5332 -0.9472 -0.7132
 8756TIP3   OH226231   3.858   0.653   2.625  0.1044  0.0003  0.0378
 8756TIP3    H126232   3.856   0.651   2.529  0.7026 -0.8593  0.0263
 8756TIP3    H226233   3.952   0.656   2.646  0.1146 -2.4339  0.5985
 8757TIP3   OH226234   2.250   6.195   1.519 -0.6431 -0.2163  0.2699
 8757TIP3    H126235   2.269   6.207   1.612  1.7424  0.9191 -0.3032
 8757TIP3    H226236   2.307   6.123   1.492  0.0297  0.6534 -0.6835
 8758TIP3   OH226237   1.728   5.634   5.161 -0.2668  0.1317 -0.0301
 8758TIP3    H126238   1.746   5.720   5.124  2.1928 -0.0342  0.6397
 8758TIP3    H226239   1.776   5.573   5.105  0.4441 -0.4857  1.2059
 8759TIP3   OH226240   5.484   3.713   3.302  0.1905 -0.0780  0.4517
 8759TIP3    H126241   5.510   3.687   3.214  0.8406  1.1187  0.2672
 8759TIP3    H226242   5.567   3.725   3.348 -0.1474 -1.7103  1.5513
 8760TIP3   OH226243   0.219   0.978   0.196 -0.7197 -0.0903 -0.0201
 8760TIP3    H126244   0.197   1.065   0.229 -1.8023 -0.3676  0.0384
 8760TIP3    H226245   0.237   0.926   0.275  0.4191  0.1906 -0.0780
 8761TIP3   OH226246   6.745   0.480   3.963  0.6330  0.6061 -0.1251
 8761TIP3    H126247   6.802   0.541   3.917 -0.0042  0.0091 -1.7870
 8761TIP3    H226248   6.657   0.504   3.936  0.3750 -1.0799 -0.9003
 8762TIP3   OH226249   5.832   0.617   1.084  0.2677  0.1999  0.2603
 8762TIP3    H126250   5.745   0.642   1.114  0.2269  1.6807 -0.9106
 8762TIP3    H226251   5.861   0.550   1.146 -1.5413 -0.0740  0.8826
 8763TIP3   OH226252   3.158   1.763   3.354  0.4899 -0.0104  0.1497
 8763TIP3    H126253   3.164   1.729   3.443  0.2168 -0.5948 -0.0500
 8763TIP3    H226254   3.137   1.687   3.300  1.2091  0.2381 -0.4952
 8764TIP3   OH226255   1.564   5.234   5.856  0.0836 -0.1439 -0.1289
 8764TIP3    H126256   1.606   5.165   5.907  0.3381  1.6630  2.2859
 8764TIP3    H226257   1.472   5.207   5.850  0.5608 -1.6843 -1.1337
 8765TIP3   OH226258   1.638   1.891   3.326  0.6998 -0.6942  0.1461
 8765TIP3    H126259   1.733   1.901   3.324  0.8721 -1.7346  1.5752
 8765TIP3    H226260   1.614   1.911   3.417 -0.0688 -3.2230  0.5827
 8766TIP3   OH226261   5.091   5.666   0.251 -0.3223 -0.0102  0.9026
 8766TIP3    H126262   5.111   5.580   0.215 -2.9740 -0.7692  1.0652
 8766TIP3    H226263   5.174   5.697   0.287  1.1432 -1.6126 -0.8989
 8767TIP3   OH226264   5.493   6.368   2.900 -0.1997 -0.4704  0.1972
 8767TIP3    H126265   5.403   6.363   2.931 -0.1467  3.4462  1.6017
 8767TIP3    H226266   5.543   6.316   2.962 -1.1659  0.0327  1.4405
 8768TIP3   OH226267   4.768   3.137   0.072  0.2661  0.1813 -0.2086
 8768TIP3    H126268   4.717   3.057   0.061 -0.2217  0.6913 -1.8516
 8768TIP3    H226269   4.847   3.109   0.118 -0.1749 -1.1281 -0.2207
 8769TIP3   OH226270   1.699   1.342   2.641 -0.3959 -0.2077 -0.2752
 8769TIP3    H126271   1.721   1.342   2.735  0.8788  0.3276 -0.5568
 8769TIP3    H226272   1.644   1.264   2.630 -1.1800  0.1244  1.0456
 8770TIP3   OH226273   5.233   1.127   2.062 -0.2148  0.1846 -0.5381
 8770TIP3    H126274   5.232   1.200   2.125  0.2324  0.1646 -0.5021
 8770TIP3    H226275   5.146   1.129   2.022 -0.9954 -0.5971  0.9921
 8771TIP3   OH226276   5.442   5.540   4.198 -0.0023 -0.1788 -0.0693
 8771TIP3    H126277   5.370   5.476   4.196 -0.0064 -0.6565  4.5040
 8771TIP3    H226278   5.514   5.496   4.153 -1.1918 -1.6876 -0.5955
 8772TIP3   OH226279   1.169   4.393   3.242  0.0855 -0.1799  0.7159
 8772TIP3    H126280   1.205   4.426   3.324 -1.2875 -0.3432  1.4062
 8772TIP3    H226281   1.179   4.465   3.180  2.2584 -0.4739  0.6588
 8773TIP3   OH226282   1.844   5.451   2.412 -0.6198  1.0102 -0.1883
 8773TIP3    H126283   1.851   5.392   2.487 -0.6588  0.5099 -0.5780
 8773TIP3    H226284   1.925   5.503   2.415 -0.2297  0.4194 -0.2816
 8774TIP3   OH226285   3.316   3.457   3.510  0.1277  0.3331  0.0699
 8774TIP3    H126286   3.353   3.483   3.425  3.4141 -0.9018  0.9416
 8774TIP3    H226287   3.316   3.361   3.506 -2.4283  0.2603  0.4796
 8775TIP3   OH226288   2.916   3.912   0.110  0.8980 -0.3944  0.6666
 8775TIP3    H126289   2.958   3.988   0.070  1.1127  0.0645  1.7062
 8775TIP3    H226290   2.978   3.884   0.178  0.7862 -1.4625  0.3408
 8776TIP3   OH226291   1.909   5.013   2.243 -0.0139  0.8510  0.7543
 8776TIP3    H126292   1.992   5.058   2.255 -0.4069  1.2201  2.3629
 8776TIP3    H226293   1.906   4.949   2.314 -0.5513 -0.0434 -0.0500
 8777TIP3   OH226294   2.888   3.966   2.795  0.4884  0.6652 -0.2217
 8777TIP3    H126295   2.901   4.042   2.737  0.9832  1.4047  0.8363
 8777TIP3    H226296   2.947   3.900   2.760 -0.1389  0.6397 -1.3195
 8778TIP3   OH226297   7.110   2.277   1.640 -0.3121 -0.2697  0.2738
 8778TIP3    H126298   7.145   2.365   1.629 -0.2478 -0.2920  0.3027
 8778TIP3    H226299   7.017   2.291   1.658 -0.4501 -0.2467 -0.4507
 8779TIP3   OH226300   1.869   3.213   3.406 -0.1187  0.3783 -0.1430
 8779TIP3    H126301   1.900   3.297   3.441  1.7941 -0.8692  1.3010
 8779TIP3    H226302   1.774   3.225   3.399  0.2247  3.2520 -1.6984
 8780TIP3   OH226303   4.591   1.880   1.103 -0.0204 -0.0046  0.4847
 8780TIP3    H126304   4.653   1.825   1.150  0.3719  0.1516  0.1542
 8780TIP3    H226305   4.560   1.943   1.169 -0.0485 -0.2651  0.7219
 8781TIP3   OH226306   2.171   3.705   5.610 -0.4384  0.3055 -0.4477
 8781TIP3    H126307   2.198   3.684   5.700 -0.1624  0.3672 -0.5135
 8781TIP3    H226308   2.195   3.797   5.598  1.6069 -0.2763 -1.3120
 8782TIP3   OH226309   2.264   2.998   0.246 -0.0120 -0.0792  0.4502
 8782TIP3    H126310   2.223   3.015   0.331 -3.4364 -0.6165 -0.9304
 8782TIP3    H226311   2.271   3.085   0.206 -2.0556 -0.1433 -0.1580
 8783TIP3   OH226312   7.089   1.254   4.571 -0.4155 -0.0677  0.3150
 8783TIP3    H126313   7.049   1.172   4.541  1.4712 -0.6019 -0.9513
 8783TIP3    H226314   7.032   1.285   4.641 -0.2036 -3.4643  2.1902
 8784TIP3   OH226315   2.662   0.015   1.352  0.3165  0.7479  0.0069
 8784TIP3    H126316   2.676   0.110   1.351 -0.2399  0.8674 -2.0304
 8784TIP3    H226317   2.615  -0.002   1.271 -2.1386 -0.9319  1.6814
 8785TIP3   OH226318   5.902   4.030   4.547  0.0049 -0.2897 -0.1665
 8785TIP3    H126319   5.961   4.097   4.510 -2.4728  2.1022 -0.0952
 8785TIP3    H226320   5.933   4.018   4.636  1.3268 -0.2914 -0.5980
 8786TIP3   OH226321   3.555   4.106   4.808  0.1965 -0.2576 -0.3321
 8786TIP3    H126322   3.478   4.138   4.854 -0.6414  0.5481 -2.1950
 8786TIP3    H226323   3.523   4.081   4.721  1.8842 -0.6758 -0.8778
 8787TIP3   OH226324   6.116   3.253   1.345  0.2881 -0.1430 -0.4463
 8787TIP3    H126325   6.032   3.219   1.374  0.3174 -0.1944 -0.4217
 8787TIP3    H226326   6.136   3.203   1.266  0.0004  0.2959 -0.8037
 8788TIP3   OH226327   0.480   2.257   1.950 -0.1955  0.3492 -0.2619
 8788TIP3    H126328   0.541   2.243   1.878  1.3013 -3.9231  1.4945
 8788TIP3    H226329   0.515   2.332   1.997  1.5091  0.3363 -1.4133
 8789TIP3   OH226330   4.208   1.096   4.016  0.8323 -0.1085  0.3473
 8789TIP3    H126331   4.193   1.171   3.958  0.2558 -0.9619 -0.6352
 8789TIP3    H226332   4.134   1.098   4.077  1.3138  0.6540  0.9269
 8790TIP3   OH226333   6.834   6.144   3.270  0.2541  0.6411  0.3160
 8790TIP3    H126334   6.891   6.152   3.346  1.7562  1.3498 -0.8297
 8790TIP3    H226335   6.874   6.076   3.216  0.3152  1.4665 -0.7293
 8791TIP3   OH226336   6.833   1.941   0.598  0.3327  0.1047 -0.8100
 8791TIP3    H126337   6.906   1.880   0.594  0.2286 -0.1070  0.2628
 8791TIP3    H226338   6.805   1.939   0.689 -0.4566  0.8382 -1.0236
 8792TIP3   OH226339   4.288   6.665   3.247 -0.3143 -0.2681 -0.1698
 8792TIP3    H126340   4.202   6.625   3.233 -1.2370  1.5886 -0.0506
 8792TIP3    H226341   4.324   6.619   3.323 -0.7258 -1.7724 -0.8437
 8793TIP3   OH226342   4.994   1.695   3.309 -0.3537 -0.5997 -0.1127
 8793TIP3    H126343   4.929   1.748   3.356 -0.2376 -0.9743  0.4809
 8793TIP3    H226344   4.979   1.606   3.341 -0.1586 -0.8314 -0.6654
 8794TIP3   OH226345   6.466   1.973   2.284 -0.4894  0.0496 -0.0905
 8794TIP3    H126346   6.438   1.882   2.271 -0.6745  0.1754 -0.5875
 8794TIP3    H226347   6.524   1.969   2.360 -1.8967 -0.2085  1.0231
 8795TIP3   OH226348   2.568   1.867   1.435  0.2544  0.3358 -0.0497
 8795TIP3    H126349   2.513   1.941   1.410 -1.8733 -1.2461 -0.3457
 8795TIP3    H226350   2.581   1.876   1.529  0.7715  1.5112 -0.2127
 8796TIP3   OH226351   4.311   2.316   1.369  0.1437  0.0814  0.1873
 8796TIP3    H126352   4.376   2.377   1.335 -0.0336  0.9431  1.3068
 8796TIP3    H226353   4.236   2.324   1.310  0.7172 -0.2476 -0.5888
 8797TIP3   OH226354   5.899   1.752   1.383  0.3492  0.1255 -0.0036
 8797TIP3    H126355   5.886   1.774   1.290 -0.6960 -1.1642 -0.1881
 8797TIP3    H226356   5.958   1.820   1.415  1.0202  0.4048 -1.7014
 8798TIP3   OH226357   0.477   5.111   1.190  0.1346 -0.5575  0.1262
 8798TIP3    H126358   0.451   5.200   1.212 -0.8503 -0.8326  0.1294
 8798TIP3    H226359   0.546   5.121   1.124 -0.7216  0.2000 -0.6783
 8799TIP3   OH226360   6.893   3.438   1.333 -0.1473  0.5065 -0.3421
 8799TIP3    H126361   6.856   3.525   1.316  0.8483  1.1763  0.7281
 8799TIP3    H226362   6.977   3.456   1.374 -0.2162 -0.9737  0.5173
 8800TIP3   OH226363   5.277   0.619   4.221 -0.9506  0.6481  0.4088
 8800TIP3    H126364   5.293   0.546   4.162  0.2460  0.2581  1.1855
 8800TIP3    H226365   5.190   0.651   4.196 -0.7519  0.0780 -1.0932
 8801TIP3   OH226366   1.488   4.107   4.139  0.1433  0.0472 -0.7251
 8801TIP3    H126367   1.421   4.173   4.155  1.0731  0.5605  1.2826
 8801TIP3    H226368   1.527   4.131   4.055  0.5653  2.1450  0.0347
 8802TIP3   OH226369   6.617   0.138   1.395 -0.0310 -0.5017 -0.2011
 8802TIP3    H126370   6.620   0.210   1.332 -0.6786  0.9571  1.3614
 8802TIP3    H226371   6.526   0.107   1.393 -0.8158  1.3598  1.8430
 8803TIP3   OH226372   3.317   4.599   5.778 -0.8772 -0.2330  0.1781
 8803TIP3    H126373   3.268   4.606   5.860 -0.0133  0.0838  0.6875
 8803TIP3    H226374   3.255   4.625   5.710 -0.8607  2.1484  0.9837
 8804TIP3   OH226375   2.784   3.289   2.699  0.0532  0.2595 -0.2864
 8804TIP3    H126376   2.830   3.208   2.722 -0.1414  0.3213  0.3469
 8804TIP3    H226377   2.751   3.322   2.783  0.5458  1.2443 -0.4618
 8805TIP3   OH226378   3.420   5.823   0.708  0.2928  0.4237  0.0425
 8805TIP3    H126379   3.471   5.836   0.788 -0.9031 -1.0756  1.1212
 8805TIP3    H226380   3.393   5.731   0.712 -0.1198  0.4090 -1.9206
 8806TIP3   OH226381   0.907   5.484   1.562 -0.8401  0.0562 -0.2520
 8806TIP3    H126382   0.854   5.404   1.570 -0.9781  0.3144  2.5029
 8806TIP3    H226383   0.866   5.545   1.623  1.1764  1.1268  0.0911
 8807TIP3   OH226384   6.169   6.010   3.471  0.3103  0.4321  0.1607
 8807TIP3    H126385   6.249   5.973   3.508 -1.3783 -0.3926  3.4197
 8807TIP3    H226386   6.175   6.104   3.490  1.6836  0.9166 -2.2447
 8808TIP3   OH226387   2.922   1.278   1.908  0.1325  0.0973  0.6782
 8808TIP3    H126388   3.012   1.309   1.910 -0.8056  3.1522  0.4193
 8808TIP3    H226389   2.869   1.354   1.935 -2.5293 -0.8287 -1.4715
 8809TIP3   OH226390   3.368   6.384   4.611 -0.2087 -0.1956  0.8227
 8809TIP3    H126391   3.315   6.432   4.548 -1.4264 -0.0280  1.9275
 8809TIP3    H226392   3.458   6.401   4.585 -0.6766  0.1283 -0.6604
 8810TIP3   OH226393   5.785   0.495   4.423 -0.4525  0.0942  0.0025
 8810TIP3    H126394   5.828   0.523   4.503  1.3788  1.2294 -1.2951
 8810TIP3    H226395   5.742   0.575   4.390 -1.3473 -0.4024 -0.0594
 8811TIP3   OH226396   0.563   0.076   0.704  0.5814  0.9324  0.3545
 8811TIP3    H126397   0.576   0.145   0.639 -1.8711  0.4418 -0.7662
 8811TIP3    H226398   0.469   0.079   0.724  0.7549 -0.8574  1.6812
 8812TIP3   OH226399   1.185   6.555   0.858 -0.7283 -0.2141  0.0408
 8812TIP3    H126400   1.146   6.473   0.826 -2.5532  0.8390 -0.5556
 8812TIP3    H226401   1.118   6.621   0.842  1.1864  1.6549 -0.7056
 8813TIP3   OH226402   6.105   6.483   2.439 -0.9320  0.2022 -0.1672
 8813TIP3    H126403   6.185   6.494   2.388 -0.2980 -1.4945  0.4033
 8813TIP3    H226404   6.077   6.572   2.460  1.3875  0.8363  0.4895
 8814TIP3   OH226405   5.223   5.570   4.887 -0.5978 -0.1956 -0.0229
 8814TIP3    H126406   5.130   5.587   4.900 -1.0647 -3.2180  1.5364
 8814TIP3    H226407   5.268   5.640   4.934 -2.0823  0.8192 -0.0657
 8815TIP3   OH226408   1.142   1.466   4.088 -0.2414 -0.2125  0.6441
 8815TIP3    H126409   1.134   1.558   4.063 -2.3147 -0.0238  1.7466
 8815TIP3    H226410   1.086   1.419   4.026 -1.1008 -0.4085  1.5527
 8816TIP3   OH226411   3.677   6.554   1.956  0.5771  0.5265 -0.8159
 8816TIP3    H126412   3.629   6.540   2.038  0.4691 -0.1086 -0.9790
 8816TIP3    H226413   3.769   6.563   1.984  0.3983  1.5307 -0.5239
 8817TIP3   OH226414   3.361   0.151   4.111 -0.7168 -0.3706  0.1121
 8817TIP3    H126415   3.414   0.085   4.157  0.1879 -0.0957 -0.5005
 8817TIP3    H226416   3.421   0.189   4.047 -1.2865  0.9134  0.3138
 8818TIP3   OH226417   5.070   4.010   0.096 -0.6371 -0.6785  0.0049
 8818TIP3    H126418   5.165   4.015   0.087 -0.5086 -1.8825  0.5740
 8818TIP3    H226419   5.055   3.941   0.160 -1.8243  1.1797  1.8896
 8819TIP3   OH226420   2.111   0.451   3.586  0.1170  0.4818  0.0814
 8819TIP3    H126421   2.037   0.476   3.641 -0.3602 -0.9756  0.1231
 8819TIP3    H226422   2.103   0.356   3.576  0.7580  0.5788 -1.6774
 8820TIP3   OH226423   6.816   3.196   5.387 -0.3376  0.2879 -0.4893
 8820TIP3    H126424   6.791   3.182   5.479  1.5983 -1.6504 -0.1833
 8820TIP3    H226425   6.830   3.108   5.352  2.3208  1.0451 -1.5962
 8821TIP3   OH226426   2.844   2.423   2.760  0.4265  0.4505 -0.6080
 8821TIP3    H126427   2.864   2.364   2.833 -0.6294  1.2536  0.3657
 8821TIP3    H226428   2.916   2.411   2.698 -0.1028 -2.3715 -0.7867
 8822TIP3   OH226429   2.046   2.769   4.895  0.2923  1.1288 -0.5015
 8822TIP3    H126430   1.953   2.754   4.914  0.1602  1.4950 -0.8374
 8822TIP3    H226431   2.067   2.706   4.826  0.9936 -0.7990  1.3616
 8823TIP3   OH226432   6.280   6.038   5.227 -0.1974 -0.1214 -0.0606
 8823TIP3    H126433   6.190   6.023   5.257 -0.6469  0.5789 -1.0099
 8823TIP3    H226434   6.271   6.062   5.135  1.1446 -2.2123 -0.7966
 8824TIP3   OH226435   1.649   6.169   5.306 -0.3442 -0.0951 -0.1013
 8824TIP3    H126436   1.743   6.187   5.294 -0.5620  0.5493 -0.9098
 8824TIP3    H226437   1.647   6.085   5.351  0.6147 -0.4227 -0.6346
 8825TIP3   OH226438   5.660   5.117   1.856 -0.2573  0.2987 -0.6742
 8825TIP3    H126439   5.692   5.028   1.840 -0.2895  0.3466 -1.0118
 8825TIP3    H226440   5.619   5.113   1.943  2.0296  0.5902  0.5078
 8826TIP3   OH226441   4.354   0.470   0.333  0.3139 -0.5779  0.0254
 8826TIP3    H126442   4.396   0.499   0.414  1.4594 -1.8247 -0.0757
 8826TIP3    H226443   4.278   0.421   0.363 -0.2546  0.4148  0.2667
 8827TIP3   OH226444   4.413   6.145   1.763 -0.1919 -0.0076 -0.0756
 8827TIP3    H126445   4.470   6.189   1.826 -0.1656 -0.1378 -0.0066
 8827TIP3    H226446   4.324   6.164   1.793 -0.1723 -0.6914  0.4394
 8828TIP3   OH226447   0.971   1.187   1.308 -0.2065 -0.4099  0.0389
 8828TIP3    H126448   0.937   1.103   1.340  0.3535 -1.2520 -1.4868
 8828TIP3    H226449   0.972   1.243   1.386  2.2982 -2.6981  1.8313
 8829TIP3   OH226450   0.511   1.307   1.992  0.5170 -0.0179  0.0252
 8829TIP3    H126451   0.583   1.360   1.956  0.9058  0.3169  1.2282
 8829TIP3    H226452   0.433   1.359   1.977  0.8586  0.7898  0.9046
 8830TIP3   OH226453   5.020   5.280   3.235 -0.0473  0.4295 -0.3208
 8830TIP3    H126454   5.090   5.331   3.276  1.0209 -0.5583 -0.8602
 8830TIP3    H226455   5.030   5.192   3.272 -1.5269  0.4523  0.2022
 8831TIP3   OH226456   6.166   3.800   2.507 -0.1267  0.9463 -0.6070
 8831TIP3    H126457   6.115   3.868   2.550 -1.1969  0.5031 -1.1349
 8831TIP3    H226458   6.104   3.759   2.446  0.0680 -1.3976  0.6601
 8832TIP3   OH226459   2.549   2.420   4.018 -0.8448 -0.2805 -0.7274
 8832TIP3    H126460   2.524   2.346   4.072  0.6116  0.6088  1.3518
 8832TIP3    H226461   2.503   2.495   4.057  1.2878  0.6053  0.2953
 8833TIP3   OH226462   1.685   2.653   3.841  0.0601 -0.4248 -0.4233
 8833TIP3    H126463   1.773   2.614   3.835  0.1305 -0.1445 -1.2620
 8833TIP3    H226464   1.679   2.681   3.932  0.9520 -0.2040 -0.4182
 8834TIP3   OH226465   6.526   5.936   4.092 -0.1675 -0.1966  0.1856
 8834TIP3    H126466   6.482   5.995   4.153 -1.4948 -0.4622 -0.5003
 8834TIP3    H226467   6.592   5.991   4.049  0.4578  0.1066  1.4720
 8835TIP3   OH226468   4.855   4.237   4.565  0.1433  0.4997 -0.3019
 8835TIP3    H126469   4.901   4.220   4.646  1.2575 -1.2125 -1.2348
 8835TIP3    H226470   4.825   4.151   4.536 -3.2972  1.4480 -0.0050
 8836TIP3   OH226471   4.057   0.967   5.164  0.1882 -0.3163  0.1279
 8836TIP3    H126472   4.029   0.878   5.184  0.1322 -0.2392  0.3935
 8836TIP3    H226473   4.153   0.962   5.158  0.0885 -0.6974 -1.3568
 8837TIP3   OH226474   3.721   3.547   4.867  0.1276 -0.2194 -0.1591
 8837TIP3    H126475   3.798   3.548   4.923  1.0675  0.7381 -1.3940
 8837TIP3    H226476   3.684   3.635   4.875 -1.6984 -1.0486  1.4765
 8838TIP3   OH226477   2.812   3.679   2.315  0.5018 -0.3106 -0.2200
 8838TIP3    H126478   2.822   3.585   2.300  1.4777 -0.0663 -1.3120
 8838TIP3    H226479   2.719   3.691   2.333  0.5665 -1.6195  1.1408
 8839TIP3   OH226480   5.250   2.033   0.056  0.5457  0.1783 -0.1699
 8839TIP3    H126481   5.290   2.090  -0.010  0.3504  0.4462 -0.0567
 8839TIP3    H226482   5.158   2.059   0.057  0.4837 -0.0467 -0.0204
 8840TIP3   OH226483   3.674   0.744   5.056 -0.3978 -0.2352 -0.2666
 8840TIP3    H126484   3.698   0.817   5.113  1.5287 -1.2140  0.2780
 8840TIP3    H226485   3.661   0.784   4.970 -1.0309  0.9497  0.3562
 8841TIP3   OH226486   5.668   4.624   2.721 -0.5570 -0.1225 -0.4133
 8841TIP3    H126487   5.732   4.655   2.657  0.5160 -1.1549  0.1169
 8841TIP3    H226488   5.694   4.667   2.803 -0.8715 -0.1484 -0.2979
 8842TIP3   OH226489   4.971   1.428   2.853  0.7634 -0.0466  0.0054
 8842TIP3    H126490   4.896   1.386   2.811 -0.0055  1.2592  0.0285
 8842TIP3    H226491   5.007   1.486   2.786  0.5272  0.8257  0.6205
 8843TIP3   OH226492   4.394   2.827   4.409 -0.1684 -0.2130 -0.1936
 8843TIP3    H126493   4.306   2.859   4.394 -0.7700 -1.8885 -0.4461
 8843TIP3    H226494   4.389   2.778   4.491  0.0875 -1.7476 -1.0514
 8844TIP3   OH226495   6.130   4.069   2.673  0.0368  0.6703 -0.1433
 8844TIP3    H126496   6.162   4.007   2.739 -1.8871  0.0317  0.2658
 8844TIP3    H226497   6.196   4.067   2.604  0.8141 -0.6258  0.5932
 8845TIP3   OH226498   7.032   1.218   5.015  0.1322  0.1201 -0.7241
 8845TIP3    H126499   7.123   1.200   4.994  0.5571  0.7111  0.4974
 8845TIP3    H226500   7.000   1.271   4.942  0.7463 -0.1173 -1.1716
 8846TIP3   OH226501   3.073   6.334   0.888  0.4132  0.1432  0.3559
 8846TIP3    H126502   3.052   6.273   0.817  0.3827  0.1071  0.3961
 8846TIP3    H226503   3.025   6.413   0.867  0.2903  0.0833  0.4122
 8847TIP3   OH226504   5.627   5.521   3.703  0.3824 -0.0462 -0.4116
 8847TIP3    H126505   5.716   5.518   3.739  1.2431  2.7190 -2.0138
 8847TIP3    H226506   5.577   5.571   3.767 -0.1857 -1.8798  0.6509
 8848TIP3   OH226507   1.060   3.064   2.296  0.4778  0.5672 -0.4181
 8848TIP3    H126508   1.011   3.146   2.286  0.0047  0.1465 -1.6008
 8848TIP3    H226509   1.028   3.028   2.379 -0.4911  0.7807 -0.6921
 8849TIP3   OH226510   1.270   2.598   5.590 -0.2876 -0.3031  0.0385
 8849TIP3    H126511   1.252   2.505   5.581  0.8004 -0.4546 -0.7673
 8849TIP3    H226512   1.306   2.624   5.506 -1.7676  1.1570 -0.1992
 8850TIP3   OH226513   3.200   0.337   3.587 -0.6056 -0.5373  0.0703
 8850TIP3    H126514   3.279   0.390   3.599  0.1506 -1.3162 -1.2018
 8850TIP3    H226515   3.155   0.341   3.671  1.2093 -0.7058  1.0986
 8851TIP3   OH226516   0.510   6.438   0.958 -0.1573  0.1302 -0.1343
 8851TIP3    H126517   0.415   6.434   0.967 -0.0140  0.6555  2.0941
 8851TIP3    H226518   0.537   6.347   0.946 -0.8455 -0.1342  0.3184
 8852TIP3   OH226519   0.967   6.379   4.722 -0.5005  0.4192  0.0743
 8852TIP3    H126520   0.948   6.431   4.644 -0.5601  1.2691  0.6423
 8852TIP3    H226521   0.947   6.437   4.795  0.7196  0.0696  0.7234
 8853TIP3   OH226522   6.615   2.815   5.126  0.1025 -0.1612  0.0396
 8853TIP3    H126523   6.522   2.818   5.151  0.1560  1.0261  0.1411
 8853TIP3    H226524   6.633   2.902   5.091  1.7143  0.3340  1.9591
 8854TIP3   OH226525   3.762   3.073   5.634 -0.5241  0.0752  0.7061
 8854TIP3    H126526   3.715   2.993   5.655 -0.6764  0.2846  1.1673
 8854TIP3    H226527   3.696   3.131   5.596 -0.4751  0.0884  0.6402
 8855TIP3   OH226528   2.708   5.409   5.456 -0.3153 -0.0435 -0.2514
 8855TIP3    H126529   2.767   5.383   5.526  1.3814  2.3773 -0.6429
 8855TIP3    H226530   2.645   5.467   5.498  0.1861  0.7263 -0.5378
 8856TIP3   OH226531   3.997   2.983   3.467  0.6000  0.1108 -0.2092
 8856TIP3    H126532   3.997   2.953   3.377 -1.9855 -0.5655 -0.0772
 8856TIP3    H226533   3.966   3.074   3.462 -0.1417 -0.1235  0.0217
 8857TIP3   OH226534   3.163   1.959   2.957  0.9288 -0.1971 -0.2612
 8857TIP3    H126535   3.118   1.993   2.880  1.5404  2.2669  0.3836
 8857TIP3    H226536   3.250   1.935   2.925  0.6336 -0.7739 -0.6444
 8858TIP3   OH226537   1.904   0.097   5.765 -0.0932 -0.1968 -0.0351
 8858TIP3    H126538   1.946   0.096   5.678  0.3448 -2.2287  0.1460
 8858TIP3    H226539   1.916   0.186   5.796 -0.9878  0.8284 -2.4073
 8859TIP3   OH226540   3.754   1.702   3.127  0.6167  0.5753 -0.0537
 8859TIP3    H126541   3.674   1.753   3.139  2.2776  3.0009  1.9951
 8859TIP3    H226542   3.787   1.689   3.216  2.8341  0.2855 -0.8674
 8860TIP3   OH226543   7.149   4.934   3.671  0.5268  0.5059 -0.1218
 8860TIP3    H126544   7.146   4.960   3.763 -1.8742 -0.6379  0.1927
 8860TIP3    H226545   7.099   4.852   3.668  0.8876  0.3108 -2.3925
 8861TIP3   OH226546   0.286   2.629   1.988  0.3811 -0.0420  0.3462
 8861TIP3    H126547   0.228   2.700   2.017  0.0745 -1.0653  2.4575
 8861TIP3    H226548   0.246   2.597   1.907 -0.0902  1.4468 -0.0371
 8862TIP3   OH226549   4.099   2.994   1.566  0.3350  0.2125  0.3516
 8862TIP3    H126550   4.010   3.002   1.530  0.8248  2.0347 -0.5492
 8862TIP3    H226551   4.155   2.981   1.490  1.1535  1.9913  0.6125
 8863TIP3   OH226552   1.525   2.928   2.850  0.1885  0.4495 -0.0361
 8863TIP3    H126553   1.461   2.857   2.841  2.0842 -1.2424 -1.2178
 8863TIP3    H226554   1.473   3.007   2.858 -2.0393 -0.9744  0.3709
 8864TIP3   OH226555   1.801   4.555   2.082 -0.5363 -0.1434  0.2340
 8864TIP3    H126556   1.754   4.475   2.107 -0.4476 -0.6392 -1.1217
 8864TIP3    H226557   1.879   4.523   2.036 -0.1050  0.7233  0.3513
 8865TIP3   OH226558   3.630   6.590   3.817  0.2309  0.0817 -0.6592
 8865TIP3    H126559   3.647   6.513   3.871 -1.6925 -0.0979 -0.2396
 8865TIP3    H226560   3.716   6.618   3.787  1.0535 -1.6877 -0.0711
 8866TIP3   OH226561   7.016   0.321   3.888 -0.1452  0.0992 -0.5802
 8866TIP3    H126562   6.948   0.274   3.839  0.0851 -0.5384 -0.3113
 8866TIP3    H226563   7.017   0.409   3.851 -2.4949  0.7577  0.7759
 8867TIP3   OH226564   0.506   2.146   5.281 -0.4711 -0.2149 -0.1222
 8867TIP3    H126565   0.526   2.227   5.328  1.2512 -1.3941  1.3434
 8867TIP3    H226566   0.547   2.157   5.195  1.6115 -0.2682  0.8028
 8868TIP3   OH226567   2.145   1.062   0.329 -0.4408  0.0695  0.6779
 8868TIP3    H126568   2.149   0.990   0.392 -0.2878  0.0305  0.6260
 8868TIP3    H226569   2.130   1.140   0.382 -1.1760 -0.0683  0.6828
 8869TIP3   OH226570   5.662   6.249   3.083  0.2276  0.2993  0.3198
 8869TIP3    H126571   5.591   6.225   3.142 -1.1285 -1.0104 -1.7106
 8869TIP3    H226572   5.733   6.187   3.104  0.3419  0.8185  1.5341
 8870TIP3   OH226573   6.347   2.387   4.681  0.1576 -0.0631  0.2184
 8870TIP3    H126574   6.392   2.316   4.727  0.1580  0.0819  0.4442
 8870TIP3    H226575   6.326   2.351   4.595 -0.7060 -0.6743  0.6660
 8871TIP3   OH226576   6.076   5.791   4.239 -0.7254  0.3079  0.2890
 8871TIP3    H126577   5.999   5.735   4.229 -1.3751  1.0957  0.6982
 8871TIP3    H226578   6.040   5.875   4.270  0.4413  0.2362  1.9807
 8872TIP3   OH226579   3.525   2.190   3.187  0.3278  0.5979  0.1625
 8872TIP3    H126580   3.476   2.244   3.125 -0.1741  0.2195  0.2229
 8872TIP3    H226581   3.498   2.222   3.273  0.0868  0.2933  0.1972
 8873TIP3   OH226582   2.094   2.661   4.600 -0.1736 -0.0160  0.1144
 8873TIP3    H126583   2.085   2.712   4.520  1.5698  2.3625  1.3257
 8873TIP3    H226584   2.188   2.640   4.605 -0.1978  0.1710  1.6988
 8874TIP3   OH226585   2.872   2.857   3.217  0.1631  0.4280 -0.0747
 8874TIP3    H126586   2.954   2.893   3.251  1.0855 -1.0656 -0.6374
 8874TIP3    H226587   2.882   2.860   3.122  0.0979 -0.9027 -0.1357
 8875TIP3   OH226588   5.612   6.032   5.179 -0.0274  0.6109 -0.6003
 8875TIP3    H126589   5.546   5.979   5.225 -0.1395  1.2458 -0.0103
 8875TIP3    H226590   5.687   5.973   5.169 -0.6961 -0.1442 -1.3397
 8876TIP3   OH226591   1.349   0.254   5.322  0.1402  0.8383 -0.3365
 8876TIP3    H126592   1.429   0.202   5.334  0.0785  1.2063  2.2003
 8876TIP3    H226593   1.378   0.330   5.272  0.6100 -0.6598 -2.4803
 8877TIP3   OH226594   1.935   5.654   3.217  0.0246 -0.4048  0.5014
 8877TIP3    H126595   1.891   5.717   3.160 -0.3904 -0.9818  0.1840
 8877TIP3    H226596   1.951   5.577   3.162 -1.6053 -1.5067  1.4962
 8878TIP3   OH226597   1.055   1.777   5.209  0.6938 -0.3163 -0.1055
 8878TIP3    H126598   1.062   1.700   5.266  1.3476 -0.6809 -0.6509
 8878TIP3    H226599   0.977   1.761   5.156 -1.3184  1.1389  2.2565
 8879TIP3   OH226600   4.846   6.067   2.847  0.4403 -0.0375 -0.1784
 8879TIP3    H126601   4.873   5.986   2.889  0.0493 -0.5573 -0.9066
 8879TIP3    H226602   4.925   6.098   2.802  0.2634 -0.7193 -0.9877
 8880TIP3   OH226603   0.521   5.731   3.736  0.0969 -0.0377 -0.0508
 8880TIP3    H126604   0.580   5.656   3.737 -1.2315 -1.1031  0.7007
 8880TIP3    H226605   0.535   5.771   3.650  1.6548 -0.4353 -0.0172
 8881TIP3   OH226606   4.421   2.075   0.338 -0.6416 -0.0450  0.5471
 8881TIP3    H126607   4.326   2.072   0.328 -0.7683 -0.7833  1.7032
 8881TIP3    H226608   4.435   2.138   0.409 -0.1119  1.6225 -0.9861
 8882TIP3   OH226609   1.207   5.929   1.811  0.0771 -0.3669  0.2363
 8882TIP3    H126610   1.133   5.888   1.854  1.4657 -1.7505  1.4270
 8882TIP3    H226611   1.234   6.000   1.871 -1.0170  0.9728 -0.8016
 8883TIP3   OH226612   6.749   0.817   5.326 -0.4273 -0.5088 -0.8704
 8883TIP3    H126613   6.693   0.895   5.322  1.1544  0.7051 -0.5986
 8883TIP3    H226614   6.830   0.844   5.284  0.5313 -1.6969  0.1298
 8884TIP3   OH226615   1.124   0.361   0.848  0.2163 -0.5913 -0.2447
 8884TIP3    H126616   1.133   0.431   0.912  0.2045 -0.6982 -0.1270
 8884TIP3    H226617   1.150   0.401   0.765  2.6280 -1.0838  0.1883
 8885TIP3   OH226618   5.534   4.443   3.239 -0.1805  0.5048  0.2688
 8885TIP3    H126619   5.613   4.393   3.221 -0.3117  0.2853  0.3029
 8885TIP3    H226620   5.550   4.482   3.325 -0.1481  0.3843  0.3174
 8886TIP3   OH226621   4.435   2.179   4.159  0.2223  0.2901  0.1909
 8886TIP3    H126622   4.342   2.201   4.166  0.1015  0.5238 -1.7264
 8886TIP3    H226623   4.470   2.239   4.094  1.7640  0.2554  0.9277
 8887TIP3   OH226624   0.964   1.943   2.486  0.5964 -0.2862  0.7657
 8887TIP3    H126625   1.039   1.918   2.432 -1.2059 -1.4021 -1.3788
 8887TIP3    H226626   0.935   2.027   2.450 -0.6217 -1.0387 -0.0549
 8888TIP3   OH226627   3.107   3.801   4.869 -0.7455 -0.1604  0.7612
 8888TIP3    H126628   3.020   3.816   4.907 -1.3181  0.2583 -0.6765
 8888TIP3    H226629   3.115   3.705   4.866 -0.7164 -0.2075  1.8318
 8889TIP3   OH226630   1.449   1.862   2.142 -0.3594  0.6949 -0.0095
 8889TIP3    H126631   1.366   1.851   2.095 -0.7124  3.3352 -0.1838
 8889TIP3    H226632   1.452   1.790   2.204 -2.6009  0.3140 -0.2686
 8890TIP3   OH226633   6.301   5.479   0.254 -0.4178  0.3426 -0.2157
 8890TIP3    H126634   6.252   5.430   0.187  0.3384 -0.7001 -0.0410
 8890TIP3    H226635   6.312   5.416   0.325  1.2598  0.5022 -0.3042
 8891TIP3   OH226636   4.385   5.996   0.053  1.2310 -0.1667 -0.9060
 8891TIP3    H126637   4.438   6.007  -0.027  1.0625 -0.9091 -1.1235
 8891TIP3    H226638   4.344   6.082   0.066  2.4852  0.4279 -0.7328
 8892TIP3   OH226639   3.980   2.402   1.316  0.1455  0.0279 -0.6149
 8892TIP3    H126640   3.946   2.471   1.259  2.0418  0.8115 -0.8918
 8892TIP3    H226641   3.964   2.434   1.405  0.1751  0.4079 -0.7426
 8893TIP3   OH226642   0.967   4.660   3.152  0.1288 -0.0837 -0.3312
 8893TIP3    H126643   0.935   4.750   3.160 -0.1105 -0.0634 -1.3372
 8893TIP3    H226644   1.040   4.667   3.089 -2.0373 -1.0337 -3.1646
 8894TIP3   OH226645   6.151   2.244   3.948  0.2550 -0.3964  0.8145
 8894TIP3    H126646   6.231   2.216   3.994 -0.3725  0.1751  2.3151
 8894TIP3    H226647   6.093   2.168   3.954  0.8931 -1.0789 -0.9109
 8895TIP3   OH226648   0.223   0.375   2.766  0.1814 -0.2630 -0.6929
 8895TIP3    H126649   0.278   0.388   2.689  2.8396 -0.3167  1.0536
 8895TIP3    H226650   0.218   0.280   2.777 -1.2445 -0.3056 -1.4240
 8896TIP3   OH226651   2.124   1.157   5.633 -0.2386  0.4037 -0.0431
 8896TIP3    H126652   2.107   1.210   5.555  1.1804  0.2364 -0.4823
 8896TIP3    H226653   2.150   1.221   5.700  0.5545  0.3605 -0.3044
 8897TIP3   OH226654   1.484   3.497   2.474  0.1414 -0.1509  0.6368
 8897TIP3    H126655   1.524   3.545   2.547 -0.0967  0.7337  0.1968
 8897TIP3    H226656   1.558   3.464   2.423  0.3092 -0.6575  1.1929
 8898TIP3   OH226657   2.723   1.781   1.208  0.2311 -1.0041 -0.1529
 8898TIP3    H126658   2.808   1.819   1.229 -0.4926  1.3980 -1.2962
 8898TIP3    H226659   2.674   1.784   1.290  0.2359  0.5290 -0.1758
 8899TIP3   OH226660   6.173   3.459   1.572 -0.2060  0.2264  0.0897
 8899TIP3    H126661   6.149   3.399   1.502  1.0096 -1.6542  1.1796
 8899TIP3    H226662   6.208   3.536   1.528  1.1663 -1.1809 -1.4289
 8900TIP3   OH226663   5.745   1.206   3.436  0.0944  0.4386 -0.4541
 8900TIP3    H126664   5.753   1.112   3.419  1.1369  0.3497  0.4286
 8900TIP3    H226665   5.657   1.229   3.407 -0.3113 -0.8933 -0.3021
 8901TIP3   OH226666   2.628   0.184   4.119 -0.1563  0.1252 -0.3953
 8901TIP3    H126667   2.713   0.140   4.113 -0.1113 -0.1466  1.6536
 8901TIP3    H226668   2.646   0.266   4.165 -0.7704  0.8039 -1.3286
 8902TIP3   OH226669   6.080   3.747   3.557  0.3061 -0.3364 -0.1280
 8902TIP3    H126670   5.994   3.710   3.577 -0.3980  0.7313 -1.1346
 8902TIP3    H226671   6.113   3.693   3.484  0.2723 -0.4141 -0.0862
 8903TIP3   OH226672   6.259   2.293   5.482  0.0235  0.3598  0.1748
 8903TIP3    H126673   6.287   2.207   5.451  0.3683  0.7423 -0.5816
 8903TIP3    H226674   6.211   2.331   5.408 -0.7499  0.5387  0.7499
 8904TIP3   OH226675   2.521   0.065   2.232  0.1244  0.0672  0.1713
 8904TIP3    H126676   2.557   0.153   2.246 -0.0861  0.3336 -0.8724
 8904TIP3    H226677   2.597   0.007   2.235  0.3265  0.3426  0.3828
 8905TIP3   OH226678   1.377   2.124   4.446  0.4709  0.1749  0.1444
 8905TIP3    H126679   1.426   2.043   4.437 -0.6161 -0.4946  0.0761
 8905TIP3    H226680   1.367   2.156   4.357  0.7497  0.2982  0.1562
 8906TIP3   OH226681   1.001   5.938   3.229  0.5859  0.3438  0.3224
 8906TIP3    H126682   1.014   5.896   3.144 -2.1593  2.6332 -1.4473
 8906TIP3    H226683   1.045   6.023   3.221 -0.1381  0.7927  0.9522
 8907TIP3   OH226684   2.510   5.740   1.118 -0.1129  0.1168 -0.2459
 8907TIP3    H126685   2.527   5.833   1.133  0.7838 -0.2611  1.1871
 8907TIP3    H226686   2.596   5.702   1.101 -0.4314 -0.5225 -0.4441
 8908TIP3   OH226687   2.770   1.422   5.006 -0.0399  0.7445  0.5461
 8908TIP3    H126688   2.742   1.396   5.094  0.5313 -0.2602  0.4478
 8908TIP3    H226689   2.799   1.513   5.016 -0.1990  0.7152  1.3467
 8909TIP3   OH226690   5.111   3.828   3.838 -0.2617  0.6505  0.4557
 8909TIP3    H126691   5.171   3.814   3.764 -0.2894 -0.4318  0.6219
 8909TIP3    H226692   5.134   3.760   3.901  0.3477  2.0998  1.8546
 8910TIP3   OH226693   2.620   6.521   3.465 -0.4725  0.2166 -0.1206
 8910TIP3    H126694   2.690   6.515   3.400 -0.1125  0.0175  0.2844
 8910TIP3    H226695   2.541   6.537   3.413 -0.4630 -1.5881 -0.7718
 8911TIP3   OH226696   2.613   3.435   2.895  0.4084 -0.6030  0.3478
 8911TIP3    H126697   2.606   3.465   2.986  2.6229  0.4909  0.2195
 8911TIP3    H226698   2.631   3.514   2.845 -1.4740 -1.0860 -1.2059
 8912TIP3   OH226699   4.173   6.216   2.197  0.6339 -0.1158 -0.4205
 8912TIP3    H126700   4.230   6.210   2.274 -1.4574 -1.4284  1.1274
 8912TIP3    H226701   4.115   6.289   2.215  0.1711 -0.3906 -0.7601
 8913TIP3   OH226702   4.266   4.910   5.654  0.7188 -0.0223 -0.1338
 8913TIP3    H126703   4.277   4.861   5.736  0.2724 -1.3312 -0.8353
 8913TIP3    H226704   4.326   4.984   5.663 -0.9333  1.1463  2.3254
 8914TIP3   OH226705   1.510   2.520   0.478  0.2058  0.0214 -0.0660
 8914TIP3    H126706   1.423   2.557   0.489  0.1340 -0.0078 -0.5272
 8914TIP3    H226707   1.501   2.428   0.503  0.2704  0.1869  0.5859
 8915TIP3   OH226708   5.596   3.707   2.487  0.0542  0.2154 -0.2264
 8915TIP3    H126709   5.555   3.622   2.504 -0.3945  0.4580 -0.0727
 8915TIP3    H226710   5.572   3.760   2.562  0.6131  0.3826 -0.1629
 8916TIP3   OH226711   0.433   3.000   0.307  0.0910  0.2395 -0.4598
 8916TIP3    H126712   0.389   2.938   0.250  0.5472 -0.6279  0.1100
 8916TIP3    H226713   0.470   3.065   0.248 -0.6015  0.1104 -1.0435
 8917TIP3   OH226714   2.559   6.344   2.704  0.0032 -0.2652  0.3037
 8917TIP3    H126715   2.520   6.378   2.624  0.5436 -0.2285  0.0525
 8917TIP3    H226716   2.622   6.279   2.674  0.6284  0.1643  0.6738
 8918TIP3   OH226717   0.945   1.869   0.872 -0.1052  0.1262 -0.3103
 8918TIP3    H126718   0.876   1.832   0.927 -0.2630  2.1325  0.9316
 8918TIP3    H226719   0.999   1.920   0.933  0.8068  0.9082 -1.7322
 8919TIP3   OH226720   0.359   1.891   2.746 -0.1105 -0.7220 -0.8052
 8919TIP3    H126721   0.317   1.835   2.681 -1.2541 -1.5107  0.5414
 8919TIP3    H226722   0.383   1.832   2.817 -0.9150  0.3975  0.4495
 8920TIP3   OH226723   5.053   2.272   2.504 -0.2700  0.2029 -0.3579
 8920TIP3    H126724   5.096   2.322   2.435  1.7681 -0.2633  0.5040
 8920TIP3    H226725   4.961   2.299   2.499  0.0246  1.0189 -2.4817
 8921TIP3   OH226726   4.340   5.463   5.249 -0.1219  0.0064 -0.3673
 8921TIP3    H126727   4.360   5.409   5.173 -1.3984 -1.5214  0.3380
 8921TIP3    H226728   4.366   5.411   5.324  0.3136  1.1417  0.3046
 8922TIP3   OH226729   4.142   1.877   5.207  0.4034 -0.4947 -0.1901
 8922TIP3    H126730   4.067   1.818   5.201 -0.2093  0.4257 -2.3841
 8922TIP3    H226731   4.133   1.918   5.293 -0.6763 -1.5835  0.2460
 8923TIP3   OH226732   4.964   3.329   5.074 -0.4612  0.0693  0.1166
 8923TIP3    H126733   4.873   3.308   5.053 -0.0634 -2.0277  0.2809
 8923TIP3    H226734   4.987   3.268   5.145  0.3260  2.2783  1.8617
 8924TIP3   OH226735   4.279   1.581   4.689 -0.1516 -0.2836 -0.0849
 8924TIP3    H126736   4.348   1.606   4.750  1.2896 -0.1342 -1.7211
 8924TIP3    H226737   4.323   1.570   4.605 -1.9678 -1.1231 -0.9888
 8925TIP3   OH226738   6.832   4.487   1.159  0.0828 -0.2248 -0.1023
 8925TIP3    H126739   6.829   4.535   1.077 -0.9876 -0.3676 -0.1573
 8925TIP3    H226740   6.830   4.555   1.227 -0.0113 -0.1437 -0.1863
 8926TIP3   OH226741   5.039   1.024   1.493 -0.1393  0.4150  0.0630
 8926TIP3    H126742   4.975   0.995   1.559 -2.5899  1.0217 -1.9168
 8926TIP3    H226743   5.007   1.108   1.463  0.7595  0.0578 -2.0853
 8927TIP3   OH226744   6.606   3.015   0.740  0.1147 -0.6844 -0.3915
 8927TIP3    H126745   6.588   2.924   0.764 -2.9239 -0.6293 -1.9604
 8927TIP3    H226746   6.687   3.011   0.688  1.3267 -2.0817  1.4720
 8928TIP3   OH226747   6.907   1.443   5.493 -0.0818 -0.2964  0.0241
 8928TIP3    H126748   6.996   1.410   5.511 -0.1631  0.3030  1.7172
 8928TIP3    H226749   6.920   1.514   5.431  0.8025  0.6484  1.2378
 8929TIP3   OH226750   3.207   0.698   3.241 -0.0394  0.3059 -0.1112
 8929TIP3    H126751   3.231   0.767   3.303 -0.7396 -0.0383  0.5638
 8929TIP3    H226752   3.290   0.656   3.218  0.1407 -0.3349  1.5274
 8930TIP3   OH226753   3.260   5.251   3.075  0.4201 -0.4157 -0.0289
 8930TIP3    H126754   3.316   5.182   3.109 -1.2854 -1.7848  0.1162
 8930TIP3    H226755   3.243   5.225   2.984  2.2163  1.4655 -1.0031
 8931TIP3   OH226756   5.440   5.463   5.175  0.3775  0.8316 -0.2993
 8931TIP3    H126757   5.532   5.466   5.202  0.0104  2.0905  0.9210
 8931TIP3    H226758   5.397   5.532   5.226 -1.7623 -1.3597  1.0969
 8932TIP3   OH226759   0.341   1.956   4.683  0.2708 -0.1279  0.3122
 8932TIP3    H126760   0.359   2.044   4.714 -0.0103  0.1289 -0.2414
 8932TIP3    H226761   0.288   1.968   4.605 -2.4838 -0.8322  1.9236
 8933TIP3   OH226762   2.786   6.300   4.951 -0.4294  0.2145 -0.1261
 8933TIP3    H126763   2.862   6.323   4.899 -0.4954  1.7050  0.4048
 8933TIP3    H226764   2.719   6.277   4.887  0.0912  0.0820 -0.6277
 8934TIP3   OH226765   2.288   4.984   4.500 -0.4584 -0.3238 -0.0445
 8934TIP3    H126766   2.350   4.957   4.567 -1.1818 -0.2409  0.6667
 8934TIP3    H226767   2.326   4.953   4.418 -0.6031 -2.3041  0.5989
 8935TIP3   OH226768   2.947   1.520   2.791 -0.1738 -0.5419  0.0851
 8935TIP3    H126769   2.862   1.474   2.790  0.0228 -0.9597  0.9438
 8935TIP3    H226770   2.939   1.583   2.863 -0.1063  0.1189 -0.4821
 8936TIP3   OH226771   5.471   1.136   3.206 -0.1642 -0.0331 -0.1207
 8936TIP3    H126772   5.457   1.224   3.171 -0.2234  0.6147  1.4134
 8936TIP3    H226773   5.436   1.141   3.295  0.8524 -1.2859  0.3784
 8937TIP3   OH226774   4.713   3.136   1.922  0.1018 -0.0060 -0.2881
 8937TIP3    H126775   4.636   3.093   1.888  0.2732 -1.6936  1.2865
 8937TIP3    H226776   4.749   3.185   1.848 -1.3251 -0.8386 -1.5738
 8938TIP3   OH226777   3.172   5.571   1.992 -0.1012 -0.1923 -0.1328
 8938TIP3    H126778   3.111   5.617   1.935 -0.0932 -0.3413 -0.2615
 8938TIP3    H226779   3.173   5.481   1.959  1.9563  0.2924 -1.6163
 8939TIP3   OH226780   3.620   3.737   4.313 -0.2027  0.2750  0.1729
 8939TIP3    H126781   3.538   3.727   4.362  0.4955 -0.9917  1.1086
 8939TIP3    H226782   3.600   3.806   4.249 -1.7690  0.5102  0.8590
 8940TIP3   OH226783   7.100   3.163   2.828  0.1666 -0.1862  0.7787
 8940TIP3    H126784   7.103   3.156   2.924  1.1816 -1.3129  0.6894
 8940TIP3    H226785   7.190   3.151   2.800 -0.0951  0.2862 -0.3272
 8941TIP3   OH226786   5.063   0.368   4.684 -0.2583  0.2002  0.2856
 8941TIP3    H126787   5.129   0.419   4.636 -0.8129  1.5881  0.9264
 8941TIP3    H226788   5.103   0.282   4.696  0.3984  0.2098 -1.5473
 8942TIP3   OH226789   6.129   5.237   4.519  0.2336 -0.1956  0.2810
 8942TIP3    H126790   6.061   5.303   4.536  0.7660  0.5761 -0.4898
 8942TIP3    H226791   6.093   5.156   4.555 -0.8065  0.3357  0.4915
 8943TIP3   OH226792   7.111   0.535   1.296 -0.8770  0.0131 -0.0987
 8943TIP3    H126793   7.119   0.504   1.205  0.8959 -2.0003  0.6484
 8943TIP3    H226794   7.121   0.630   1.289 -0.4240 -0.1182 -1.9976
 8944TIP3   OH226795   2.408   0.750   1.315  0.3826 -0.1567  0.1306
 8944TIP3    H126796   2.472   0.693   1.272  1.5392  0.0599  1.4875
 8944TIP3    H226797   2.391   0.707   1.399  0.1517  0.7390  0.5465
 8945TIP3   OH226798   2.086   4.475   4.522  0.0717 -0.1271  0.3094
 8945TIP3    H126799   2.117   4.482   4.612  1.3045  1.2421 -0.1811
 8945TIP3    H226800   2.121   4.552   4.478 -2.1510  0.2751 -0.9021
 8946TIP3   OH226801   2.896   4.747   3.548  0.5736 -0.1697  0.5386
 8946TIP3    H126802   2.854   4.678   3.497 -0.9469  1.1330 -0.0403
 8946TIP3    H226803   2.960   4.786   3.488  1.3737 -0.9831  0.8396
 8947TIP3   OH226804   6.396   4.039   4.139  0.1151  0.1937 -0.0415
 8947TIP3    H126805   6.407   4.123   4.183  0.6580 -0.9879  2.1872
 8947TIP3    H226806   6.458   3.981   4.183 -1.9600 -1.9849  0.1447
 8948TIP3   OH226807   1.242   1.071   1.349  0.3896  0.4172 -0.3154
 8948TIP3    H126808   1.156   1.098   1.382  1.1196  1.7055  0.5689
 8948TIP3    H226809   1.267   1.140   1.287  1.3780  0.7599  0.4460
 8949TIP3   OH226810   2.569   1.979   4.623 -0.2081 -0.4869  0.1023
 8949TIP3    H126811   2.529   1.892   4.625 -0.7199 -0.2492  1.7626
 8949TIP3    H226812   2.531   2.025   4.698 -0.2947  1.3384 -0.9823
 8950TIP3   OH226813   5.345   3.608   2.164  0.0145 -0.2489 -0.2792
 8950TIP3    H126814   5.272   3.586   2.222 -0.1796 -0.8518 -0.7428
 8950TIP3    H226815   5.396   3.673   2.212 -0.6974 -0.0030  0.1477
 8951TIP3   OH226816   7.150   5.547   3.168 -0.3352 -0.2577  0.2093
 8951TIP3    H126817   7.169   5.493   3.092 -0.3539  1.9263 -1.4616
 8951TIP3    H226818   7.068   5.592   3.146 -0.2669  0.5307  1.4397
 8952TIP3   OH226819   1.879   0.757   5.059  0.6941  0.0050 -0.3426
 8952TIP3    H126820   1.859   0.821   4.991 -1.5017 -1.4353 -1.1558
 8952TIP3    H226821   1.876   0.806   5.141 -1.2810  0.9012 -0.9086
 8953TIP3   OH226822   4.820   0.761   0.502  0.3109 -0.3073  0.5847
 8953TIP3    H126823   4.744   0.707   0.523  0.0718  0.4402  1.7395
 8953TIP3    H226824   4.863   0.715   0.429 -2.0726  0.0779 -1.1723
 8954TIP3   OH226825   5.321   4.396   4.514 -0.0148 -0.6717  0.6274
 8954TIP3    H126826   5.292   4.464   4.575 -2.7044 -0.8169 -0.3471
 8954TIP3    H226827   5.277   4.317   4.543  0.6534 -1.2990 -0.0357
 8955TIP3   OH226828   4.527   1.628   2.646  0.7407 -0.1803 -0.5107
 8955TIP3    H126829   4.445   1.579   2.640  0.1306  0.6676  0.5429
 8955TIP3    H226830   4.505   1.707   2.697  2.0653  0.3689 -0.7341
 8956TIP3   OH226831   5.160   3.471   5.384  0.0124 -0.5147 -0.4229
 8956TIP3    H126832   5.234   3.468   5.445  0.2949 -1.2145 -0.7954
 8956TIP3    H226833   5.191   3.426   5.306  0.2475  1.7697 -1.7552
 8957TIP3   OH226834   4.745   5.292   1.452  0.4794  0.3987 -0.2426
 8957TIP3    H126835   4.760   5.385   1.467  0.7530  0.4129 -0.5762
 8957TIP3    H226836   4.666   5.271   1.501  2.1115  0.1163  2.4598
 8958TIP3   OH226837   6.396   3.913   3.411  0.2529  0.4471  0.0850
 8958TIP3    H126838   6.411   3.933   3.319 -0.0590 -0.2999 -0.1356
 8958TIP3    H226839   6.360   3.994   3.448 -0.5630  0.4418 -0.6799
 8959TIP3   OH226840   1.672   2.094   0.173  0.1817  0.3882  0.1859
 8959TIP3    H126841   1.662   2.004   0.143 -0.4137  0.5093  0.0240
 8959TIP3    H226842   1.706   2.141   0.098  0.7088  0.2566  0.3369
 8960TIP3   OH226843   1.325   5.281   4.989 -0.2262 -0.4545  0.4469
 8960TIP3    H126844   1.261   5.344   4.956 -0.2288 -1.0195 -0.6552
 8960TIP3    H226845   1.390   5.335   5.035 -0.7183  0.2527  0.3286
 8961TIP3   OH226846   5.194   1.335   1.588 -0.1561 -0.2222 -0.2226
 8961TIP3    H126847   5.201   1.429   1.603  0.2073 -0.3084  0.1661
 8961TIP3    H226848   5.213   1.296   1.673 -0.0713 -0.6538 -0.4378
 8962TIP3   OH226849   0.704   3.353   5.370  0.1710  0.3287 -0.0443
 8962TIP3    H126850   0.628   3.299   5.392  0.8186 -0.1730  1.0661
 8962TIP3    H226851   0.674   3.410   5.300 -0.9337 -0.5512 -0.3123
 8963TIP3   OH226852   6.760   2.943   4.165 -0.8437  0.0306  0.2033
 8963TIP3    H126853   6.821   2.892   4.111 -2.3663 -1.8543  0.1602
 8963TIP3    H226854   6.679   2.944   4.114 -0.8437  2.7313  0.1288
 8964TIP3   OH226855   5.421   3.343   4.541 -0.8474 -0.2334  0.7519
 8964TIP3    H126856   5.392   3.385   4.622  0.8124  0.2705  1.1124
 8964TIP3    H226857   5.434   3.415   4.480  1.4915 -0.1924  1.2105
 8965TIP3   OH226858   3.046   0.424   2.999 -0.0631 -0.0433 -0.1824
 8965TIP3    H126859   3.012   0.493   3.055 -0.3239 -0.0585 -0.3182
 8965TIP3    H226860   2.968   0.388   2.956  0.2440  0.8740 -1.5763
 8966TIP3   OH226861   0.795   3.036   2.612 -0.6094 -0.3933 -0.2563
 8966TIP3    H126862   0.823   2.989   2.690  0.3758 -0.6595 -0.7506
 8966TIP3    H226863   0.860   3.105   2.601 -0.3500 -0.7706 -1.2025
 8967TIP3   OH226864   0.665   6.071   2.572  0.4337 -0.3621 -0.4819
 8967TIP3    H126865   0.714   6.152   2.571 -0.1493  0.0019 -1.3606
 8967TIP3    H226866   0.722   6.007   2.528  0.3244 -0.0607 -1.0750
 8968TIP3   OH226867   0.057   4.647   5.171  0.0860  0.4390  0.2407
 8968TIP3    H126868   0.113   4.661   5.094  0.3893  1.6671  0.6660
 8968TIP3    H226869   0.038   4.554   5.169  2.0941 -0.0168  0.0353
 8969TIP3   OH226870   2.750   3.097   2.890  0.3653 -0.1008 -0.4792
 8969TIP3    H126871   2.685   3.080   2.822  1.0803 -0.3221 -1.1143
 8969TIP3    H226872   2.699   3.132   2.963 -0.3566  0.6217 -1.2976
 8970TIP3   OH226873   2.081   0.893   4.454  0.5783  0.7274 -0.4696
 8970TIP3    H126874   2.104   0.825   4.517 -0.7941  2.1067  1.6382
 8970TIP3    H226875   2.160   0.945   4.444  0.9393  0.2264 -0.2325
 8971TIP3   OH226876   6.806   3.002   3.102  0.3199 -0.5262 -0.1811
 8971TIP3    H126877   6.775   2.936   3.164 -0.5837  1.3748  1.5492
 8971TIP3    H226878   6.753   2.989   3.024 -0.4593 -1.2933  0.4536
 8972TIP3   OH226879   6.318   3.327   5.603 -0.5675 -0.5610  0.2301
 8972TIP3    H126880   6.377   3.266   5.558 -2.2235 -0.3437 -2.4573
 8972TIP3    H226881   6.292   3.281   5.682  0.9209 -1.8567  0.0207
 8973TIP3   OH226882   4.073   3.628   0.089  0.0194 -0.2658 -0.1945
 8973TIP3    H126883   3.993   3.654   0.044  0.3291 -0.9364 -1.1705
 8973TIP3    H226884   4.143   3.665   0.036  0.3670  0.7154  0.9110
 8974TIP3   OH226885   3.607   5.016   2.403 -0.0205 -0.4134  0.5545
 8974TIP3    H126886   3.686   5.000   2.352 -0.4002  0.1419 -0.2158
 8974TIP3    H226887   3.540   4.960   2.364 -0.7112  1.1314 -0.5746
 8975TIP3   OH226888   3.371   1.275   2.630 -0.1084  0.7065  0.2782
 8975TIP3    H126889   3.353   1.229   2.547 -0.2552 -0.6000  1.0090
 8975TIP3    H226890   3.311   1.350   2.629  0.5179  1.2349 -1.1922
 8976TIP3   OH226891   6.098   2.591   0.725 -0.4825 -0.4720 -0.5857
 8976TIP3    H126892   6.180   2.598   0.774 -0.5484  1.4229 -0.6730
 8976TIP3    H226893   6.124   2.551   0.641 -0.0767 -2.0647  0.2513
 8977TIP3   OH226894   5.778   5.141   1.515  0.4151 -0.1087 -0.2132
 8977TIP3    H126895   5.740   5.124   1.429 -0.3669 -0.2689  0.1565
 8977TIP3    H226896   5.704   5.168   1.569  0.9846  0.5148  0.2745
 8978TIP3   OH226897   6.233   2.352   2.433  0.0390  0.5319  0.3133
 8978TIP3    H126898   6.143   2.336   2.404  0.8891 -0.9443 -1.8035
 8978TIP3    H226899   6.269   2.265   2.448  1.5368  1.0089 -0.3166
 8979TIP3   OH226900   6.477   3.072   5.523 -0.1856 -0.2361 -0.0546
 8979TIP3    H126901   6.407   3.007   5.517 -1.0609  0.4719  1.8828
 8979TIP3    H226902   6.538   3.036   5.587 -0.0801  0.3176  0.1621
 8980TIP3   OH226903   3.061   3.237   0.422 -0.0436 -0.2985 -0.4203
 8980TIP3    H126904   3.138   3.292   0.409  0.4170 -1.0989 -1.2266
 8980TIP3    H226905   3.085   3.180   0.495 -0.6351  0.7461  0.6106
 8981TIP3   OH226906   4.538   2.998   5.786 -0.1751 -0.2459  0.1965
 8981TIP3    H126907   4.547   2.922   5.843  0.5422 -0.8202 -0.6657
 8981TIP3    H226908   4.626   3.012   5.750 -0.5594  0.2649 -0.5720
 8982TIP3   OH226909   3.989   0.418   5.639  0.1052  0.1149  0.3305
 8982TIP3    H126910   3.976   0.364   5.717  1.1892  2.1301  2.0074
 8982TIP3    H226911   3.928   0.492   5.650  0.6182  0.6815 -0.4871
 8983TIP3   OH226912   0.044   3.742   4.813  0.1089 -0.6794 -0.3627
 8983TIP3    H126913   0.007   3.689   4.884  0.5276 -0.5969 -0.0804
 8983TIP3    H226914   0.093   3.679   4.760  0.5301 -0.5975 -0.0784
 8984TIP3   OH226915   3.386   4.443   2.423 -0.2762 -1.0047 -0.0720
 8984TIP3    H126916   3.480   4.455   2.419 -0.2902 -0.3137  1.1927
 8984TIP3    H226917   3.374   4.351   2.447  0.1106 -0.7567  1.0881
 8985TIP3   OH226918   4.047   3.382   3.118  0.3042 -0.0192 -0.3553
 8985TIP3    H126919   4.100   3.307   3.144  2.0705  0.8878 -1.1538
 8985TIP3    H226920   4.040   3.435   3.197 -0.4846 -0.7314  0.0681
 8986TIP3   OH226921   3.632   3.560   2.005 -0.0274 -0.0065  0.2545
 8986TIP3    H126922   3.587   3.475   2.007  0.4366 -0.2785 -0.4652
 8986TIP3    H226923   3.567   3.620   1.967 -0.6327  0.1416  1.4916
 8987TIP3   OH226924   3.300   6.601   4.171 -0.0463  0.1779  0.1111
 8987TIP3    H126925   3.329   6.514   4.146  1.2384  0.5147  0.3674
 8987TIP3    H226926   3.348   6.661   4.113  0.7089  0.8048  1.3365
 8988TIP3   OH226927   1.426   1.089   2.085  0.2238  0.6478 -0.1816
 8988TIP3    H126928   1.512   1.107   2.123  0.8423 -0.8659 -0.7554
 8988TIP3    H226929   1.430   1.129   1.998  1.5348 -1.8488 -1.3958
 8989TIP3   OH226930   3.268   2.630   0.830 -0.1100 -0.5010 -0.5261
 8989TIP3    H126931   3.348   2.678   0.849 -1.1437  1.0606  0.1470
 8989TIP3    H226932   3.207   2.658   0.898 -1.5934 -0.7024 -1.7140
 8990TIP3   OH226933   0.922   6.615   4.251  0.2960 -0.1997  0.0770
 8990TIP3    H126934   0.989   6.589   4.188  1.4790 -0.2225  1.2905
 8990TIP3    H226935   0.840   6.607   4.203  1.2260  0.9245 -1.8073
 8991TIP3   OH226936   4.101   3.238   4.052 -0.3016  0.2248  0.3058
 8991TIP3    H126937   4.183   3.217   4.008 -0.9342 -0.8845 -0.3715
 8991TIP3    H226938   4.067   3.314   4.005  0.7333  1.2488  1.1400
 8992TIP3   OH226939   5.873   5.104   0.962 -0.2803  0.0031 -0.0177
 8992TIP3    H126940   5.847   5.193   0.985 -0.0306  0.0897 -0.0662
 8992TIP3    H226941   5.794   5.064   0.927 -0.3378  0.2769 -0.2025
 8993TIP3   OH226942   2.769   5.831   3.075  0.0297  0.2783 -0.4236
 8993TIP3    H126943   2.708   5.901   3.052 -0.8368 -1.1675 -2.9993
 8993TIP3    H226944   2.731   5.788   3.151 -0.5199  1.3169 -0.1090
 8994TIP3   OH226945   5.710   6.326   0.454  0.4364 -0.2582  0.3556
 8994TIP3    H126946   5.744   6.414   0.439  0.9504  0.0453  2.9145
 8994TIP3    H226947   5.757   6.294   0.531 -1.1468 -2.0181  0.6742
 8995TIP3   OH226948   2.863   5.819   1.312  0.0678  0.3097 -0.0438
 8995TIP3    H126949   2.939   5.824   1.370  0.1965  0.5844 -0.2305
 8995TIP3    H226950   2.898   5.785   1.230  0.3821  2.2400 -0.7584
 8996TIP3   OH226951   1.031   2.328   3.544  0.4686 -0.1579  0.1886
 8996TIP3    H126952   1.098   2.380   3.500  1.0309  0.7545  2.0267
 8996TIP3    H226953   0.951   2.379   3.535 -0.2355 -1.5591 -2.5871
 8997TIP3   OH226954   6.902   3.530   3.201 -0.4884  0.0164 -0.0966
 8997TIP3    H126955   6.905   3.446   3.156  0.1560  0.3206 -0.6422
 8997TIP3    H226956   6.936   3.512   3.289 -2.2540 -0.6924  0.4900
 8998TIP3   OH226957   7.034   5.242   1.865  0.3933 -0.5387  0.7487
 8998TIP3    H126958   6.963   5.258   1.927  1.4255  0.2413  1.7730
 8998TIP3    H226959   7.090   5.319   1.871  0.6661 -0.5426 -1.0106
 8999TIP3   OH226960   4.482   1.056   4.117 -0.0678 -0.3090 -0.2582
 8999TIP3    H126961   4.467   1.149   4.132  0.9557 -0.3416  1.1399
 8999TIP3    H226962   4.401   1.025   4.076 -0.5366  1.1195 -0.4560
 9000TIP3   OH226963   0.059   1.816   2.981  0.3701  0.3373 -1.1764
 9000TIP3    H126964   0.048   1.789   3.072 -0.8575  0.2760 -1.3275
 9000TIP3    H226965   0.144   1.859   2.980 -0.8731  3.1936  0.7496
 9001TIP3   OH226966   0.702   5.503   3.754  0.5974 -0.0510  0.2824
 9001TIP3    H126967   0.786   5.536   3.786  1.3771  0.1707 -1.8354
 9001TIP3    H226968   0.707   5.408   3.768  1.1356 -0.0220  0.3089
 9002TIP3   OH226969   5.214   2.000   5.311  0.3951  0.2769  0.2821
 9002TIP3    H126970   5.137   2.000   5.254  1.4150  0.7685 -1.1565
 9002TIP3    H226971   5.180   2.025   5.397 -0.8145  2.1742 -0.6864
 9003TIP3   OH226972   2.412   5.304   3.529  0.5875  0.5267  0.5069
 9003TIP3    H126973   2.389   5.219   3.491  1.0488  1.1004 -1.1387
 9003TIP3    H226974   2.360   5.367   3.480  1.2306  1.3073  0.8095
 9004TIP3   OH226975   4.222   2.473   5.753 -0.3475  0.3496 -0.4618
 9004TIP3    H126976   4.179   2.559   5.755 -3.7261 -1.1934 -0.6340
 9004TIP3    H226977   4.195   2.431   5.835  2.8953  0.0560  0.5968
 9005TIP3   OH226978   2.609   6.284   0.822 -0.6097 -0.0153 -0.6185
 9005TIP3    H126979   2.690   6.250   0.783  0.3607  1.8048 -0.3147
 9005TIP3    H226980   2.553   6.304   0.747  0.4931  1.6470 -1.0869
 9006TIP3   OH226981   1.349   6.611   3.734  0.1607 -0.5200  0.5010
 9006TIP3    H126982   1.423   6.605   3.675 -0.0970 -2.4831  0.3099
 9006TIP3    H226983   1.282   6.659   3.685  1.3474  1.5182  0.7811
 9007TIP3   OH226984   3.071   2.322   3.304  0.2496 -0.6732 -0.4547
 9007TIP3    H126985   3.038   2.256   3.364 -0.3015 -0.6096 -0.6821
 9007TIP3    H226986   3.000   2.385   3.295  0.3686 -0.6169 -1.0816
 9008TIP3   OH226987   3.693   6.412   0.250 -0.2930 -0.2650 -0.2796
 9008TIP3    H126988   3.705   6.322   0.222  1.8441 -0.2846  0.5073
 9008TIP3    H226989   3.676   6.406   0.344 -1.0922  0.1117 -0.3941
 9009TIP3   OH226990   4.416   3.110   2.250  0.6126 -0.4257  0.5094
 9009TIP3    H126991   4.460   3.127   2.167 -0.1506 -0.3164  0.1149
 9009TIP3    H226992   4.385   3.020   2.243 -0.0640 -0.1879  0.3815
 9010TIP3   OH226993   5.144   0.076   4.965  0.3220  0.7014 -0.0433
 9010TIP3    H126994   5.067   0.025   4.940  1.2991  0.1385 -2.1530
 9010TIP3    H226995   5.171   0.120   4.884  1.8577  1.3722  0.7823
 9011TIP3   OH226996   4.021   1.358   2.793  0.4588  0.1154 -0.0952
 9011TIP3    H126997   3.983   1.446   2.782  0.7250  0.2363 -0.0444
 9011TIP3    H226998   4.046   1.332   2.705  0.9498  0.3486 -0.0294
 9012TIP3   OH226999   0.304   3.435   3.533 -0.6580 -0.2027 -0.1971
 9012TIP3    H127000   0.283   3.399   3.447 -0.0310 -1.6799  0.2313
 9012TIP3    H227001   0.360   3.369   3.574  2.1558  2.0331 -0.0382
 9013TIP3   OH227002   5.747   3.755   0.106 -0.1719 -0.9762  0.2315
 9013TIP3    H127003   5.710   3.791   0.025  0.8919  0.5935  0.3923
 9013TIP3    H227004   5.686   3.782   0.174 -0.4742 -1.3176  0.1003
 9014TIP3   OH227005   1.555   3.085   0.983  0.0695  0.2696  0.0027
 9014TIP3    H127006   1.500   3.031   1.039 -0.7442  1.1112  0.0249
 9014TIP3    H227007   1.525   3.067   0.894  0.1153  0.3445 -0.0282
 9015TIP3   OH227008   2.091   4.473   4.158 -0.0349  0.4164 -0.6166
 9015TIP3    H127009   2.157   4.414   4.121  0.1147 -1.5528  2.5062
 9015TIP3    H227010   2.130   4.505   4.239 -1.9968  1.1515  0.0944
 9016TIP3   OH227011   6.203   5.295   2.391  0.2356 -0.1184  0.3144
 9016TIP3    H127012   6.114   5.264   2.405 -0.5169  0.8860 -1.8256
 9016TIP3    H227013   6.254   5.215   2.377 -1.1422 -0.6419 -2.4592
 9017TIP3   OH227014   4.784   1.665   0.871 -0.0256 -0.2685  0.2666
 9017TIP3    H127015   4.833   1.744   0.895 -0.1018  0.2386 -1.1692
 9017TIP3    H227016   4.834   1.593   0.910  1.5096  0.2834 -0.5987
 9018TIP3   OH227017   2.626   3.894   2.068 -0.3149  0.0698  0.4285
 9018TIP3    H127018   2.630   3.990   2.073  0.2104  0.0091  1.3570
 9018TIP3    H227019   2.705   3.869   2.022 -0.4825  0.0812  0.1313
 9019TIP3   OH227020   1.786   4.849   1.044 -0.0451 -0.3826 -0.5056
 9019TIP3    H127021   1.819   4.931   1.081 -0.0889 -0.4154 -0.3935
 9019TIP3    H227022   1.722   4.877   0.978  0.0810 -0.3231 -0.6025
 9020TIP3   OH227023   3.785   2.760   5.413 -0.2995  0.2026  0.0302
 9020TIP3    H127024   3.815   2.829   5.354  2.3332 -1.6095 -0.9117
 9020TIP3    H227025   3.745   2.807   5.486  0.7786  2.6871 -0.8856
 9021TIP3   OH227026   3.688   3.569   5.678 -0.6240 -0.0485 -0.1576
 9021TIP3    H127027   3.606   3.612   5.653 -0.4479 -0.3220 -1.2641
 9021TIP3    H227028   3.745   3.580   5.602  0.5068  0.4587  0.7274
 9022TIP3   OH227029   6.781   2.034   4.622 -0.8532 -0.1321 -0.0455
 9022TIP3    H127030   6.754   2.019   4.531 -0.5740  0.2475 -0.1957
 9022TIP3    H227031   6.730   1.971   4.673 -0.1541 -1.1556 -0.5846
 9023TIP3   OH227032   3.819   1.964   0.292  0.2261 -0.2796 -0.3278
 9023TIP3    H127033   3.839   2.021   0.367 -0.1893  0.3101 -0.6571
 9023TIP3    H227034   3.817   2.023   0.217 -1.2047 -0.5543 -0.5335
 9024TIP3   OH227035   1.695   1.457   2.907  0.1967  0.3285  0.1458
 9024TIP3    H127036   1.723   1.542   2.942  3.2551 -0.5575  0.1264
 9024TIP3    H227037   1.742   1.393   2.960  2.0735 -1.1672 -3.0399
 9025TIP3   OH227038   4.470   5.578   2.023  0.3793  0.1450 -0.9777
 9025TIP3    H127039   4.383   5.585   2.061  0.8836  1.3828  0.0356
 9025TIP3    H227040   4.461   5.611   1.933 -0.4923 -1.2265 -1.4144
 9026TIP3   OH227041   1.598   5.946   3.847 -0.2499 -0.3073  0.1639
 9026TIP3    H127042   1.667   5.923   3.909  0.5624  1.7925  0.1254
 9026TIP3    H227043   1.624   5.904   3.765  0.7254  0.0218  0.2875
 9027TIP3   OH227044   4.921   0.199   5.193 -0.3127  0.3675  0.4987
 9027TIP3    H127045   4.837   0.204   5.149  0.3572 -1.5583 -1.1794
 9027TIP3    H227046   4.978   0.256   5.143 -0.8046  2.6478  2.3570
 9028TIP3   OH227047   3.691   1.194   5.461 -0.3927 -0.5350 -0.1342
 9028TIP3    H127048   3.760   1.177   5.397 -0.3369 -0.8823  0.0147
 9028TIP3    H227049   3.728   1.263   5.518 -0.6297  0.1143 -0.7558
 9029TIP3   OH227050   4.740   0.748   5.101  0.2367  0.4220 -0.4865
 9029TIP3    H127051   4.685   0.814   5.143 -0.0620 -0.8822  1.2702
 9029TIP3    H227052   4.681   0.674   5.085  1.1958 -0.5643  0.3762
 9030TIP3   OH227053   0.622   4.520   5.258  0.0596 -0.2636 -0.5765
 9030TIP3    H127054   0.671   4.491   5.181  1.8987 -1.6961  1.0464
 9030TIP3    H227055   0.586   4.440   5.295 -1.2985  0.4718 -0.2266
 9031TIP3   OH227056   5.707   1.960   0.974 -0.5185  0.1425 -0.1188
 9031TIP3    H127057   5.763   2.034   0.953 -1.0934  0.2387 -1.4518
 9031TIP3    H227058   5.630   1.972   0.918 -0.5636 -1.5204 -0.4710
 9032TIP3   OH227059   7.091   4.676   1.284 -0.0885  0.1041 -0.1269
 9032TIP3    H127060   7.109   4.650   1.194 -1.2043 -1.6692  0.1156
 9032TIP3    H227061   7.177   4.679   1.326  0.2918 -0.9003 -0.7943
 9033TIP3   OH227062   5.586   3.551   3.793  0.2705  0.5789  0.5457
 9033TIP3    H127063   5.629   3.587   3.871 -0.0738  0.6979  0.6829
 9033TIP3    H227064   5.519   3.493   3.828 -0.0422  0.8135  0.3441
 9034TIP3   OH227065   2.993   5.273   3.458  0.1756  0.0589  0.4670
 9034TIP3    H127066   2.906   5.301   3.487  0.1259  2.6021 -1.7311
 9034TIP3    H227067   3.053   5.322   3.515  0.0817  1.9238 -0.9433
 9035TIP3   OH227068   6.277   2.819   4.951 -0.5029 -0.4406  0.7836
 9035TIP3    H127069   6.253   2.910   4.933  1.5490 -0.2076 -1.2109
 9035TIP3    H227070   6.250   2.805   5.042 -2.8252  1.4535  0.4821
 9036TIP3   OH227071   3.100   1.877   4.017 -0.2706 -0.2195  0.1973
 9036TIP3    H127072   3.148   1.924   4.085  0.2855 -1.1868  0.4936
 9036TIP3    H227073   3.023   1.843   4.061  0.7379 -1.9538  0.7042
 9037TIP3   OH227074   1.181   0.390   2.646 -0.1644  0.6347 -0.2589
 9037TIP3    H127075   1.160   0.312   2.698 -0.0805  0.4714 -0.4710
 9037TIP3    H227076   1.127   0.380   2.567  0.6756  0.2331 -0.7943
 9038TIP3   OH227077   0.267   3.791   2.328  0.5979  0.1213  0.0550
 9038TIP3    H127078   0.334   3.846   2.367 -0.6526  1.6488  0.1401
 9038TIP3    H227079   0.186   3.841   2.337 -0.6337 -1.7955  0.2447
 9039TIP3   OH227080   1.546   4.185   4.490 -0.6196  0.1849 -0.4427
 9039TIP3    H127081   1.538   4.247   4.417 -0.9842 -0.6009 -1.0808
 9039TIP3    H227082   1.632   4.205   4.528 -1.1533  1.7706  0.0271
 9040TIP3   OH227083   4.577   5.408   0.487  0.1006  0.0463  0.0326
 9040TIP3    H127084   4.569   5.380   0.578  0.3316 -1.5223 -0.4117
 9040TIP3    H227085   4.504   5.367   0.442 -3.0387  4.6086  0.2667
 9041TIP3   OH227086   3.839   4.752   4.649 -0.2410  0.1234  0.0709
 9041TIP3    H127087   3.762   4.801   4.678  0.6185  2.8283 -1.7699
 9041TIP3    H227088   3.810   4.703   4.573 -0.7144 -0.9797  0.9370
 9042TIP3   OH227089   4.823   0.275   0.237  0.1453  0.4670 -0.2318
 9042TIP3    H127090   4.738   0.245   0.271 -0.1479  1.7403  0.1915
 9042TIP3    H227091   4.809   0.287   0.144 -0.1384  0.6936 -0.1590
 9043TIP3   OH227092   4.053   3.759   5.111  0.0896  0.4888 -0.1992
 9043TIP3    H127093   4.138   3.751   5.155  0.3140  1.1132 -0.4955
 9043TIP3    H227094   4.027   3.669   5.091  0.4828  0.2684  0.2744
 9044TIP3   OH227095   0.547   5.044   4.989 -0.2206 -0.1001 -0.0828
 9044TIP3    H127096   0.608   5.023   5.059  1.0798 -1.1759 -1.4683
 9044TIP3    H227097   0.502   4.961   4.970 -1.8546  0.5809  0.6349
 9045TIP3   OH227098   5.387   1.843   2.913 -0.3635  0.1375  0.0108
 9045TIP3    H127099   5.353   1.903   2.979  0.0064 -1.0977  1.3613
 9045TIP3    H227100   5.317   1.838   2.848 -1.1153  0.6671  0.7537
 9046TIP3   OH227101   2.875   6.457   3.308 -0.1803 -0.4068  0.0907
 9046TIP3    H127102   2.942   6.523   3.289  0.4731 -0.5567  1.7489
 9046TIP3    H227103   2.922   6.375   3.314 -0.3158 -0.3740  2.2397
 9047TIP3   OH227104   6.477   3.237   3.232 -0.3392  0.0654  0.3510
 9047TIP3    H127105   6.403   3.178   3.218 -0.3687 -0.5032  2.4651
 9047TIP3    H227106   6.555   3.180   3.226 -0.2834  0.0584  1.0062
 9048TIP3   OH227107   2.125   5.771   5.420 -0.2324  0.3003 -0.2195
 9048TIP3    H127108   2.211   5.806   5.445 -0.2564  1.5382 -1.7010
 9048TIP3    H227109   2.063   5.841   5.443 -1.0170 -0.9475  1.7084
 9049TIP3   OH227110   6.277   3.749   5.737 -0.4630 -0.1534  0.3566
 9049TIP3    H127111   6.234   3.820   5.785 -1.3168 -0.0233 -0.5813
 9049TIP3    H227112   6.310   3.791   5.658 -1.8114 -0.9891 -0.6658
 9050TIP3   OH227113   6.866   4.039   0.998 -0.2293  0.6533 -0.0047
 9050TIP3    H127114   6.797   4.097   1.031  1.0969  1.9213  0.6362
 9050TIP3    H227115   6.901   3.997   1.076  0.6945  1.1319 -0.1565
 9051TIP3   OH227116   5.885   1.755   1.078  0.2442  0.3969 -0.1083
 9051TIP3    H127117   5.898   1.712   0.993  1.2009 -0.8775  0.6427
 9051TIP3    H227118   5.823   1.826   1.060 -0.1439 -0.3039 -1.7206
 9052TIP3   OH227119   6.297   6.012   2.384  0.4340  0.3677 -0.3437
 9052TIP3    H127120   6.291   6.088   2.326  0.9002  0.3128 -0.4688
 9052TIP3    H227121   6.209   6.002   2.420 -0.6798 -1.2954 -3.1970
 9053TIP3   OH227122   3.633   2.690   5.137 -0.1903 -0.1450 -0.7877
 9053TIP3    H127123   3.611   2.600   5.160 -0.0849 -0.4569 -1.8673
 9053TIP3    H227124   3.683   2.722   5.211 -0.7949 -0.7542 -0.1020
 9054TIP3   OH227125   0.795   6.251   3.351 -0.0012 -0.3968  0.0330
 9054TIP3    H127126   0.797   6.297   3.267 -0.2120 -0.2943  0.0844
 9054TIP3    H227127   0.823   6.316   3.415  0.2581 -0.5037  0.0290
 9055TIP3   OH227128   5.700   5.640   5.063  0.5253 -0.6500  0.1393
 9055TIP3    H127129   5.739   5.553   5.071  2.4969  0.1926  0.4693
 9055TIP3    H227130   5.762   5.698   5.107 -0.8556  0.9003  0.1390
 9056TIP3   OH227131   5.539   4.682   2.363 -0.2049 -0.2247 -0.5841
 9056TIP3    H127132   5.460   4.672   2.416  0.2765 -0.5389  0.0955
 9056TIP3    H227133   5.558   4.593   2.332 -0.0785 -0.1616 -0.6861
 9057TIP3   OH227134   1.026   6.784   2.378 -0.0174 -0.2570 -0.2239
 9057TIP3    H127135   1.041   6.719   2.446 -0.4607 -0.5679 -0.4125
 9057TIP3    H227136   0.931   6.798   2.379 -0.0315 -0.2848 -0.7876
 9058TIP3   OH227137   2.912   1.855   3.566 -0.5131 -0.6357  0.7617
 9058TIP3    H127138   2.908   1.868   3.661  1.4642 -1.3646  0.9992
 9058TIP3    H227139   2.987   1.797   3.553 -2.9500 -3.6915 -0.9713
 9059TIP3   OH227140   5.960   1.490   5.221 -0.3173  0.1287 -0.8104
 9059TIP3    H127141   6.011   1.553   5.170  1.6859  0.4829  1.4359
 9059TIP3    H227142   5.904   1.543   5.277  0.6975 -0.0427  0.4221
 9060TIP3   OH227143   0.746   5.109   2.941 -0.0220  0.1820  0.5404
 9060TIP3    H127144   0.660   5.113   2.900  1.2989  1.0386 -2.3575
 9060TIP3    H227145   0.762   5.015   2.954 -0.8588 -0.0580 -0.0881
 9061TIP3   OH227146   5.399   2.345   2.509 -0.5218  0.3826 -0.4917
 9061TIP3    H127147   5.380   2.352   2.416  1.1373  0.5863 -0.8555
 9061TIP3    H227148   5.355   2.264   2.536 -1.4917  0.6171 -1.3062
 9062TIP3   OH227149   4.552   0.082   2.173  0.5635  0.2848  0.1290
 9062TIP3    H127150   4.617   0.132   2.223  1.9916 -1.0801 -0.2932
 9062TIP3    H227151   4.468   0.110   2.209  1.4045  1.6890  1.0876
 9063TIP3   OH227152   5.096   1.194   0.911 -0.4258  0.0501 -0.8680
 9063TIP3    H127153   5.014   1.169   0.869 -0.0308 -1.3723 -0.8505
 9063TIP3    H227154   5.072   1.268   0.968 -1.7954 -0.6299 -0.5112
 9064TIP3   OH227155   1.558   2.918   2.546 -0.2558 -0.3394  0.1609
 9064TIP3    H127156   1.586   2.942   2.634 -2.7247  1.1458  0.6347
 9064TIP3    H227157   1.602   2.835   2.528  0.0287 -0.8676  2.9233
 9065TIP3   OH227158   6.995   3.503   3.472  0.0184  0.5216  0.8215
 9065TIP3    H127159   7.087   3.523   3.486  0.2488 -0.3810  0.5992
 9065TIP3    H227160   6.975   3.434   3.535 -0.6487  1.0744  1.2367
 9066TIP3   OH227161   2.030   2.664   1.468  0.0353 -0.2371 -0.0663
 9066TIP3    H127162   1.957   2.633   1.522 -1.2369 -4.0255 -3.4180
 9066TIP3    H227163   2.099   2.600   1.482 -0.2893 -1.2644 -2.6170
 9067TIP3   OH227164   1.165   6.382   5.733 -0.2320  0.5002 -0.5856
 9067TIP3    H127165   1.205   6.315   5.788 -1.7281  1.5501  1.9765
 9067TIP3    H227166   1.077   6.347   5.714 -0.2578  0.8185 -1.0750
 9068TIP3   OH227167   1.733   5.004   0.811  0.0938 -0.1003  0.0270
 9068TIP3    H127168   1.805   5.017   0.750  0.6840  0.3706  0.7975
 9068TIP3    H227169   1.722   5.089   0.853  0.6104 -0.7391  1.5335
 9069TIP3   OH227170   4.771   0.619   1.024  0.2415 -0.0817  0.3846
 9069TIP3    H127171   4.831   0.603   1.096 -0.8921 -0.5691  1.2634
 9069TIP3    H227172   4.813   0.580   0.947  3.2215  3.6162 -0.1241
 9070TIP3   OH227173   6.814   2.635   5.601  0.4094 -0.1001 -0.2558
 9070TIP3    H127174   6.811   2.723   5.638 -1.1808 -0.6843  1.1694
 9070TIP3    H227175   6.755   2.638   5.526  0.9893  0.2380 -0.7044
 9071TIP3   OH227176   3.535   6.059   2.046 -0.7414  0.1044 -0.6845
 9071TIP3    H127177   3.608   6.119   2.056 -1.7023  1.2797 -0.4167
 9071TIP3    H227178   3.571   5.973   2.067  1.0918  0.2923 -2.6940
 9072TIP3   OH227179   6.488   5.262   1.235 -0.4431  0.3765  0.0384
 9072TIP3    H127180   6.521   5.327   1.296  1.0812 -0.1968 -0.1217
 9072TIP3    H227181   6.394   5.279   1.230 -0.0709  2.7056 -0.1969
 9073TIP3   OH227182   4.728   1.312   2.697  0.3620  0.0421 -0.8032
 9073TIP3    H127183   4.689   1.364   2.627  0.5037  0.2674 -0.7140
 9073TIP3    H227184   4.776   1.242   2.652 -1.5610 -1.2857 -0.9007
 9074TIP3   OH227185   1.181   6.267   2.597 -0.1206  0.1461 -0.3261
 9074TIP3    H127186   1.230   6.210   2.657  1.9291 -0.5794 -2.5382
 9074TIP3    H227187   1.244   6.289   2.528 -2.7970 -0.5703 -3.2170
 9075TIP3   OH227188   0.469   6.368   3.283 -0.3636  0.4505  0.0368
 9075TIP3    H127189   0.518   6.323   3.351  0.3214 -1.4437 -1.6217
 9075TIP3    H227190   0.531   6.377   3.210 -1.6674  0.4829 -1.1081
 9076TIP3   OH227191   1.748   0.434   3.041 -0.3219  0.4356  0.0487
 9076TIP3    H127192   1.673   0.460   2.987 -0.4324  2.2584  0.9937
 9076TIP3    H227193   1.711   0.375   3.106 -0.4020 -0.8364 -1.0980
 9077TIP3   OH227194   6.904   6.376   1.308 -0.1332 -0.4914 -0.6129
 9077TIP3    H127195   6.915   6.468   1.284  0.3379 -0.2820  0.3623
 9077TIP3    H227196   6.971   6.360   1.375 -0.4860 -1.4268 -0.4663
 9078TIP3   OH227197   1.937   3.597   0.204  0.1714 -0.1105 -0.8014
 9078TIP3    H127198   1.968   3.552   0.125  0.4884 -2.0114  0.3211
 9078TIP3    H227199   1.842   3.582   0.204  0.2615 -0.7110 -0.4883
 9079TIP3   OH227200   6.762   1.376   1.111 -0.0310 -0.1970  0.4895
 9079TIP3    H127201   6.729   1.460   1.141  0.4021 -0.1347  0.8035
 9079TIP3    H227202   6.815   1.397   1.034  0.3419 -0.1392  0.7578
 9080TIP3   OH227203   6.922   2.734   2.641  0.8251  0.0640  0.2950
 9080TIP3    H127204   6.843   2.784   2.620  1.6845  2.3462  2.0743
 9080TIP3    H227205   6.890   2.657   2.688 -0.4636 -0.5169 -1.4366
 9081TIP3   OH227206   5.486   4.044   3.582  0.5901  0.6047  0.2462
 9081TIP3    H127207   5.459   4.024   3.492  1.7147 -0.4632  0.1161
 9081TIP3    H227208   5.579   4.066   3.576  0.5365  1.1289  1.0753
 9082TIP3   OH227209   2.029   0.652   2.337  0.0568  0.6847  0.1548
 9082TIP3    H127210   1.998   0.627   2.250  0.1356 -2.2848  0.8915
 9082TIP3    H227211   1.972   0.725   2.362 -2.8578 -1.1148 -0.7171
 9083TIP3   OH227212   3.566   1.360   3.866  0.1488 -0.0054  0.6404
 9083TIP3    H127213   3.497   1.312   3.821  0.7120 -1.4675  1.2661
 9083TIP3    H227214   3.590   1.431   3.806 -0.2587 -0.9047 -0.6196
 9084TIP3   OH227215   4.496   2.999   4.766 -0.6610  0.3991 -0.3034
 9084TIP3    H127216   4.498   3.061   4.693  0.8097  0.4834 -0.2281
 9084TIP3    H227217   4.577   2.950   4.758  0.3349  1.4470  2.1261
 9085TIP3   OH227218   1.034   0.130   5.254 -0.0674  0.5077 -0.2337
 9085TIP3    H127219   0.981   0.061   5.295  0.8398 -0.0347  0.0649
 9085TIP3    H227220   1.043   0.197   5.322  0.1506  0.3080 -0.0619
 9086TIP3   OH227221   6.974   3.702   5.780 -0.0641  0.6414 -0.4402
 9086TIP3    H127222   6.904   3.669   5.724 -1.5103  0.5723  1.2981
 9086TIP3    H227223   6.928   3.743   5.853  1.6994  3.4456 -0.7743
 9087TIP3   OH227224   4.115   5.069   3.603 -0.2565 -0.3213  0.0933
 9087TIP3    H127225   4.072   4.983   3.597  0.7022 -0.8006 -0.0276
 9087TIP3    H227226   4.043   5.130   3.620 -0.9024 -1.2041  0.6340
 9088TIP3   OH227227   0.934   1.752   2.885  0.8350 -0.1312  0.2020
 9088TIP3    H127228   0.971   1.833   2.920 -0.5767  0.2334  0.9238
 9088TIP3    H227229   1.001   1.686   2.902  1.5958  0.6888  0.4913
 9089TIP3   OH227230   6.770   3.149   5.673  0.5018  0.2371 -0.0709
 9089TIP3    H127231   6.813   3.149   5.758 -2.2085  1.9562  1.4618
 9089TIP3    H227232   6.721   3.067   5.671  1.4846 -0.3651 -0.5661
 9090TIP3   OH227233   4.488   4.566   2.038  0.3348 -0.2223  0.2039
 9090TIP3    H127234   4.423   4.551   1.969 -0.0453  0.2964  0.4407
 9090TIP3    H227235   4.571   4.576   1.991  0.2272 -0.7412 -0.1130
 9091TIP3   OH227236   4.895   1.741   2.811  0.1436  0.9101  0.4159
 9091TIP3    H127237   4.872   1.805   2.744 -0.3517  0.3928  0.0852
 9091TIP3    H227238   4.989   1.751   2.824  0.3739  0.5135 -0.8794
 9092TIP3   OH227239   0.061   2.789   1.529  0.6916  0.5121  0.1702
 9092TIP3    H127240   0.140   2.808   1.478  0.5472 -0.7117 -0.5376
 9092TIP3    H227241  -0.010   2.830   1.479  0.3806 -1.7176 -1.3543
 9093TIP3   OH227242   1.429   1.501   3.252 -0.1613  0.5856 -0.0019
 9093TIP3    H127243   1.373   1.478   3.325 -0.6787  0.7864 -0.3331
 9093TIP3    H227244   1.453   1.417   3.213  1.8681  0.3111  1.6530
 9094TIP3   OH227245   6.582   3.885   5.883  0.7071  0.5370  0.1227
 9094TIP3    H127246   6.572   3.790   5.888  0.7529  0.5415  0.3189
 9094TIP3    H227247   6.548   3.908   5.797  0.6752  0.3451  0.0827
 9095TIP3   OH227248   2.034   6.310   1.402  0.1718  0.2786  0.5202
 9095TIP3    H127249   2.057   6.399   1.378 -1.3163  1.6551  3.6748
 9095TIP3    H227250   2.107   6.279   1.454 -1.0779  1.4061  3.1279
 9096TIP3   OH227251   3.797   0.410   2.801 -0.0314 -0.4685 -0.2003
 9096TIP3    H127252   3.822   0.466   2.728  2.2479 -0.2906  0.6387
 9096TIP3    H227253   3.792   0.322   2.764 -1.7932 -0.0341 -1.1262
 9097TIP3   OH227254   4.553   1.741   5.589 -0.3845 -0.0825  0.0695
 9097TIP3    H127255   4.633   1.731   5.641  0.0361  0.9349 -0.3487
 9097TIP3    H227256   4.584   1.766   5.502 -1.1668  1.9781  0.3130
 9098TIP3   OH227257   1.070   3.046   4.454 -0.0407 -0.1041 -0.7474
 9098TIP3    H127258   1.006   2.983   4.485  0.6338 -0.3586  0.1757
 9098TIP3    H227259   1.034   3.131   4.477  1.3100 -0.3099  2.6954
 9099TIP3   OH227260   0.110   3.236   5.817 -0.3717 -0.1300 -0.3870
 9099TIP3    H127261   0.073   3.323   5.810  1.4388  0.6637 -0.6546
 9099TIP3    H227262   0.075   3.188   5.741 -1.9402  0.1020  0.1589
 9100TIP3   OH227263   0.367   3.940   5.440 -0.3538 -0.1457 -0.3424
 9100TIP3    H127264   0.350   4.010   5.503  0.2155 -0.0335 -0.2998
 9100TIP3    H227265   0.282   3.902   5.421 -0.6134  0.2806 -0.0353
 9101TIP3   OH227266   5.410   3.556   4.378 -0.0986  0.0831  0.1620
 9101TIP3    H127267   5.420   3.650   4.368 -1.5111  0.0911 -1.9863
 9101TIP3    H227268   5.478   3.518   4.321 -0.2633 -0.1719  0.1321
 9102TIP3   OH227269   4.254   3.063   0.400  0.0908  0.4886  0.0511
 9102TIP3    H127270   4.348   3.073   0.415 -0.0386  2.0945 -0.0376
 9102TIP3    H227271   4.218   3.039   0.485  0.4295  1.2065  0.4075
 9103TIP3   OH227272   5.582   3.742   0.923 -0.3942  0.0543  0.0453
 9103TIP3    H127273   5.664   3.737   0.972  0.0505 -2.7345 -0.7955
 9103TIP3    H227274   5.608   3.733   0.831 -1.6519 -2.0599 -0.1683
 9104TIP3   OH227275   0.727   1.176   3.077 -0.4442  0.3518 -0.0880
 9104TIP3    H127276   0.810   1.201   3.036 -0.5705  1.0514  0.0724
 9104TIP3    H227277   0.738   1.083   3.097 -0.6231 -0.2048 -2.2844
 9105TIP3   OH227278   3.650   2.131   5.726 -0.1289  0.3405  0.2391
 9105TIP3    H127279   3.605   2.216   5.727  1.0274  1.0146 -0.8999
 9105TIP3    H227280   3.743   2.154   5.736  0.1251 -0.8754  0.8397
 9106TIP3   OH227281   1.713   5.963   0.071  0.4399  0.4276  0.1687
 9106TIP3    H127282   1.724   5.882   0.021  0.0181  0.4699 -0.0002
 9106TIP3    H227283   1.683   5.935   0.157  2.2600  0.2815  0.7881
 9107TIP3   OH227284   0.978   5.724   0.676  0.1471 -0.7945 -0.0114
 9107TIP3    H127285   1.016   5.691   0.757 -0.5893 -0.9598  0.2716
 9107TIP3    H227286   0.952   5.646   0.627  0.8224 -0.7071 -0.5341
 9108TIP3   OH227287   6.207   0.179   2.866 -0.6250 -0.1326 -0.1187
 9108TIP3    H127288   6.245   0.162   2.952 -0.1391  0.6944 -0.1628
 9108TIP3    H227289   6.280   0.210   2.813 -0.4250 -2.6211 -1.4721
 9109TIP3   OH227290   4.967   5.780   4.399  0.2439  0.2765  0.3570
 9109TIP3    H127291   5.041   5.839   4.384  0.5486 -0.5504 -1.7810
 9109TIP3    H227292   4.904   5.832   4.449  0.8466  2.1546 -0.7450
 9110TIP3   OH227293   0.265   0.300   5.803 -0.4788  0.1756  0.0404
 9110TIP3    H127294   0.291   0.227   5.858 -0.9527 -1.8796 -2.2615
 9110TIP3    H227295   0.170   0.295   5.799 -0.5466  1.1725  0.1554
 9111TIP3   OH227296   7.134   4.835   1.609 -0.3062  0.1881  0.1132
 9111TIP3    H127297   7.047   4.804   1.633 -0.3808 -0.7698 -1.2866
 9111TIP3    H227298   7.126   4.930   1.609 -1.8815  0.1171 -1.7107
 9112TIP3   OH227299   6.832   0.525   4.401  0.6840 -0.5192  0.1662
 9112TIP3    H127300   6.890   0.570   4.339  0.8406 -1.0494 -0.0755
 9112TIP3    H227301   6.793   0.454   4.350 -0.8183  0.3093  0.0982
 9113TIP3   OH227302   4.843   3.552   3.022 -0.0593  0.4085  0.3676
 9113TIP3    H127303   4.817   3.594   2.940  0.9021  0.0928 -0.1177
 9113TIP3    H227304   4.921   3.502   2.999 -1.2566 -1.8100  0.8713
 9114TIP3   OH227305   2.156   6.004   3.443 -0.0474 -0.1337 -0.6772
 9114TIP3    H127306   2.224   5.936   3.439  1.2580  1.0054  0.6728
 9114TIP3    H227307   2.178   6.054   3.521 -2.0392  0.7530 -0.6421
 9115TIP3   OH227308   1.395   5.756   0.327 -0.4109 -0.0649  0.0980
 9115TIP3    H127309   1.402   5.837   0.277  1.8943 -0.5356 -0.4892
 9115TIP3    H227310   1.444   5.773   0.408 -0.7219 -0.5686  0.4019
 9116TIP3   OH227311   5.357   5.186   4.373 -0.2204  0.0638  0.2475
 9116TIP3    H127312   5.261   5.178   4.370 -0.0515 -2.0142 -1.4675
 9116TIP3    H227313   5.374   5.275   4.341 -1.5565  0.5721  0.8447
 9117TIP3   OH227314   1.312   4.007   1.350  0.0285 -0.2420  0.1788
 9117TIP3    H127315   1.328   3.940   1.417 -0.3430 -1.0910 -0.5614
 9117TIP3    H227316   1.217   4.012   1.344  0.0592 -0.4660 -0.5677
 9118TIP3   OH227317   7.149   0.958   4.868  0.4153 -0.2258  0.5985
 9118TIP3    H127318   7.225   1.017   4.873 -0.2664  0.6690  0.5086
 9118TIP3    H227319   7.148   0.914   4.953  0.1541  0.8847  1.1898
 9119TIP3   OH227320   2.790   3.834   5.756 -0.5912  0.4935  0.4708
 9119TIP3    H127321   2.788   3.904   5.821 -0.8232  1.1438 -0.2291
 9119TIP3    H227322   2.876   3.841   5.714 -0.4979  0.1670  0.6021
 9120TIP3   OH227323   1.220   1.354   4.727  0.1142  0.0523 -0.1421
 9120TIP3    H127324   1.241   1.372   4.819  2.1757 -0.2987 -0.4901
 9120TIP3    H227325   1.221   1.258   4.721 -0.4351  0.0627 -0.4446
 9121TIP3   OH227326   0.508   4.786   4.879 -0.5766 -0.4743 -0.4224
 9121TIP3    H127327   0.601   4.778   4.901 -0.4285  1.5583 -0.1356
 9121TIP3    H227328   0.467   4.712   4.923  0.7492 -0.7170  0.4781
 9122TIP3   OH227329   0.098   4.824   2.138  0.1406  0.0879 -0.1132
 9122TIP3    H127330   0.130   4.738   2.164 -1.0583 -0.0991  0.8444
 9122TIP3    H227331   0.011   4.808   2.103  0.5233  0.7440 -1.4200
 9123TIP3   OH227332   0.452   3.814   3.948  0.2879 -0.0692  0.1109
 9123TIP3    H127333   0.390   3.882   3.973 -0.5002 -0.9910  0.7207
 9123TIP3    H227334   0.421   3.735   3.993  2.3193 -0.4031  1.0342
 9124TIP3   OH227335   3.685   1.297   1.619 -0.5918  0.4446  0.1468
 9124TIP3    H127336   3.597   1.261   1.620 -0.5464  0.3263 -0.0652
 9124TIP3    H227337   3.742   1.223   1.637 -0.4750  0.3360 -0.6324
 9125TIP3   OH227338   2.991   0.790   3.962  0.5298 -0.4119 -0.4020
 9125TIP3    H127339   3.075   0.832   3.984  0.8635 -1.7737  1.0887
 9125TIP3    H227340   2.966   0.831   3.880  1.3894  1.8763  0.3727
 9126TIP3   OH227341   3.655   2.633   4.276 -0.1653  0.1741  0.3703
 9126TIP3    H127342   3.738   2.680   4.278  0.5960 -0.9205 -2.2541
 9126TIP3    H227343   3.671   2.553   4.327  0.6567 -0.3624 -0.6896
 9127TIP3   OH227344   4.865   0.866   1.992 -0.5447 -0.4784 -0.3454
 9127TIP3    H127345   4.961   0.874   1.988 -0.6498  1.1753 -0.3048
 9127TIP3    H227346   4.849   0.772   1.993  1.0304 -0.7950 -1.4706
 9128TIP3   OH227347   2.432   6.285   2.942 -0.3797  0.4440 -0.5474
 9128TIP3    H127348   2.465   6.282   2.852  3.3020  0.2619  0.6775
 9128TIP3    H227349   2.457   6.372   2.974 -1.2413  0.3404  0.4689
 9129TIP3   OH227350   3.034   0.225   2.734  0.2218  0.0853 -0.7334
 9129TIP3    H127351   3.061   0.303   2.783  1.4729 -1.5962  1.4008
 9129TIP3    H227352   2.938   0.230   2.734  0.1385  0.1788  1.9688
 9130TIP3   OH227353   5.706   1.818   4.762 -0.2603  0.2445  0.4086
 9130TIP3    H127354   5.682   1.726   4.766  1.2362 -0.2039 -0.0886
 9130TIP3    H227355   5.742   1.837   4.848 -0.2140  0.2620  0.3854
 9131TIP3   OH227356   0.988   5.247   2.873 -0.1566  0.2178 -0.4225
 9131TIP3    H127357   1.068   5.203   2.899  0.7346  2.1016  0.2094
 9131TIP3    H227358   0.919   5.182   2.886  1.3116 -1.7157 -1.7281
 9132TIP3   OH227359   3.328   5.563   1.292 -0.0590  0.1905  0.6297
 9132TIP3    H127360   3.366   5.530   1.373 -1.7188 -2.0684  0.6066
 9132TIP3    H227361   3.245   5.603   1.319 -1.6882 -2.4746 -0.0143
 9133TIP3   OH227362   6.242   6.626   4.708 -0.0862 -0.4465  0.0161
 9133TIP3    H127363   6.154   6.608   4.741 -0.5554  0.3164 -0.7742
 9133TIP3    H227364   6.299   6.607   4.782 -0.9274 -0.7882  0.5999
 9134TIP3   OH227365   6.007   1.328   5.795  0.0155  0.1827  0.3755
 9134TIP3    H127366   5.939   1.263   5.812  0.4910 -0.3270  0.3382
 9134TIP3    H227367   5.964   1.412   5.810 -1.1884 -0.0411 -1.6061
 9135TIP3   OH227368   0.150   0.340   4.947 -0.0336  0.4806 -0.1883
 9135TIP3    H127369   0.238   0.305   4.957  0.3623  1.0697 -1.3588
 9135TIP3    H227370   0.102   0.307   5.023  1.0728 -0.2012  0.2431
 9136TIP3   OH227371   0.170   6.154   2.068 -0.2356 -0.0882  0.6419
 9136TIP3    H127372   0.120   6.149   2.149 -1.2282 -0.3697  0.0169
 9136TIP3    H227373   0.229   6.228   2.082 -0.4350 -0.0870  1.5870
 9137TIP3   OH227374   4.454   6.465   1.788 -0.0768 -0.4678 -0.2823
 9137TIP3    H127375   4.443   6.414   1.868  1.9126 -0.7825 -0.1535
 9137TIP3    H227376   4.448   6.556   1.816 -3.0039 -0.5282 -0.4077
 9138TIP3   OH227377   5.596   5.998   4.156  0.7428 -0.4857  0.2890
 9138TIP3    H127378   5.592   6.042   4.071 -0.1750 -1.7510 -0.3597
 9138TIP3    H227379   5.561   6.062   4.218 -0.4463 -0.2231 -0.6144
 9139TIP3   OH227380   2.834   2.648   0.865  0.0770  0.4454  0.2848
 9139TIP3    H127381   2.883   2.574   0.903  2.0133  1.6061  0.1583
 9139TIP3    H227382   2.754   2.652   0.918  0.1215 -1.4464  0.5844
 9140TIP3   OH227383   5.177   3.616   4.512 -0.1741 -0.2392  0.6538
 9140TIP3    H127384   5.195   3.570   4.594  0.8020 -1.1682 -0.0610
 9140TIP3    H227385   5.263   3.628   4.472 -0.5899  0.6811  0.0066
 9141TIP3   OH227386   3.231   1.405   4.842 -0.1522  0.3505  0.2778
 9141TIP3    H127387   3.319   1.443   4.842 -0.5609  1.4924  2.5431
 9141TIP3    H227388   3.212   1.387   4.750  1.7238  1.7827 -0.4482
 9142TIP3   OH227389   4.066   4.460   5.551  0.3618  0.0264 -0.5701
 9142TIP3    H127390   4.143   4.457   5.608 -0.9917  0.7254  1.3931
 9142TIP3    H227391   4.029   4.372   5.556  0.5864 -0.0869 -0.8778
 9143TIP3   OH227392   1.383   6.055   2.358 -0.4558  0.2315 -0.1741
 9143TIP3    H127393   1.446   5.983   2.345  1.0457  1.0423  1.9700
 9143TIP3    H227394   1.327   6.025   2.429 -0.1893  0.9248  0.3405
 9144TIP3   OH227395   5.179   4.016   4.338  0.4381  0.6344 -0.5899
 9144TIP3    H127396   5.181   4.081   4.408 -2.9958  0.5250 -0.2421
 9144TIP3    H227397   5.235   3.945   4.369 -0.5259  0.8317  1.7790
 9145TIP3   OH227398   6.742   0.403   0.108  0.4926 -0.4062  0.2187
 9145TIP3    H127399   6.820   0.360   0.143  2.7925  2.5331 -0.8317
 9145TIP3    H227400   6.692   0.429   0.186  1.1682 -1.2737  0.9683
 9146TIP3   OH227401   3.668   2.980   2.383  0.2930 -0.3249 -0.0770
 9146TIP3    H127402   3.634   3.033   2.455  1.2386 -1.5005  1.2895
 9146TIP3    H227403   3.732   3.036   2.339  1.2367 -0.2657  1.3061
 9147TIP3   OH227404   0.237   5.318   3.018 -0.4140 -0.1987  0.0196
 9147TIP3    H127405   0.220   5.246   3.079 -0.4899  1.3363  1.9023
 9147TIP3    H227406   0.332   5.332   3.022 -0.7525  2.1615  2.6152
 9148TIP3   OH227407   5.288   0.102   0.614  0.1514 -0.5390  1.0014
 9148TIP3    H127408   5.337   0.064   0.541  0.7542  0.4528  0.8752
 9148TIP3    H227409   5.331   0.186   0.631 -0.8819 -0.1068  1.5566
 9149TIP3   OH227410   3.814   4.812   0.620  0.0722  0.1723 -0.1750
 9149TIP3    H127411   3.851   4.739   0.571 -0.1448 -0.2900  0.3470
 9149TIP3    H227412   3.889   4.870   0.635  0.7111 -0.9803  1.2881
 9150TIP3   OH227413   0.077   2.972   0.639 -0.1558  0.0871 -0.6477
 9150TIP3    H127414   0.035   3.058   0.637  0.8666  0.7306  1.9126
 9150TIP3    H227415   0.015   2.915   0.684 -0.3747 -0.2729 -1.3829
 9151TIP3   OH227416   1.632   0.027   2.126  0.4830 -0.1029 -0.0618
 9151TIP3    H127417   1.594   0.006   2.212  0.1471 -0.6018 -0.3280
 9151TIP3    H227418   1.716  -0.019   2.125  0.6777  0.2422  0.1598
 9152TIP3   OH227419   3.771   5.532   0.647  0.4008 -0.1142 -0.1581
 9152TIP3    H127420   3.804   5.611   0.604  1.6643 -1.4251 -1.7502
 9152TIP3    H227421   3.846   5.472   0.647 -0.2120 -0.9766  1.9607
 9153TIP3   OH227422   6.225   1.060   1.663 -0.1642 -0.8002  0.0745
 9153TIP3    H127423   6.319   1.053   1.682 -0.0146  1.3220  0.3859
 9153TIP3    H227424   6.210   1.154   1.653 -2.4525 -1.0133  0.9641
 9154TIP3   OH227425   1.887   4.332   0.227  0.4347  0.1340  0.4006
 9154TIP3    H127426   1.860   4.371   0.311  0.7956  0.0792  0.5426
 9154TIP3    H227427   1.865   4.239   0.236 -1.0030  0.3832 -0.1707
 9155TIP3   OH227428   1.379   6.016   2.031  0.1700 -0.8149  0.5789
 9155TIP3    H127429   1.401   6.061   2.112  0.3546 -0.8189  0.5307
 9155TIP3    H227430   1.457   5.965   2.009 -0.3688 -1.9080  1.1358
 9156TIP3   OH227431   0.029   2.305   1.256  0.2541 -0.2408 -0.3724
 9156TIP3    H127432   0.109   2.344   1.292 -0.1326  0.6562 -0.4588
 9156TIP3    H227433   0.046   2.300   1.162  0.1522  0.0958 -0.4102
 9157TIP3   OH227434   3.870   1.855   1.593  0.8153 -0.0263  0.2277
 9157TIP3    H127435   3.786   1.821   1.560  1.2543  0.2367 -1.2507
 9157TIP3    H227436   3.850   1.944   1.620  0.0849 -0.7714  2.2936
 9158TIP3   OH227437   4.968   5.779   1.007 -0.0907 -0.0132 -0.6151
 9158TIP3    H127438   4.915   5.700   0.995 -2.2308  1.2921 -0.3036
 9158TIP3    H227439   5.037   5.753   1.068 -0.4528 -1.7556 -0.9017
 9159TIP3   OH227440   3.600   0.568   0.791 -0.4949 -0.5374  0.4851
 9159TIP3    H127441   3.671   0.512   0.759  1.8809  2.5049  0.0165
 9159TIP3    H227442   3.540   0.576   0.717 -0.1648 -1.3086  0.1181
 9160TIP3   OH227443   6.057   2.535   1.118 -0.0170 -0.2151 -0.5709
 9160TIP3    H127444   6.044   2.616   1.167  0.2952 -1.6684  2.0889
 9160TIP3    H227445   6.098   2.563   1.036  0.6089  2.2472  0.5015
 9161TIP3   OH227446   1.853   2.148   3.980 -0.6381 -0.1739 -0.3837
 9161TIP3    H127447   1.911   2.113   3.913  0.0947 -1.6299  0.9446
 9161TIP3    H227448   1.798   2.074   4.006  0.2129 -0.1522  1.7337
 9162TIP3   OH227449   0.266   0.965   3.295 -0.2305 -0.0567  0.0446
 9162TIP3    H127450   0.309   0.912   3.362  0.3287 -0.0871 -0.3307
 9162TIP3    H227451   0.307   1.051   3.303 -0.2319 -0.0331 -0.1909
 9163TIP3   OH227452   2.190   4.165   2.653 -0.0266 -0.0479  0.0186
 9163TIP3    H127453   2.095   4.164   2.664  0.2448  1.0266  3.6067
 9163TIP3    H227454   2.222   4.103   2.718  1.7824 -0.3609 -1.1083
 9164TIP3   OH227455   0.780   4.181   1.293 -0.0663  0.1190  0.0892
 9164TIP3    H127456   0.850   4.198   1.230  0.2367 -2.1511 -0.2904
 9164TIP3    H227457   0.701   4.210   1.249  0.4280  0.9690 -0.2593
 9165TIP3   OH227458   7.053   1.678   5.324 -0.2448  0.6295 -0.1603
 9165TIP3    H127459   7.142   1.652   5.348 -0.1544  0.9078 -0.2001
 9165TIP3    H227460   7.063   1.763   5.282 -0.3217 -0.1226 -1.7908
 9166TIP3   OH227461   6.268   1.733   3.558 -0.3285 -0.6472 -0.3300
 9166TIP3    H127462   6.227   1.665   3.505  0.4415 -0.7492 -0.8021
 9166TIP3    H227463   6.282   1.805   3.497  1.5068 -1.1472 -0.5399
 9167TIP3   OH227464   5.693   2.903   3.721  0.4478  0.0100 -0.6122
 9167TIP3    H127465   5.775   2.863   3.751  0.8328  0.7518 -0.6748
 9167TIP3    H227466   5.665   2.847   3.648 -0.1651 -1.4305  0.6554
 9168TIP3   OH227467   4.099   5.148   2.139 -0.1361  0.0811 -0.3609
 9168TIP3    H127468   4.146   5.126   2.059  2.6324  0.8580  0.9182
 9168TIP3    H227469   4.078   5.064   2.179  1.8856 -0.3468 -0.0916
 9169TIP3   OH227470   6.055   1.957   1.457 -0.5201 -0.1290  0.6166
 9169TIP3    H127471   6.088   1.995   1.538  0.1038 -0.2592  0.4304
 9169TIP3    H227472   6.023   2.033   1.407 -0.6882 -0.0229  0.8849
 9170TIP3   OH227473   1.089   2.672   3.238  0.5814  0.4739  0.1255
 9170TIP3    H127474   1.116   2.621   3.161  1.7216  0.9754  0.1812
 9170TIP3    H227475   1.006   2.712   3.212  0.5011 -0.0916 -0.5168
 9171TIP3   OH227476   5.858   6.118   1.927 -0.7455 -0.0181  0.3711
 9171TIP3    H127477   5.880   6.085   2.014 -0.9413 -0.8998  0.0986
 9171TIP3    H227478   5.798   6.191   1.943 -0.2840  0.2365  0.9895
 9172TIP3   OH227479   3.346   2.247   3.918  0.2499 -0.3932  0.5329
 9172TIP3    H127480   3.280   2.227   3.984  1.1720  0.7142  1.8303
 9172TIP3    H227481   3.390   2.163   3.902  0.0926 -0.6573  1.4341
 9173TIP3   OH227482   4.462   5.818   3.992 -0.2784 -0.6713  0.4798
 9173TIP3    H127483   4.405   5.801   3.917 -0.1642  0.0106  0.2280
 9173TIP3    H227484   4.515   5.739   4.001  1.4576  0.1558 -1.7122
 9174TIP3   OH227485   5.163   1.640   4.549 -0.1601 -0.5301 -0.4935
 9174TIP3    H127486   5.138   1.732   4.553  0.2351 -0.4665  1.7249
 9174TIP3    H227487   5.115   1.605   4.473 -1.7135  1.0750 -0.3068
 9175TIP3   OH227488   2.179   4.844   3.660 -0.0734  0.2308  0.1202
 9175TIP3    H127489   2.093   4.868   3.625 -0.5500 -0.8292  0.5060
 9175TIP3    H227490   2.234   4.921   3.645 -0.7259  0.4390 -1.3696
 9176TIP3   OH227491   2.494   6.342   3.874  0.1613 -0.2480 -0.1325
 9176TIP3    H127492   2.404   6.341   3.841  0.4727  1.3116 -1.1447
 9176TIP3    H227493   2.487   6.378   3.963 -0.2175 -0.0912 -0.2239
 9177TIP3   OH227494   5.549   0.864   3.102 -0.7191 -0.4805  0.0966
 9177TIP3    H127495   5.530   0.940   3.157 -2.2263 -1.2248  0.6464
 9177TIP3    H227496   5.598   0.805   3.160 -3.4172 -1.8355  1.1877
 9178TIP3   OH227497   0.998   5.881   4.550  0.5661 -0.1913 -0.4528
 9178TIP3    H127498   1.003   5.955   4.489 -0.1469 -0.7354 -1.1922
 9178TIP3    H227499   0.954   5.917   4.627 -0.0072  0.1113 -0.9051
 9179TIP3   OH227500   7.154   1.571   1.587  0.2354  0.3083 -0.5049
 9179TIP3    H127501   7.192   1.513   1.653  0.2180 -0.9678 -1.6001
 9179TIP3    H227502   7.095   1.628   1.638 -0.2385 -1.0355  0.5121
 9180TIP3   OH227503   4.306   0.936   3.111 -0.0274 -0.9840  0.4656
 9180TIP3    H127504   4.234   0.997   3.124  0.2802 -0.8855  1.8869
 9180TIP3    H227505   4.331   0.910   3.200  3.8537  1.5062  0.3130
 9181TIP3   OH227506   4.872   3.845   3.218  0.6715 -0.3231 -0.0281
 9181TIP3    H127507   4.859   3.795   3.299  0.7733  1.9800  1.4988
 9181TIP3    H227508   4.801   3.909   3.218  0.6972 -0.2698 -1.7597
 9182TIP3   OH227509   5.720   1.097   2.715  0.4755  0.6648 -0.0762
 9182TIP3    H127510   5.764   1.181   2.720 -0.0065  0.8758  1.0759
 9182TIP3    H227511   5.789   1.032   2.729  0.3809  1.0151  2.6328
 9183TIP3   OH227512   0.571   3.221   4.649 -0.1437 -0.2787  0.6759
 9183TIP3    H127513   0.536   3.138   4.681  0.8951 -0.3770  1.6325
 9183TIP3    H227514   0.582   3.274   4.728 -0.2993  0.5798  0.1348
 9184TIP3   OH227515   6.470   0.319   0.753  0.3462  0.3649 -0.0288
 9184TIP3    H127516   6.442   0.374   0.826 -0.3919  0.7114 -0.5613
 9184TIP3    H227517   6.423   0.353   0.677  0.9574 -0.1105 -0.6381
 9185TIP3   OH227518   3.116   1.238   3.125  0.0675 -0.0300  0.1020
 9185TIP3    H127519   3.202   1.231   3.167  0.3299  1.8893 -0.0568
 9185TIP3    H227520   3.135   1.242   3.031 -0.4325 -2.7291 -0.2036
 9186TIP3   OH227521   4.953   0.374   4.346 -0.4277 -0.0358  0.2382
 9186TIP3    H127522   4.953   0.469   4.355 -1.3409 -0.0564  0.6019
 9186TIP3    H227523   5.044   0.348   4.357 -0.5610  0.5154  3.5655
 9187TIP3   OH227524   1.957   5.014   0.669  0.5457  0.1118  0.2407
 9187TIP3    H127525   2.030   4.956   0.649 -0.4818 -1.0374 -0.3376
 9187TIP3    H227526   1.998   5.094   0.702  1.9950 -1.2313  1.8870
 9188TIP3   OH227527   4.538   5.018   5.548  0.5056  0.7235  0.0577
 9188TIP3    H127528   4.623   5.061   5.541  0.5614  0.6438  0.2304
 9188TIP3    H227529   4.508   5.008   5.458  1.0427  0.0159 -0.0529
 9189TIP3   OH227530   1.949   6.361   0.814 -0.1247 -0.0741  0.5590
 9189TIP3    H127531   1.857   6.388   0.823  0.3456  1.5161  1.0065
 9189TIP3    H227532   1.975   6.335   0.902 -0.1076 -0.3758  0.4641
 9190TIP3   OH227533   4.853   0.214   4.156  0.2193  0.1867 -0.1831
 9190TIP3    H127534   4.885   0.272   4.225  2.0019  0.4614 -1.1881
 9190TIP3    H227535   4.870   0.262   4.075 -2.5162  0.1888 -0.8289
 9191TIP3   OH227536   2.893   4.138   0.366 -0.3427  0.3102 -0.6414
 9191TIP3    H127537   2.816   4.144   0.424  0.5468  0.5690  0.5496
 9191TIP3    H227538   2.857   4.148   0.278 -1.7529 -0.1482 -0.1567
 9192TIP3   OH227539   4.207   4.876   5.084  0.4923 -0.8947  0.2703
 9192TIP3    H127540   4.292   4.832   5.096  0.6033 -0.9394 -0.6130
 9192TIP3    H227541   4.146   4.804   5.067  0.1463 -0.9142  1.5144
 9193TIP3   OH227542   6.474   1.150   2.419  0.8873 -0.3282  0.1030
 9193TIP3    H127543   6.436   1.102   2.345  0.1620  1.0247 -0.4192
 9193TIP3    H227544   6.534   1.087   2.459 -1.6657 -2.4780  0.8109
 9194TIP3   OH227545   5.492   3.041   3.362 -0.0876  0.0376 -0.3713
 9194TIP3    H127546   5.568   3.002   3.319  0.7165  1.0084  0.1352
 9194TIP3    H227547   5.489   3.131   3.330  0.2627  0.6476  1.2279
 9195TIP3   OH227548   1.267   3.943   0.804 -0.0395 -0.6831  0.2274
 9195TIP3    H127549   1.320   3.914   0.730 -0.0603 -0.2151  0.0248
 9195TIP3    H227550   1.274   3.872   0.868 -0.7475 -1.5157 -0.5803
 9196TIP3   OH227551   5.928   6.282   2.430  0.6077 -0.2127 -0.3441
 9196TIP3    H127552   5.971   6.367   2.426 -1.5801  0.9251 -1.0533
 9196TIP3    H227553   5.912   6.268   2.524  0.1985  0.6111 -0.2787
 9197TIP3   OH227554   1.474   1.954   2.829 -0.3477  0.4265 -0.2388
 9197TIP3    H127555   1.397   1.963   2.772 -0.3469 -0.5822 -0.4220
 9197TIP3    H227556   1.536   1.903   2.776 -0.1430 -0.0661  0.4659
 9198TIP3   OH227557   4.676   1.703   4.614  0.2855 -0.2143 -0.0578
 9198TIP3    H127558   4.675   1.608   4.601 -0.5939 -0.6378  2.5220
 9198TIP3    H227559   4.606   1.719   4.676 -0.0591  2.2632 -0.9780
 9199TIP3   OH227560   5.414   3.743   4.823  0.1460 -0.1591 -0.4329
 9199TIP3    H127561   5.430   3.800   4.748  2.7975 -1.0484 -0.6736
 9199TIP3    H227562   5.497   3.695   4.834 -0.3222 -0.4339  2.7526
 9200TIP3   OH227563   2.546   3.129   3.083 -0.3789 -0.1170  0.1988
 9200TIP3    H127564   2.467   3.124   3.136 -1.1107 -1.2670 -0.9296
 9200TIP3    H227565   2.590   3.045   3.098 -0.0625 -0.0279 -0.2098
 9201TIP3   OH227566   2.659   0.616   4.458  0.3116  0.1412 -0.0172
 9201TIP3    H127567   2.572   0.647   4.434 -0.0741 -0.5762  0.4547
 9201TIP3    H227568   2.679   0.661   4.540  0.8905  1.2088 -0.7084
 9202TIP3   OH227569   3.037   1.344   1.412 -0.0649  0.4727 -0.2091
 9202TIP3    H127570   2.946   1.372   1.422 -0.9228 -1.7498 -1.1421
 9202TIP3    H227571   3.034   1.273   1.348  2.5330  1.2125 -1.3306
 9203TIP3   OH227572   3.045   3.794   5.646  0.6616  0.2098 -0.2132
 9203TIP3    H127573   3.138   3.814   5.645  0.6666  0.5504  1.7687
 9203TIP3    H227574   3.041   3.701   5.669  0.5220 -0.0345 -1.2115
 9204TIP3   OH227575   1.770   0.619   2.555 -0.0215  0.0521 -0.5028
 9204TIP3    H127576   1.760   0.559   2.481 -2.5187  1.2348 -1.2177
 9204TIP3    H227577   1.750   0.566   2.632  0.2529 -0.6185 -0.8873
 9205TIP3   OH227578   1.509   5.324   0.237  0.4999  0.3753 -0.0104
 9205TIP3    H127579   1.534   5.410   0.270  0.9987 -0.0780  0.8135
 9205TIP3    H227580   1.537   5.324   0.145  0.6635  1.0109  0.0347
 9206TIP3   OH227581   2.465   5.855   3.053  0.2599  0.1399 -0.1241
 9206TIP3    H127582   2.377   5.892   3.045  0.6857  1.0186 -0.9021
 9206TIP3    H227583   2.523   5.929   3.037  1.1599 -0.1643  1.5628
 9207TIP3   OH227584   6.386   0.410   2.969 -0.2231 -0.5337  0.6637
 9207TIP3    H127585   6.340   0.357   3.034 -1.9456 -0.8191 -0.7389
 9207TIP3    H227586   6.359   0.500   2.989  3.4928  0.1924  3.7079
 9208TIP3   OH227587   3.132   5.158   0.252 -0.0429 -0.2509  0.0939
 9208TIP3    H127588   3.070   5.160   0.179  0.6707  2.0424 -0.5279
 9208TIP3    H227589   3.104   5.229   0.310  0.3372 -1.0240  1.2656
 9209TIP3   OH227590   1.330   0.947   2.388 -0.2599 -0.2465  0.1750
 9209TIP3    H127591   1.356   0.937   2.297 -1.6783  1.0340 -0.4109
 9209TIP3    H227592   1.411   0.939   2.438  0.3611 -2.3796 -1.0533
 9210TIP3   OH227593   3.016   1.122   4.418  0.7528  0.0947  0.6440
 9210TIP3    H127594   2.988   1.104   4.328  0.1959  2.3859  0.2867
 9210TIP3    H227595   2.950   1.079   4.473 -0.5588  1.0405 -0.1198
 9211TIP3   OH227596   0.066   0.710   5.340 -0.0257 -0.1324  0.4729
 9211TIP3    H127597   0.057   0.648   5.412 -1.3523 -0.0506  0.4007
 9211TIP3    H227598   0.144   0.681   5.292 -0.4724 -1.5848  0.5858
 9212TIP3   OH227599   1.262   2.332   3.023  0.2359  0.1889  0.5082
 9212TIP3    H127600   1.341   2.279   3.031  0.6670  0.7220 -0.1451
 9212TIP3    H227601   1.208   2.305   3.097  1.3144  0.3107  1.3646
 9213TIP3   OH227602   3.791   1.608   2.868 -0.3939 -0.2497  0.0145
 9213TIP3    H127603   3.792   1.693   2.825  1.4378 -0.5164 -0.5593
 9213TIP3    H227604   3.753   1.624   2.954  0.5726  1.2901  0.1825
 9214TIP3   OH227605   6.071   5.131   4.020  0.0327 -0.2864 -0.0686
 9214TIP3    H127606   6.003   5.070   4.048 -0.6687  0.4815 -0.0343
 9214TIP3    H227607   6.133   5.134   4.094 -0.5527 -0.0687  0.4269
 9215TIP3   OH227608   1.520   3.804   5.162 -0.1281  0.2132 -0.0346
 9215TIP3    H127609   1.598   3.776   5.113 -0.0915  1.1826 -0.5562
 9215TIP3    H227610   1.473   3.722   5.179  1.9464 -0.6717  2.0094
 9216TIP3   OH227611   4.958   5.029   5.322  0.0393 -0.3610  0.2155
 9216TIP3    H127612   5.000   4.943   5.316 -0.8300 -0.9334  1.6774
 9216TIP3    H227613   5.026   5.092   5.299  0.7359 -1.4185 -0.7260
 9217TIP3   OH227614   6.850   6.561   2.179  0.3857 -0.2731  0.1534
 9217TIP3    H127615   6.850   6.540   2.273  0.0131  0.8887  0.4294
 9217TIP3    H227616   6.918   6.628   2.171 -2.5661  3.0432  0.4455
 9218TIP3   OH227617   0.349   1.567   5.766 -0.1181 -0.1357 -0.0998
 9218TIP3    H127618   0.282   1.636   5.766  0.9769  1.1050  3.2976
 9218TIP3    H227619   0.310   1.496   5.818  0.9532  0.4208  1.5283
 9219TIP3   OH227620   0.943   4.861   5.400  0.4516 -0.0891 -0.4627
 9219TIP3    H127621   0.858   4.830   5.430 -0.3979  0.4713 -2.1448
 9219TIP3    H227622   0.968   4.928   5.464 -1.5645  1.4866 -1.2102
 9220TIP3   OH227623   4.731   3.192   5.211  0.7236  0.6635 -1.0967
 9220TIP3    H127624   4.719   3.129   5.281  1.3742  1.0887 -0.5879
 9220TIP3    H227625   4.693   3.150   5.134 -2.4531  1.2655  0.0098
 9221TIP3   OH227626   1.546   4.167   3.876 -0.1605 -0.3659  0.1958
 9221TIP3    H127627   1.616   4.103   3.869 -0.2874 -0.7472  1.8864
 9221TIP3    H227628   1.587   4.252   3.858  0.6973 -0.6064  0.9873
 9222TIP3   OH227629   1.863   0.918   2.691 -0.2612  0.1248 -0.0790
 9222TIP3    H127630   1.883   0.843   2.747 -3.1750 -2.5648 -2.3562
 9222TIP3    H227631   1.938   0.926   2.633 -0.0511 -1.2866 -0.0242
 9223TIP3   OH227632   6.394   1.048   4.068  0.5196 -0.2484  0.0152
 9223TIP3    H127633   6.482   1.030   4.035 -0.1060 -0.9211 -1.3524
 9223TIP3    H227634   6.376   0.974   4.126  1.6742  1.0086  2.1060
 9224TIP3   OH227635   5.954   0.186   1.836 -0.3366 -0.1747  0.2016
 9224TIP3    H127636   5.938   0.105   1.788  0.8078  0.1444 -0.7698
 9224TIP3    H227637   6.026   0.164   1.896 -0.9853 -0.2494  0.9780
 9225TIP3   OH227638   5.055   0.090   1.748 -0.4105  0.2051 -0.0478
 9225TIP3    H127639   4.970   0.047   1.759  0.1100 -1.3024 -1.3691
 9225TIP3    H227640   5.117   0.033   1.794  0.1448  0.1203 -0.8723
 9226TIP3   OH227641   2.307   2.739   5.739  0.0039  0.1616  0.2185
 9226TIP3    H127642   2.231   2.724   5.683 -0.1809 -0.9454  0.7415
 9226TIP3    H227643   2.276   2.796   5.809 -0.7699 -1.4344  1.2428
 9227TIP3   OH227644   6.769   5.693   2.165 -0.2531  0.0636  0.0844
 9227TIP3    H127645   6.694   5.710   2.108 -0.8827 -0.0288  0.8667
 9227TIP3    H227646   6.742   5.620   2.220  1.1881 -1.3587 -0.9918
 9228TIP3   OH227647   2.520   5.570   2.296 -0.5605 -0.9861  0.5872
 9228TIP3    H127648   2.520   5.616   2.380 -0.6585 -0.7714  0.4688
 9228TIP3    H227649   2.476   5.630   2.235  1.1852 -0.3043 -0.0720
 9229TIP3   OH227650   1.924   5.862   4.165  0.1824 -0.4543 -0.1244
 9229TIP3    H127651   2.019   5.859   4.177  0.1475  0.3162  0.4221
 9229TIP3    H227652   1.889   5.859   4.254 -0.3312 -1.2560 -0.3471
 9230TIP3   OH227653   2.619   1.194   3.492 -0.1005 -0.6777  0.6998
 9230TIP3    H127654   2.553   1.246   3.537 -0.1270 -0.3018  0.2373
 9230TIP3    H227655   2.672   1.156   3.562 -0.5613 -0.6565  1.0604
 9231TIP3   OH227656   7.096   5.985   1.595  0.2318  0.0496 -0.1433
 9231TIP3    H127657   7.146   5.958   1.518 -1.3807 -0.2182 -1.1412
 9231TIP3    H227658   7.153   6.049   1.639  2.1925 -1.5588 -0.2071
 9232TIP3   OH227659   2.925   4.510   0.836  0.0234 -0.6140 -0.6101
 9232TIP3    H127660   3.006   4.529   0.788 -0.2130 -2.3832 -1.8237
 9232TIP3    H227661   2.876   4.452   0.777  0.5742 -4.5738  2.4501
 9233TIP3   OH227662   3.990   5.047   5.149  0.6151 -0.4011 -0.4269
 9233TIP3    H127663   4.009   5.058   5.242 -0.0645 -0.2444 -0.2978
 9233TIP3    H227664   4.045   4.974   5.121  3.8016  1.9698 -0.8428
 9234TIP3   OH227665   3.634   2.451   1.564 -0.1796 -0.5600  0.3501
 9234TIP3    H127666   3.630   2.383   1.631 -0.4712 -0.4607  0.4341
 9234TIP3    H227667   3.571   2.422   1.497  0.1868 -0.7146  0.0661
 9235TIP3   OH227668   5.165   0.879   4.751  0.0282 -0.5215  0.0600
 9235TIP3    H127669   5.116   0.937   4.693 -0.4923 -0.2577  0.7498
 9235TIP3    H227670   5.132   0.899   4.838  2.5152  0.8997  0.7827
 9236TIP3   OH227671   0.664   0.022   4.110  0.2395  0.8052  1.2505
 9236TIP3    H127672   0.671   0.101   4.056  0.9796 -0.0225  0.0628
 9236TIP3    H227673   0.737  -0.033   4.080 -0.1048 -0.2158  2.2371
 9237TIP3   OH227674   1.942   0.665   3.760 -0.2880  0.6520  0.2693
 9237TIP3    H127675   1.895   0.591   3.721  1.2270  1.4740 -3.6970
 9237TIP3    H227676   1.896   0.743   3.728  0.6346  1.4280  0.7697
 9238TIP3   OH227677   7.132   5.950   0.238 -0.3076  0.3377  0.2434
 9238TIP3    H127678   7.185   5.953   0.159 -0.9955  1.2879 -0.1955
 9238TIP3    H227679   7.046   5.922   0.208 -0.5936  0.7636  0.6426
 9239TIP3   OH227680   3.183   5.245   1.509  0.1733  0.3497  0.4246
 9239TIP3    H127681   3.161   5.190   1.434  1.0470  2.4419 -1.4763
 9239TIP3    H227682   3.207   5.183   1.578 -1.1174 -1.6657 -0.8264
 9240TIP3   OH227683   6.989   0.038   5.276  0.3859  0.1821 -0.6536
 9240TIP3    H127684   6.923   0.102   5.249 -0.0021 -0.6229 -1.6499
 9240TIP3    H227685   7.071   0.073   5.242  0.3425  0.6785 -0.2712
 9241TIP3   OH227686   2.623   0.557   3.495  0.3489  0.3829  0.3568
 9241TIP3    H127687   2.530   0.552   3.473 -0.0568  0.8917  1.8353
 9241TIP3    H227688   2.627   0.535   3.588  1.6888  0.5341  0.3556
 9242TIP3   OH227689   5.655   0.195   1.692 -0.3874 -0.2709  0.6205
 9242TIP3    H127690   5.706   0.268   1.727  0.4621 -0.8365  0.6027
 9242TIP3    H227691   5.572   0.198   1.739 -0.2603  0.5418  0.8039
 9243TIP3   OH227692   0.564   2.273   0.522 -0.3917  0.2236  0.1483
 9243TIP3    H127693   0.646   2.318   0.501 -0.1222  1.4016  3.2367
 9243TIP3    H227694   0.519   2.332   0.583 -2.4667 -1.4519  0.3661
 9244TIP3   OH227695   4.274   5.358   1.392  0.3705  0.2538  0.2380
 9244TIP3    H127696   4.357   5.361   1.344 -0.8062  0.7272 -1.9390
 9244TIP3    H227697   4.247   5.450   1.397 -0.1172  0.0835  0.7305
 9245TIP3   OH227698   6.342   3.646   5.017 -0.2884 -0.5616 -0.2867
 9245TIP3    H127699   6.261   3.672   5.061  0.3765 -1.6438  1.7109
 9245TIP3    H227700   6.376   3.727   4.980 -1.5047  0.1839  0.1666
 9246TIP3   OH227701   2.907   5.314   0.611  0.9944 -0.0959 -0.0272
 9246TIP3    H127702   2.913   5.283   0.521  0.7493  0.2539 -0.1648
 9246TIP3    H227703   2.862   5.243   0.657 -1.7711  0.9881 -0.8324
 9247TIP3   OH227704   3.867   3.417   0.300  0.0748 -0.0367 -0.3042
 9247TIP3    H127705   3.827   3.396   0.215 -1.1911  0.3727  0.1824
 9247TIP3    H227706   3.872   3.512   0.301  0.1514 -0.0451  0.0610
 9248TIP3   OH227707   4.207   1.676   2.297  0.5208  0.4491  0.1134
 9248TIP3    H127708   4.278   1.645   2.240 -0.1081  1.2409 -1.1498
 9248TIP3    H227709   4.170   1.596   2.334  0.7500 -0.1236 -0.8490
 9249TIP3   OH227710   3.163   0.691   3.711 -0.0021  0.0244  0.1114
 9249TIP3    H127711   3.209   0.613   3.742  0.3275 -0.3216 -1.1983
 9249TIP3    H227712   3.232   0.749   3.681 -0.3529 -0.2719 -1.3558
 9250TIP3   OH227713   2.980   1.005   1.999 -0.2215  0.0248 -0.2181
 9250TIP3    H127714   2.956   1.092   1.967  0.4573  0.1075 -0.5336
 9250TIP3    H227715   3.076   1.008   2.006 -0.2020 -0.6539 -0.1004
 9251TIP3   OH227716   2.436   0.348   4.496  0.1403 -0.1497  0.6903
 9251TIP3    H127717   2.456   0.402   4.419  1.2948  0.4347  1.3842
 9251TIP3    H227718   2.393   0.408   4.557  0.1891 -0.3589  0.9334
 9252TIP3   OH227719   2.549   0.744   0.180  0.2151  0.2585 -0.4825
 9252TIP3    H127720   2.497   0.717   0.104  1.3905 -1.0194 -0.8705
 9252TIP3    H227721   2.555   0.665   0.234  0.1871  0.9041  0.4935
 9253TIP3   OH227722   1.584   2.458   3.608 -0.2157  0.4149  0.1615
 9253TIP3    H127723   1.660   2.413   3.645  1.1811  1.2279 -1.5702
 9253TIP3    H227724   1.535   2.488   3.684  0.5747 -1.1312  1.3351
 9254TIP3   OH227725   5.727   5.944   3.784  0.2361  0.3424  0.4124
 9254TIP3    H127726   5.667   6.010   3.819 -0.6496 -0.4108  0.3794
 9254TIP3    H227727   5.788   5.993   3.729 -0.2215  1.1647  0.6188
 9255TIP3   OH227728   3.174   2.623   3.300 -0.1574 -0.1519 -0.3590
 9255TIP3    H127729   3.164   2.640   3.394  1.0260 -0.6496 -0.1327
 9255TIP3    H227730   3.094   2.576   3.276 -0.0376 -0.8612  0.5993
 9256TIP3   OH227731   4.254   1.119   0.257  0.3756  0.0835 -0.4425
 9256TIP3    H127732   4.333   1.135   0.205  0.3863 -1.1537 -0.8427
 9256TIP3    H227733   4.181   1.137   0.198  0.3449  0.8064 -0.2012
 9257TIP3   OH227734   6.667   3.303   4.026 -0.1368 -0.3806  0.2980
 9257TIP3    H127735   6.593   3.283   4.083  0.7949  0.1192  1.7462
 9257TIP3    H227736   6.680   3.397   4.035  2.2963 -0.7714  2.2723
 9258TIP3   OH227737   4.470   3.869   3.709 -0.0749 -0.3725  0.3931
 9258TIP3    H127738   4.509   3.782   3.714  2.0382  0.4742 -0.3256
 9258TIP3    H227739   4.543   3.930   3.721 -1.0706  1.3206 -1.4177
 9259TIP3   OH227740   4.779   0.453   2.476 -0.5889 -0.3053 -0.3790
 9259TIP3    H127741   4.760   0.359   2.484  0.8352 -0.5310  0.6949
 9259TIP3    H227742   4.698   0.496   2.503 -0.5906 -1.2357  1.2460
 9260TIP3   OH227743   1.627   6.523   4.328  0.0077  0.7126  0.5277
 9260TIP3    H127744   1.659   6.607   4.361 -0.9794  0.7163  1.5461
 9260TIP3    H227745   1.533   6.525   4.345  0.2539 -1.5158  2.7945
 9261TIP3   OH227746   5.542   3.208   4.986 -0.0979  0.1403 -0.4509
 9261TIP3    H127747   5.552   3.136   4.924  1.3124  0.3195 -0.4583
 9261TIP3    H227748   5.631   3.230   5.012 -0.6078  0.6891  0.9332
 9262TIP3   OH227749  -0.022   3.288   3.883 -0.1252 -0.2904  0.3677
 9262TIP3    H127750   0.036   3.361   3.904  0.1760 -0.3750 -0.1482
 9262TIP3    H227751   0.027   3.237   3.818 -1.1703  0.1697 -0.8168
 9263TIP3   OH227752   5.126   1.538   2.533  0.2505  0.2443  0.1321
 9263TIP3    H127753   5.145   1.446   2.553  0.9548 -0.0385 -1.6182
 9263TIP3    H227754   5.057   1.533   2.466  0.8961  0.9301 -0.6119
 9264TIP3   OH227755   5.819  -0.033   3.436  0.1964  0.0458 -0.3909
 9264TIP3    H127756   5.890  -0.018   3.499 -0.1641 -0.7203  0.2246
 9264TIP3    H227757   5.784   0.054   3.417 -0.0945  0.2538  0.9697
 9265TIP3   OH227758   2.625   5.465   0.574  0.0771  0.2466 -0.3360
 9265TIP3    H127759   2.720   5.468   0.564  0.1507 -0.9409 -0.1584
 9265TIP3    H227760   2.591   5.500   0.492  0.6814 -0.7843 -1.0547
 9266TIP3   OH227761   5.702   4.469   0.245  0.1983  0.2053  0.3755
 9266TIP3    H127762   5.722   4.515   0.327 -0.7424 -0.3782  0.9483
 9266TIP3    H227763   5.689   4.378   0.271  0.2121 -0.0457 -0.4779
 9267TIP3   OH227764   4.941   5.305   2.763 -0.7906 -0.0602  0.5402
 9267TIP3    H127765   5.010   5.241   2.747 -1.4323 -0.5452 -0.3764
 9267TIP3    H227766   4.982   5.372   2.818  0.6887  0.1769 -0.8068
 9268TIP3   OH227767   6.026   2.732   3.296 -0.3926 -0.1809 -0.1197
 9268TIP3    H127768   6.049   2.782   3.375 -1.0020 -0.3310  0.1595
 9268TIP3    H227769   6.006   2.798   3.231 -0.2623 -0.0577 -0.0366
 9269TIP3   OH227770   0.728   6.421   5.832 -0.2948  0.1963 -0.3174
 9269TIP3    H127771   0.684   6.499   5.799  0.3029  1.2992  1.3337
 9269TIP3    H227772   0.784   6.454   5.903  1.0743 -1.5410 -0.5284
 9270TIP3   OH227773   4.984   6.252   0.619  0.0639 -0.3098  0.7889
 9270TIP3    H127774   5.005   6.345   0.627 -0.3909 -0.1577  0.2502
 9270TIP3    H227775   4.890   6.250   0.600  0.0813 -0.8810  0.7501
 9271TIP3   OH227776   6.961   0.930   0.148  0.0620 -0.0855  0.0825
 9271TIP3    H127777   7.036   0.873   0.165 -0.2064 -0.0209  1.6429
 9271TIP3    H227778   6.950   0.980   0.229  1.2750  3.4037 -1.6815
 9272TIP3   OH227779   6.016   5.151   5.180  0.3950 -0.6341  0.3728
 9272TIP3    H127780   6.008   5.170   5.086  1.5276  1.2045  0.6111
 9272TIP3    H227781   5.926   5.137   5.209 -0.1327  0.4554 -0.6654
 9273TIP3   OH227782   1.984   6.768   1.847 -0.1349  0.4762  0.5044
 9273TIP3    H127783   1.973   6.694   1.787 -0.1740  0.7534  0.1664
 9273TIP3    H227784   2.066   6.749   1.893  0.9772  1.2387 -1.0706
 9274TIP3   OH227785   3.797   2.092   3.306 -0.5727  0.6415  0.3097
 9274TIP3    H127786   3.717   2.104   3.254 -0.7694  1.2512  0.7522
 9274TIP3    H227787   3.769   2.107   3.397  0.5225  3.2492  0.2778
 9275TIP3   OH227788   1.743   0.574   0.142  0.7253 -0.1968  0.1787
 9275TIP3    H127789   1.688   0.497   0.156  0.3589  0.1706  0.8359
 9275TIP3    H227790   1.694   0.628   0.081  1.7867 -1.2653 -1.6932
 9276TIP3   OH227791   3.309   4.442   3.556  0.0555  0.7947  0.0965
 9276TIP3    H127792   3.257   4.363   3.572 -1.3859  1.2150 -2.0417
 9276TIP3    H227793   3.329   4.475   3.643 -1.2403 -0.7080  1.0292
 9277TIP3   OH227794   1.186   5.807   3.694 -0.4415 -0.1815  0.0676
 9277TIP3    H127795   1.115   5.762   3.738  0.7934 -1.6941  0.6174
 9277TIP3    H227796   1.165   5.800   3.601 -0.6705 -1.2503  0.1888
 9278TIP3   OH227797   3.633   4.912   0.794  0.2422  0.3718 -0.1276
 9278TIP3    H127798   3.570   4.847   0.826  0.6620  0.5809  1.1886
 9278TIP3    H227799   3.671   4.872   0.715 -0.0814 -0.6302  0.2104
 9279TIP3   OH227800   2.822   3.033   5.217  0.4480  0.6443 -0.0238
 9279TIP3    H127801   2.893   3.068   5.270 -1.6410  1.7040  2.2488
 9279TIP3    H227802   2.849   2.943   5.197  3.5535  1.7846 -1.5595
 9280TIP3   OH227803   4.478   2.683   1.850  0.2057  0.5253  0.5313
 9280TIP3    H127804   4.454   2.659   1.940  1.0472 -0.8421  0.4117
 9280TIP3    H227805   4.459   2.605   1.799  2.7554  0.1366  0.0688
 9281TIP3   OH227806   2.519   0.340   1.057 -0.0233 -0.0515 -0.1002
 9281TIP3    H127807   2.531   0.246   1.042 -1.1180 -0.0127 -1.4991
 9281TIP3    H227808   2.602   0.379   1.029  0.7101 -0.6330  1.1765
 9282TIP3   OH227809   7.010   4.340   4.918 -0.0577  1.1345 -0.2740
 9282TIP3    H127810   6.999   4.281   4.844 -0.1398  0.1432  0.5081
 9282TIP3    H227811   7.054   4.417   4.881  1.0592  0.1346 -1.1147
 9283TIP3   OH227812   1.967   4.413   3.417  0.5024  0.2114 -0.2454
 9283TIP3    H127813   2.016   4.401   3.335  2.0056  1.9170  0.3202
 9283TIP3    H227814   2.026   4.381   3.485 -0.4289 -0.4993  0.2449
 9284TIP3   OH227815   5.762   6.200   3.436 -0.0963  0.2370 -0.3482
 9284TIP3    H127816   5.772   6.168   3.346  0.5418 -0.3554 -0.0698
 9284TIP3    H227817   5.776   6.295   3.429 -1.4448  0.4058 -1.0869
 9285TIP3   OH227818   3.363   5.202   5.445 -0.1413  0.1339 -0.1668
 9285TIP3    H127819   3.407   5.280   5.478  0.1689 -0.3406  0.5804
 9285TIP3    H227820   3.371   5.208   5.350 -0.9850  1.4999 -0.1817
 9286TIP3   OH227821   2.065   5.112   3.169 -0.3400  0.2279  0.0068
 9286TIP3    H127822   2.071   5.143   3.079 -0.4333  0.7541  0.1785
 9286TIP3    H227823   2.127   5.038   3.173 -0.3761  0.1655 -0.4977
 9287TIP3   OH227824   3.890   6.328   2.247 -0.1284 -0.2401 -0.0402
 9287TIP3    H127825   3.847   6.279   2.176  1.0131 -0.8639 -0.3223
 9287TIP3    H227826   3.868   6.280   2.326 -0.5717 -0.1281 -0.0950
 9288TIP3   OH227827   0.396   3.836   5.008  0.3987 -0.3167  0.3889
 9288TIP3    H127828   0.385   3.798   5.095 -0.5453  0.2723  0.5436
 9288TIP3    H227829   0.373   3.766   4.948  1.6064 -0.9045  0.5840
 9289TIP3   OH227830   4.226   2.789   2.055  0.0483  0.1719  0.3611
 9289TIP3    H127831   4.284   2.800   2.130  1.3224  0.8662 -0.6950
 9289TIP3    H227832   4.227   2.695   2.038  0.8001  0.1590  0.4253
 9290TIP3   OH227833   6.567   1.119   4.922  0.5320 -0.0402  0.5951
 9290TIP3    H127834   6.511   1.098   4.847  2.4265  0.1767 -0.9860
 9290TIP3    H227835   6.539   1.205   4.951  1.1015  0.8250 -1.2735
 9291TIP3   OH227836   4.427   5.650   3.385  0.0442  0.0305 -0.3143
 9291TIP3    H127837   4.442   5.576   3.443  0.8101 -0.6662 -1.3644
 9291TIP3    H227838   4.351   5.695   3.422  1.6887  0.8311  2.4086
 9292TIP3   OH227839   0.404   5.213   2.401 -0.6067  0.6046 -0.0615
 9292TIP3    H127840   0.453   5.242   2.325 -0.2463 -0.4893 -0.2668
 9292TIP3    H227841   0.354   5.138   2.370  0.6966 -0.8178  1.0952
 9293TIP3   OH227842   2.909   4.703   3.141  0.1817 -0.1606  0.4453
 9293TIP3    H127843   2.892   4.612   3.117 -0.9007  0.4640 -1.3255
 9293TIP3    H227844   2.826   4.748   3.127  1.1671  1.4660 -0.5681
 9294TIP3   OH227845   4.435   2.216   0.578  0.0460 -0.1571  0.3703
 9294TIP3    H127846   4.507   2.231   0.639 -1.1392 -0.4001  1.8968
 9294TIP3    H227847   4.392   2.301   0.569  1.5471  0.4583 -2.0238
 9295TIP3   OH227848   4.165   6.227   1.908  0.4248 -0.0649  0.6621
 9295TIP3    H127849   4.204   6.224   1.995 -0.6138 -2.9466  1.1399
 9295TIP3    H227850   4.170   6.319   1.882  1.4088  0.7567  3.4473
 9296TIP3   OH227851   4.749   6.558   0.074 -0.1035 -0.0120 -0.4180
 9296TIP3    H127852   4.727   6.645   0.042  1.5973 -0.0105 -1.7232
 9296TIP3    H227853   4.844   6.557   0.079 -0.1224 -1.5494  0.3451
 9297TIP3   OH227854   5.581   5.559   2.317 -0.1673  0.1073  0.3256
 9297TIP3    H127855   5.615   5.613   2.246  1.5027 -1.1954  0.0613
 9297TIP3    H227856   5.506   5.513   2.280  0.0829  0.1909 -0.2935
 9298TIP3   OH227857   3.010   2.441   3.641  0.1283 -0.1301  0.5842
 9298TIP3    H127858   3.084   2.484   3.598 -0.2545  1.3832  1.3729
 9298TIP3    H227859   3.001   2.357   3.595  0.4503  0.9077 -1.5234
 9299TIP3   OH227860   0.880   0.793   5.785 -0.2776 -0.1823 -0.0418
 9299TIP3    H127861   0.915   0.707   5.807 -0.5607  0.0636  1.4201
 9299TIP3    H227862   0.795   0.798   5.828 -0.7998  0.3984 -1.0735
 9300TIP3   OH227863   1.172   2.524   0.622 -0.1595 -0.2400  0.0635
 9300TIP3    H127864   1.150   2.608   0.660 -0.6873 -0.9460  1.3784
 9300TIP3    H227865   1.249   2.494   0.670  1.2272  0.3217 -1.6938
 9301TIP3   OH227866   5.659   6.689   1.781 -0.2123 -0.0263  0.3412
 9301TIP3    H127867   5.628   6.777   1.803 -0.9397 -0.1932  0.0062
 9301TIP3    H227868   5.580   6.642   1.754  0.5180 -0.0413 -1.9229
 9302TIP3   OH227869   3.914   1.731   0.411 -0.7012 -0.4043 -0.0219
 9302TIP3    H127870   3.892   1.720   0.319 -1.3208  1.5237 -0.1618
 9302TIP3    H227871   3.929   1.825   0.421  3.0881 -0.9401  1.0662
 9303TIP3   OH227872   1.356   6.201   5.330 -1.2319 -0.0002 -0.5616
 9303TIP3    H127873   1.437   6.167   5.294 -1.2396  2.2877 -3.0053
 9303TIP3    H227874   1.383   6.259   5.401 -0.9434 -1.0395  0.2123
 9304TIP3   OH227875   1.152   3.122   3.987 -0.0434  0.0287  0.2672
 9304TIP3    H127876   1.161   3.055   3.920  1.0862  0.1735  0.2474
 9304TIP3    H227877   1.237   3.167   3.987 -1.0050  1.9496 -0.2595
 9305TIP3   OH227878   4.872   5.102   1.906 -0.2499  0.1061 -0.0920
 9305TIP3    H127879   4.902   5.107   1.815  3.3083  0.0420  0.9310
 9305TIP3    H227880   4.829   5.016   1.912  1.5789 -0.9733 -1.2268
 9306TIP3   OH227881   3.339   3.754   2.298 -0.0502  0.1856  0.3224
 9306TIP3    H127882   3.434   3.763   2.311 -0.3218  2.5675  1.1333
 9306TIP3    H227883   3.312   3.837   2.260 -1.8908 -0.2830  0.5286
 9307TIP3   OH227884   2.720   4.986   4.810  0.7367 -0.0223  0.4735
 9307TIP3    H127885   2.744   4.991   4.903  1.6909 -0.0702  0.2389
 9307TIP3    H227886   2.781   5.047   4.767 -1.1571  1.7438  0.1346
 9308TIP3   OH227887   0.802   1.903   0.186 -0.6866 -0.4042 -0.5049
 9308TIP3    H127888   0.829   1.915   0.277  0.9001  1.2903 -1.1442
 9308TIP3    H227889   0.880   1.869   0.142 -1.0054  0.1250 -1.5085
 9309TIP3   OH227890   0.806   6.026   0.463  0.1613  0.5374 -0.5705
 9309TIP3    H127891   0.758   5.944   0.471  1.9771 -0.5114  0.0038
 9309TIP3    H227892   0.897   6.004   0.482  0.9171  2.4526 -1.5792
 9310TIP3   OH227893   1.496   2.201   3.122  0.4565  0.3284  0.4640
 9310TIP3    H127894   1.573   2.253   3.146 -0.2291  1.2521  0.7129
 9310TIP3    H227895   1.460   2.171   3.205  2.4785 -3.1029  0.2960
 9311TIP3   OH227896   0.455   5.610   2.813 -0.1830 -0.2371  0.1351
 9311TIP3    H127897   0.408   5.650   2.739  0.1638 -1.2444 -0.6503
 9311TIP3    H227898   0.543   5.648   2.808 -0.5292  0.7051  0.8564
 9312TIP3   OH227899   2.335   6.118   5.124  0.4600  0.7284 -0.3123
 9312TIP3    H127900   2.353   6.042   5.179  0.0311  0.2495 -0.8171
 9312TIP3    H227901   2.245   6.105   5.094  0.5865  1.1284 -0.8901
 9313TIP3   OH227902   2.147   2.331   4.713  0.2233 -0.3233 -0.3303
 9313TIP3    H127903   2.179   2.241   4.699  0.4922 -0.4278  0.8138
 9313TIP3    H227904   2.176   2.353   4.802 -2.2912 -0.1658  0.5421
 9314TIP3   OH227905   4.819   2.520   4.494 -0.9170 -0.3198 -0.2329
 9314TIP3    H127906   4.820   2.424   4.495 -1.1707 -0.3171  0.5552
 9314TIP3    H227907   4.895   2.544   4.442  0.1042 -0.9269  0.9275
 9315TIP3   OH227908   5.158   4.506   5.369  0.6093 -0.1285  0.0138
 9315TIP3    H127909   5.062   4.507   5.375  0.5003  0.7447 -1.3722
 9315TIP3    H227910   5.177   4.445   5.298  1.0714 -0.1719  0.1727
 9316TIP3   OH227911   6.899   2.356   0.965 -0.6420 -0.3548  0.1457
 9316TIP3    H127912   6.839   2.282   0.979  0.4072 -1.3637 -0.4924
 9316TIP3    H227913   6.933   2.375   1.053  3.2434 -4.3418 -0.1037
 9317TIP3   OH227914   6.344   0.415   1.844  0.3802  0.1989  0.4567
 9317TIP3    H127915   6.435   0.442   1.844  0.6673 -0.7098 -0.0386
 9317TIP3    H227916   6.343   0.331   1.890  0.1932 -0.9018 -1.4061
 9318TIP3   OH227917   0.006   1.198   3.360 -0.0906  0.1163  0.3315
 9318TIP3    H127918   0.011   1.281   3.313 -0.9842 -0.4192 -0.7758
 9318TIP3    H227919   0.096   1.178   3.385  0.2636  0.9326 -0.2705
 9319TIP3   OH227920   2.870   0.804   1.068  0.0390  0.4173 -0.4928
 9319TIP3    H127921   2.934   0.792   1.138 -0.0659 -0.1437 -0.4853
 9319TIP3    H227922   2.917   0.854   1.001  0.0471  1.2139  0.0914
 9320TIP3   OH227923   1.707   5.954   4.556  0.1306  0.3280  0.6461
 9320TIP3    H127924   1.755   6.015   4.612 -0.0715 -0.0757  1.2800
 9320TIP3    H227925   1.727   5.867   4.592 -0.4165  0.0987  0.4132
 9321TIP3   OH227926   1.985   4.039   3.039  0.4253  0.4845  0.2094
 9321TIP3    H127927   1.985   3.958   3.090 -0.4656 -1.0276 -2.0374
 9321TIP3    H227928   1.900   4.040   2.995  1.4075  1.2971 -1.8033
 9322TIP3   OH227929   4.738   0.309   1.327 -0.6687 -0.2293 -0.2823
 9322TIP3    H127930   4.737   0.260   1.409  0.7548  1.6585  0.9336
 9322TIP3    H227931   4.809   0.268   1.276 -3.5259 -3.4991 -2.0954
 9323TIP3   OH227932   3.128   4.516   1.636  0.3666  0.4919 -0.1650
 9323TIP3    H127933   3.169   4.441   1.593 -2.2312 -1.1048 -0.0196
 9323TIP3    H227934   3.202   4.570   1.664  2.3362 -1.9131 -0.3986
 9324TIP3   OH227935   0.395   1.251   2.430 -0.1523  0.2291  0.4609
 9324TIP3    H127936   0.349   1.276   2.350 -0.9106  1.3651  1.2250
 9324TIP3    H227937   0.480   1.219   2.400 -0.9780 -0.7925 -0.8991
 9325TIP3   OH227938   0.404   3.593   1.314  0.3408  0.3482 -0.6691
 9325TIP3    H127939   0.423   3.687   1.315 -0.7893  0.6034  0.2571
 9325TIP3    H227940   0.372   3.575   1.403 -2.2462 -0.2820 -1.6404
 9326TIP3   OH227941   3.245   0.454   5.725 -0.1103 -0.2538 -0.3648
 9326TIP3    H127942   3.231   0.532   5.672  0.1411 -1.0277 -1.6050
 9326TIP3    H227943   3.159   0.413   5.731 -0.3763  0.4255  0.8318
 9327TIP3   OH227944   4.146   0.440   0.560 -0.1205 -0.4350  0.1935
 9327TIP3    H127945   4.096   0.495   0.621 -0.8072 -0.2459 -0.5212
 9327TIP3    H227946   4.086   0.425   0.487  0.4365 -1.2672 -0.1025
 9328TIP3   OH227947   3.659   1.726   5.767  0.4249  0.3058 -0.3274
 9328TIP3    H127948   3.615   1.751   5.686  0.6707  0.0292 -0.5455
 9328TIP3    H227949   3.595   1.672   5.813 -0.0361  1.1560  0.0556
 9329TIP3   OH227950   6.418   4.791   1.317  0.5047  0.1773 -0.5349
 9329TIP3    H127951   6.376   4.864   1.362 -1.5073 -3.0602  3.5750
 9329TIP3    H227952   6.499   4.776   1.367  0.3402 -1.0036 -0.5852
 9330TIP3   OH227953   0.526   2.517   4.511 -0.6409 -0.4996  0.3182
 9330TIP3    H127954   0.467   2.550   4.444 -1.3795 -0.4244  0.9853
 9330TIP3    H227955   0.524   2.422   4.499  2.4243 -0.3738 -2.3860
 9331TIP3   OH227956   1.902   6.279   5.064 -0.1995  0.0329 -0.0104
 9331TIP3    H127957   1.981   6.261   5.013 -0.0484 -0.3076  0.3400
 9331TIP3    H227958   1.929   6.271   5.155 -1.0538 -1.9930  0.1239
 9332TIP3   OH227959   2.232   6.706   1.979  0.0318  0.7009 -0.3147
 9332TIP3    H127960   2.200   6.624   2.015 -1.9515  0.5701 -2.1944
 9332TIP3    H227961   2.219   6.770   2.049  1.9408 -0.5473  1.3160
 9333TIP3   OH227962   4.597   6.611   0.815  0.0523 -0.1194 -0.4448
 9333TIP3    H127963   4.670   6.631   0.757 -0.1056  1.5092 -0.1202
 9333TIP3    H227964   4.558   6.532   0.778  0.4151  0.4391 -2.1028
 9334TIP3   OH227965   3.868   1.116   1.988 -0.1307  0.1158 -0.4928
 9334TIP3    H127966   3.907   1.133   2.073 -1.5171 -1.2709  0.4736
 9334TIP3    H227967   3.917   1.171   1.927  2.9024 -1.0769  0.6963
 9335TIP3   OH227968   2.833   1.218   2.470  0.3140 -0.1316 -0.2863
 9335TIP3    H127969   2.918   1.223   2.514  0.1397 -1.9039  0.3161
 9335TIP3    H227970   2.852   1.245   2.380  1.4341 -0.1272 -0.0654
 9336TIP3   OH227971   5.224   1.938   5.640  0.0558 -0.1362  0.0714
 9336TIP3    H127972   5.154   1.998   5.614  0.5179  0.4120  0.0764
 9336TIP3    H227973   5.264   1.978   5.717  1.2491  0.2677 -0.7202
 9337TIP3   OH227974   1.358   5.333   4.245 -0.0159 -0.1044 -0.4855
 9337TIP3    H127975   1.428   5.387   4.283  1.2461 -1.2478 -1.1099
 9337TIP3    H227976   1.366   5.347   4.150 -1.4562  0.6993 -0.5149
 9338TIP3   OH227977   2.136   2.072   0.608 -0.0959 -0.2659  0.0956
 9338TIP3    H127978   2.103   2.032   0.689 -0.5560  3.3217  1.8774
 9338TIP3    H227979   2.057   2.106   0.565  0.3032 -0.8256 -1.0978
 9339TIP3   OH227980   6.021   1.460   4.856 -0.0581 -0.2204  0.0425
 9339TIP3    H127981   6.076   1.537   4.870  0.2681 -0.2320 -1.0826
 9339TIP3    H227982   5.935   1.485   4.889  0.2964  0.2603  0.6202
 9340TIP3   OH227983   0.566   1.843   5.010  0.2924 -0.5223  0.5350
 9340TIP3    H127984   0.534   1.759   4.977 -2.3410  1.0122 -1.1370
 9340TIP3    H227985   0.492   1.881   5.057  0.2241  2.2215 -1.5475
 9341TIP3   OH227986   5.534   5.372   3.488  0.3747 -0.1235  0.0439
 9341TIP3    H127987   5.510   5.291   3.533 -0.0882  0.5891  1.1312
 9341TIP3    H227988   5.567   5.429   3.558 -0.5702  1.0970 -0.4718
 9342TIP3   OH227989   3.816   0.592   1.281  0.2082 -0.6771 -0.1416
 9342TIP3    H127990   3.738   0.558   1.238  1.3752 -3.0151 -0.5551
 9342TIP3    H227991   3.805   0.570   1.373  0.3822 -1.0423 -0.2061
 9343TIP3   OH227992   2.991   1.857   1.274  0.0404  0.5048 -0.0477
 9343TIP3    H127993   3.057   1.925   1.262 -0.3252  0.6350 -1.7003
 9343TIP3    H227994   3.036   1.775   1.254  0.4055  0.2542  1.6565
 9344TIP3   OH227995   0.103   1.712   5.476 -0.5548 -0.1496  0.7354
 9344TIP3    H127996   0.089   1.790   5.422 -0.8167 -1.3145 -0.9466
 9344TIP3    H227997   0.182   1.732   5.526  0.9713  0.1879 -1.6454
 9345TIP3   OH227998   5.906   1.364   1.809 -0.7597 -0.4528 -0.0149
 9345TIP3    H127999   5.932   1.452   1.836  2.2402 -1.9411  2.5829
 9345TIP3    H228000   5.931   1.358   1.717 -3.0111  1.9583 -0.9233
 9346TIP3   OH228001   1.783   6.535   2.730 -0.3326  0.0532  0.5808
 9346TIP3    H128002   1.786   6.475   2.655  2.0924 -0.1903  0.8194
 9346TIP3    H228003   1.750   6.617   2.694 -3.0124 -1.1210  0.0968
 9347TIP3   OH228004   5.621   3.005   2.273 -0.4565 -0.2001 -0.5872
 9347TIP3    H128005   5.616   3.076   2.210 -2.2814 -0.7557 -1.1305
 9347TIP3    H228006   5.707   2.966   2.259  0.8499  2.2540  0.1734
 9348TIP3   OH228007   0.692   6.707   2.871 -0.3171 -0.3132  0.4398
 9348TIP3    H128008   0.678   6.793   2.830 -2.2781 -0.8923 -0.1770
 9348TIP3    H228009   0.604   6.670   2.881  0.5036 -2.4298  0.3383
 9349TIP3   OH228010   3.377   0.447   5.354  0.5911 -0.2513  0.2056
 9349TIP3    H128011   3.430   0.485   5.283 -0.3361  1.1325  0.2121
 9349TIP3    H228012   3.370   0.354   5.332  0.6841  0.0707 -1.2871
 9350TIP3   OH228013   1.325   0.656   4.465 -0.0390  0.2333  0.0739
 9350TIP3    H128014   1.418   0.655   4.487  0.2132  0.9061 -0.8822
 9350TIP3    H228015   1.322   0.627   4.373 -0.5890  1.8367 -0.4490
 9351TIP3   OH228016   3.253   1.422   3.983  0.3656 -0.1546  0.4181
 9351TIP3    H128017   3.229   1.360   3.914  3.3895  0.9249 -1.8354
 9351TIP3    H228018   3.327   1.380   4.027  0.4772  0.5365  0.9001
 9352TIP3   OH228019   2.800   5.223   4.423 -0.7087 -0.1395  0.3293
 9352TIP3    H128020   2.727   5.285   4.431  0.5773  1.6718 -1.1773
 9352TIP3    H228021   2.831   5.211   4.512 -0.9417  1.5122  0.6697
 9353TIP3   OH228022   7.029   3.191   4.867 -0.4024 -0.2315  0.3221
 9353TIP3    H128023   7.002   3.102   4.890  1.2165 -1.7513 -2.9369
 9353TIP3    H228024   6.948   3.235   4.842 -1.0261 -1.3975  0.2426
 9354TIP3   OH228025   2.658   5.591   1.765 -0.5793  0.2820  0.6100
 9354TIP3    H128026   2.707   5.592   1.847 -0.8586 -0.9370  0.8150
 9354TIP3    H228027   2.571   5.559   1.789 -0.6779 -0.0477 -0.1560
 9355TIP3   OH228028   1.409   1.938   1.403 -0.6844  0.0004  0.3244
 9355TIP3    H128029   1.401   1.965   1.494  0.2681 -0.1871  0.4731
 9355TIP3    H228030   1.424   1.843   1.407 -1.6625 -0.1808 -0.0798
 9356TIP3   OH228031   4.227   5.419   0.442  0.0279  0.4990 -0.3774
 9356TIP3    H128032   4.259   5.391   0.356  0.1309  3.1765 -1.2849
 9356TIP3    H228033   4.134   5.436   0.429  0.2917  2.0928 -0.3136
 9357TIP3   OH228034   4.544   4.698   1.286 -0.1351  0.1695 -0.5939
 9357TIP3    H128035   4.529   4.731   1.198  0.9729 -0.3477 -0.9899
 9357TIP3    H228036   4.457   4.701   1.328 -0.4815  1.3774 -1.3506
 9358TIP3   OH228037   3.818   1.884   2.810  0.2661 -0.1776  0.1711
 9358TIP3    H128038   3.861   1.911   2.730  0.1667  0.2646  0.2653
 9358TIP3    H228039   3.745   1.945   2.820 -1.2865 -1.7780 -0.7589
 9359TIP3   OH228040   0.637   6.329   3.039  0.0503 -0.3866  0.7054
 9359TIP3    H128041   0.565   6.329   2.976 -0.2667  1.6296  1.0000
 9359TIP3    H228042   0.649   6.421   3.062  1.6511 -0.8457  1.9052
 9360TIP3   OH228043   6.732   2.255   2.277  0.2710 -0.4925  0.4761
 9360TIP3    H128044   6.677   2.331   2.296  0.1033 -0.3892 -0.3782
 9360TIP3    H228045   6.821   2.289   2.279  0.1740 -0.1734 -0.3148
 9361TIP3   OH228046   3.265   1.642   4.323  0.4346 -0.0208 -0.2991
 9361TIP3    H128047   3.321   1.571   4.356 -0.2455 -0.1856  0.5424
 9361TIP3    H228048   3.312   1.676   4.247  2.3773  0.7653  1.1651
 9362TIP3   OH228049   0.279   0.196   1.220  0.2849  1.1041  0.0889
 9362TIP3    H128050   0.294   0.259   1.291 -1.8902  1.8670 -0.0301
 9362TIP3    H228051   0.300   0.111   1.258  2.9636  1.7914  0.3643
 9363TIP3   OH228052   6.940   5.423   4.683  0.3266  0.1580 -0.4901
 9363TIP3    H128053   6.982   5.375   4.755  0.8128  1.8242  0.3853
 9363TIP3    H228054   6.863   5.370   4.662 -1.2499  0.7922  2.9515
 9364TIP3   OH228055   1.472   2.635   5.411 -0.1353 -0.8237  0.0905
 9364TIP3    H128056   1.478   2.725   5.444  2.2978  0.0886 -2.4278
 9364TIP3    H228057   1.550   2.591   5.446  0.5892 -0.8408 -1.4200
 9365TIP3   OH228058   6.489   6.091   2.823 -0.1383 -0.3783 -0.3913
 9365TIP3    H128059   6.511   6.130   2.738  0.2432  1.2609  0.4136
 9365TIP3    H228060   6.416   6.144   2.856  1.1425  0.4953  1.2482
 9366TIP3   OH228061   4.339   2.542   3.162 -0.5048  0.2446  0.3031
 9366TIP3    H128062   4.249   2.527   3.190 -0.7267  1.7545  0.4697
 9366TIP3    H228063   4.342   2.635   3.139 -0.0061 -0.5323 -3.4450
 9367TIP3   OH228064   5.615   2.327   4.065 -0.1081  0.0094 -0.1263
 9367TIP3    H128065   5.602   2.343   4.158 -0.0798  0.0509 -0.1291
 9367TIP3    H228066   5.618   2.415   4.026 -0.8741 -0.0224 -0.2727
 9368TIP3   OH228067   0.909   5.186   4.084  0.1099  0.4741 -0.3235
 9368TIP3    H128068   0.870   5.217   4.002  3.1347 -0.7080 -2.3731
 9368TIP3    H228069   0.973   5.254   4.107  0.5017 -0.0349  0.1170
 9369TIP3   OH228070   5.827   1.304   4.684 -0.1890 -0.2620 -0.3480
 9369TIP3    H128071   5.851   1.358   4.759 -0.0109 -1.2560  0.3401
 9369TIP3    H228072   5.732   1.293   4.691 -0.2598  0.1648 -0.6313
 9370TIP3   OH228073   6.697   3.638   2.406  0.1500 -0.2378  0.0519
 9370TIP3    H128074   6.741   3.561   2.369  1.2028  0.6048 -0.5010
 9370TIP3    H228075   6.761   3.709   2.397  0.2269  0.1831  2.9055
 9371TIP3   OH228076   0.312   3.608   4.077 -0.2878 -0.1390 -0.3956
 9371TIP3    H128077   0.348   3.519   4.077 -0.8756 -0.5180  3.0370
 9371TIP3    H228078   0.226   3.600   4.118 -0.6900  1.9050 -0.7216
 9372TIP3   OH228079   5.942   5.396   3.245 -0.3095 -0.5411  0.4690
 9372TIP3    H128080   6.005   5.330   3.216  0.4941  0.3466  0.1241
 9372TIP3    H228081   5.916   5.368   3.333 -1.8983 -2.6449 -0.6010
 9373TIP3   OH228082   1.678   1.348   1.118  0.0407 -0.5813 -0.1905
 9373TIP3    H128083   1.737   1.278   1.092 -1.4490 -1.8588 -0.2481
 9373TIP3    H228084   1.705   1.371   1.207  0.6994 -1.0598 -0.2651
 9374TIP3   OH228085   2.932   0.148   5.002  0.1564 -0.1129  0.1010
 9374TIP3    H128086   2.968   0.130   4.915  0.3553  0.4655  0.0587
 9374TIP3    H228087   2.838   0.133   4.993 -0.2645  2.7098 -1.0006
 9375TIP3   OH228088   6.220   1.431   4.330 -0.2495  0.3504 -0.3799
 9375TIP3    H128089   6.162   1.410   4.404 -1.0368  1.9527 -0.4882
 9375TIP3    H228090   6.308   1.412   4.362 -0.4004  2.5670  1.6359
 9376TIP3   OH228091   4.119   1.404   1.606  0.1979 -0.6723  0.2186
 9376TIP3    H128092   4.075   1.488   1.624  0.8928 -0.2717  0.0875
 9376TIP3    H228093   4.209   1.428   1.587  0.3342 -1.4299 -0.1324
 9377TIP3   OH228094   5.001   4.390   1.501  0.2878  0.4845  0.3735
 9377TIP3    H128095   5.067   4.374   1.433  1.7162  1.3534  1.4827
 9377TIP3    H228096   4.918   4.395   1.454  1.1314  0.2135 -1.1929
 9378TIP3   OH228097   2.956   1.220   2.228 -0.3136 -0.1055  0.0064
 9378TIP3    H128098   2.901   1.200   2.152  1.5327 -0.1554 -1.3836
 9378TIP3    H228099   3.042   1.239   2.191  0.7758 -0.6062  2.1339
 9379TIP3   OH228100   2.491   2.904   4.462  0.2097  0.5111  0.4960
 9379TIP3    H128101   2.511   2.820   4.503  0.3281  0.1707 -0.2337
 9379TIP3    H228102   2.551   2.966   4.504  1.1697 -0.0549  0.0107
 9380TIP3   OH228103   0.698   1.992   2.758  0.2838 -0.2845 -0.2781
 9380TIP3    H128104   0.763   1.922   2.759  0.8113  0.1786 -0.6950
 9380TIP3    H228105   0.614   1.948   2.751  0.4807 -0.9345  1.2044
 9381TIP3   OH228106   2.410   1.217   2.694 -0.2425 -0.2463 -0.4487
 9381TIP3    H128107   2.374   1.289   2.747  0.2655 -1.2503  1.3465
 9381TIP3    H228108   2.443   1.260   2.615 -2.4121  1.1204 -0.7201
 9382TIP3   OH228109   1.998   6.327   5.708 -0.0355 -0.3829  0.1977
 9382TIP3    H128110   1.925   6.268   5.693 -0.0424 -0.2616 -0.2632
 9382TIP3    H228111   2.076   6.272   5.697 -0.0375 -0.9288  2.3812
 9383TIP3   OH228112   6.614   2.560   2.112 -0.0917  0.3112 -0.0892
 9383TIP3    H128113   6.631   2.554   2.206 -1.2102 -2.7962  0.0309
 9383TIP3    H228114   6.526   2.597   2.105 -0.0246  0.5045  0.0862
 9384TIP3   OH228115   3.505   5.454   4.534  0.3900  0.3308 -0.6002
 9384TIP3    H128116   3.580   5.440   4.590  0.6622  1.8315 -0.5471
 9384TIP3    H228117   3.447   5.511   4.585 -0.7643 -0.7635 -0.6588
 9385TIP3   OH228118   1.326   0.927   5.380  0.3609 -0.0275  0.2399
 9385TIP3    H128119   1.340   0.877   5.299  0.9253  0.2020  0.1887
 9385TIP3    H228120   1.272   1.001   5.354 -0.4380 -0.5765  0.3039
 9386TIP3   OH228121   3.890   3.079   4.212 -0.0914 -0.5249 -0.0858
 9386TIP3    H128122   3.957   3.143   4.233 -0.5540 -0.4576  1.3263
 9386TIP3    H228123   3.921   3.037   4.132  1.2494  0.0263  0.1108
 9387TIP3   OH228124   3.590   3.427   4.338  0.1503  0.1742  0.0019
 9387TIP3    H128125   3.581   3.522   4.332 -2.1478  0.2197  2.3568
 9387TIP3    H228126   3.622   3.410   4.427 -0.8219 -1.2642  0.1284
 9388TIP3   OH228127   5.148   6.005   5.577 -0.3410  0.2061  0.1056
 9388TIP3    H128128   5.192   5.920   5.587 -0.5562 -0.1200 -1.4200
 9388TIP3    H228129   5.137   6.037   5.666  0.9287 -0.7603  0.6339
 9389TIP3   OH228130   2.124   1.025   5.001  0.1080  0.3871  0.2291
 9389TIP3    H128131   2.057   1.089   4.978  0.5787  1.4530  1.7309
 9389TIP3    H228132   2.153   1.050   5.088  0.3960 -1.8034  0.8289
 9390TIP3   OH228133   6.916   6.188   2.574 -0.2894 -0.8076  0.1618
 9390TIP3    H128134   6.969   6.148   2.642 -0.1475  1.3968  1.4472
 9390TIP3    H228135   6.826   6.184   2.607 -0.4344 -1.1160 -0.2571
 9391TIP3   OH228136   0.047   5.527   1.455 -0.1604  0.0315  0.0719
 9391TIP3    H128137   0.030   5.438   1.423 -0.9213  0.6524 -1.3921
 9391TIP3    H228138  -0.034   5.575   1.436  0.7615  1.4018 -0.6283
 9392TIP3   OH228139   1.137   6.435   0.200 -0.0977  0.0677  0.1369
 9392TIP3    H128140   1.121   6.522   0.165 -1.3899 -0.6406 -1.1080
 9392TIP3    H228141   1.065   6.381   0.167  0.4575 -1.3985  1.1823
 9393TIP3   OH228142   4.378   3.977   0.867 -0.0251  0.2027  0.3672
 9393TIP3    H128143   4.296   3.935   0.842 -1.2600  2.4783  0.3040
 9393TIP3    H228144   4.444   3.941   0.808 -0.8493 -1.9926  0.7081
 9394TIP3   OH228145   1.195   0.428   1.178  0.1386 -0.3240  0.0418
 9394TIP3    H128146   1.267   0.440   1.240  1.4064  1.3492 -1.6256
 9394TIP3    H228147   1.209   0.341   1.140  1.0903 -0.1500 -0.0173
 9395TIP3   OH228148   2.976   4.414   4.272 -0.3494  0.1954 -0.1022
 9395TIP3    H128149   2.916   4.382   4.339  0.6530 -0.8479  0.3305
 9395TIP3    H228150   3.059   4.427   4.319 -0.0846  1.0845 -0.7982
 9396TIP3   OH228151   2.040   3.831   3.286  0.1886  0.0768 -0.1411
 9396TIP3    H128152   1.993   3.748   3.282  0.0306  0.0417  1.8914
 9396TIP3    H228153   2.132   3.806   3.292  0.1588  0.0621  0.2319
 9397TIP3   OH228154   1.426   6.317   3.406  0.1637 -0.3648  0.3582
 9397TIP3    H128155   1.501   6.351   3.455 -1.0511  1.3461  1.1122
 9397TIP3    H228156   1.369   6.279   3.472 -1.3820  1.7549  0.3508
 9398TIP3   OH228157   1.355   2.725   2.413  0.0401  0.1963 -0.5618
 9398TIP3    H128158   1.419   2.792   2.441  0.2194 -0.6542  1.2211
 9398TIP3    H228159   1.409   2.653   2.381 -0.0178 -0.3467  0.5284
 9399TIP3   OH228160   4.864   2.569   5.865  0.7470 -0.2592  0.2372
 9399TIP3    H128161   4.905   2.656   5.869  0.9283 -0.3691  0.8937
 9399TIP3    H228162   4.914   2.522   5.799  1.6543 -0.3708  0.9904
 9400TIP3   OH228163   5.096   2.917   1.021 -0.2298 -0.9830  0.0548
 9400TIP3    H128164   5.126   2.876   1.102 -0.5961  1.2054  1.3505
 9400TIP3    H228165   5.040   2.989   1.049 -1.5568 -1.0426 -2.1902
 9401TIP3   OH228166   0.350   5.102   3.599 -0.3031 -0.2665  0.4365
 9401TIP3    H128167   0.325   5.111   3.507 -1.4242 -0.9299  0.6573
 9401TIP3    H228168   0.289   5.159   3.646  0.8127  0.7312  0.7114
 9402TIP3   OH228169   6.823   0.984   5.786  0.0033 -0.5091 -0.5231
 9402TIP3    H128170   6.880   0.916   5.822  1.5035  1.4794  1.0628
 9402TIP3    H228171   6.845   1.063   5.835 -2.3348  0.9553 -1.6366
 9403TIP3   OH228172   2.613   1.945   2.697  0.5088  0.0433  0.4730
 9403TIP3    H128173   2.527   1.942   2.739  1.4783 -1.1853  2.5376
 9403TIP3    H228174   2.622   2.035   2.668 -0.9814  0.5077  1.3362
 9404TIP3   OH228175   4.037   1.943   2.926  0.8320  0.8837  0.3516
 9404TIP3    H128176   3.960   1.915   2.876 -0.4272  0.9399  2.1553
 9404TIP3    H228177   4.108   1.888   2.894 -0.0005  0.6352 -1.1695
 9405TIP3   OH228178   2.755   5.286   1.075  0.2170  0.7168  0.1784
 9405TIP3    H128179   2.813   5.298   1.000  1.0834 -1.9517  0.3244
 9405TIP3    H228180   2.684   5.230   1.042  0.1296  0.2504  1.1141
 9406TIP3   OH228181   5.630   1.903   0.682 -0.7131 -0.1811  0.1831
 9406TIP3    H128182   5.666   1.821   0.715 -0.1339  0.0945  0.2662
 9406TIP3    H228183   5.701   1.939   0.628 -0.7912  0.4688  0.5050
 9407TIP3   OH228184   1.603   1.529   5.810 -0.2803  0.1404 -0.5696
 9407TIP3    H128185   1.601   1.562   5.720 -1.1852  0.2939 -0.4987
 9407TIP3    H228186   1.511   1.515   5.833 -0.1029  0.7404  0.5676
 9408TIP3   OH228187   0.870   5.743   3.484 -0.3066  0.6185  0.0712
 9408TIP3    H128188   0.918   5.823   3.466  0.5507  0.1990  0.4499
 9408TIP3    H228189   0.898   5.682   3.416 -0.8956  0.5996 -0.1667
 9409TIP3   OH228190   3.401   3.214   1.739  0.1567 -0.2664  0.2232
 9409TIP3    H128191   3.458   3.153   1.692 -0.1323  0.9982 -1.8789
 9409TIP3    H228192   3.336   3.241   1.674 -1.0937  0.5508  1.7463
 9410TIP3   OH228193   1.008   1.304   0.638 -0.2537 -0.2102  0.2704
 9410TIP3    H128194   1.103   1.291   0.634 -0.1361  0.7300 -0.7600
 9410TIP3    H228195   0.984   1.333   0.549 -1.4259  0.0297  0.6419
 9411TIP3   OH228196   6.576   5.682   1.124 -0.4510 -0.6028 -0.3226
 9411TIP3    H128197   6.665   5.700   1.093 -0.5392  0.0847 -0.1865
 9411TIP3    H228198   6.571   5.723   1.210 -0.5608 -1.5633  0.1465
 9412TIP3   OH228199   1.053   6.333   0.756 -0.2377 -0.1851 -0.1935
 9412TIP3    H128200   0.958   6.345   0.749 -0.2916 -0.2251  0.4100
 9412TIP3    H228201   1.082   6.324   0.665 -0.8434 -0.4140 -0.3746
 9413TIP3   OH228202   1.296   4.345   0.165  0.2159 -1.0569 -0.0383
 9413TIP3    H128203   1.293   4.283   0.239 -0.3016 -1.5314 -0.4500
 9413TIP3    H228204   1.212   4.334   0.121  0.1571 -0.1207 -0.1795
 9414TIP3   OH228205   6.621   3.110   5.078  0.7399  0.1346  0.2283
 9414TIP3    H128206   6.577   3.157   5.149 -1.4286 -0.8809 -0.3465
 9414TIP3    H228207   6.599   3.159   4.999 -1.6756 -1.7531 -0.3986
 9415TIP3   OH228208   1.861   1.896   2.137  0.0919  0.5379 -0.4674
 9415TIP3    H128209   1.827   1.838   2.069  1.0267  0.3783 -0.8232
 9415TIP3    H228210   1.929   1.844   2.180 -1.3796  0.1340  1.5178
 9416TIP3   OH228211   3.751   1.244   0.259  0.2490  0.2162  0.1645
 9416TIP3    H128212   3.797   1.246   0.175  0.9348 -0.7222  0.4984
 9416TIP3    H228213   3.814   1.206   0.320 -0.2658  0.8167  1.0995
 9417TIP3   OH228214   1.766   2.944   2.162  0.3802  0.3594 -0.3772
 9417TIP3    H128215   1.721   2.954   2.079  1.8408  0.4063 -1.1848
 9417TIP3    H228216   1.709   2.989   2.225 -0.7440  0.3157 -1.3212
 9418TIP3   OH228217   1.063   3.169   2.603 -0.3050  0.1634  0.3801
 9418TIP3    H128218   1.029   3.258   2.605 -0.5890  0.0800 -0.4040
 9418TIP3    H228219   1.140   3.173   2.547  0.8402  0.2883  1.9147
 9419TIP3   OH228220   3.898   1.340   3.497  0.0487  0.1720  0.2725
 9419TIP3    H128221   3.851   1.312   3.576  0.3805  0.6502  0.6460
 9419TIP3    H228222   3.830   1.347   3.430 -0.4620  1.1351  0.8785
 9420TIP3   OH228223   2.619   3.791   1.226 -0.1972 -0.2540  0.1546
 9420TIP3    H128224   2.568   3.844   1.286  0.1208  0.6383 -0.3370
 9420TIP3    H228225   2.689   3.849   1.196  0.2416 -0.9929 -0.3034
 9421TIP3   OH228226   3.227   0.784   1.563 -0.1926 -0.6813 -0.1050
 9421TIP3    H128227   3.141   0.826   1.575  0.1315  0.2569 -0.9843
 9421TIP3    H228228   3.212   0.717   1.497 -0.4314 -1.1320  0.3932
 9422TIP3   OH228229   0.246   4.996   2.480  0.2013  0.5588 -0.3292
 9422TIP3    H128230   0.213   4.911   2.511  0.9342  0.7443  1.0801
 9422TIP3    H228231   0.227   4.997   2.386 -0.5966 -0.7958 -0.2078
 9423TIP3   OH228232   5.343   1.523   3.100  0.4297 -0.3676  0.0290
 9423TIP3    H128233   5.311   1.608   3.132  2.3215  0.2454  0.4208
 9423TIP3    H228234   5.370   1.540   3.010 -0.4641 -0.9193 -0.3570
 9424TIP3   OH228235   7.072   5.021   0.736 -0.8236 -0.1903  0.6394
 9424TIP3    H128236   7.119   4.944   0.704 -1.6001 -0.9222  1.2354
 9424TIP3    H228237   7.076   5.083   0.663  0.2824 -0.5730  0.3532
 9425TIP3   OH228238   6.074   0.427   0.752  0.5353 -0.7920 -0.4185
 9425TIP3    H128239   6.052   0.335   0.737  1.1797 -1.0694  0.2633
 9425TIP3    H228240   6.144   0.446   0.689  1.4450 -1.2130  0.4379
 9426TIP3   OH228241   0.967   5.550   4.426 -0.1871 -0.4104  0.1250
 9426TIP3    H128242   1.043   5.606   4.447 -1.4370  1.2274  0.5052
 9426TIP3    H228243   0.960   5.490   4.501 -0.1971  0.4953  0.8725
 9427TIP3   OH228244   1.490   1.090   4.635 -0.1931 -0.3771  0.2628
 9427TIP3    H128245   1.545   1.052   4.704  0.6816 -0.3332 -0.3878
 9427TIP3    H228246   1.441   1.015   4.601  3.0099 -1.5323 -2.4092
 9428TIP3   OH228247   3.427   2.192   4.719 -0.5052 -0.2118  0.0589
 9428TIP3    H128248   3.434   2.101   4.691 -0.0316  0.2743 -1.5217
 9428TIP3    H228249   3.389   2.237   4.644 -0.5398  0.9268  0.7438
 9429TIP3   OH228250   0.968   0.261   1.041  0.2376  0.2036  0.7819
 9429TIP3    H128251   1.023   0.283   0.966  0.0521  0.3291  0.6835
 9429TIP3    H228252   0.885   0.233   1.003  0.1872  0.1439  0.9351
 9430TIP3   OH228253   1.366   6.000   0.183 -0.1138  0.2480  0.1051
 9430TIP3    H128254   1.431   6.016   0.115 -0.4364 -0.5567 -0.4065
 9430TIP3    H228255   1.288   6.047   0.154  0.1276  0.9439  0.5571
 9431TIP3   OH228256   5.704   5.069   3.363  0.6059 -0.0680  0.3397
 9431TIP3    H128257   5.690   5.086   3.456  2.1173 -0.0170  0.5709
 9431TIP3    H228258   5.652   5.136   3.318 -2.7324 -1.9597  1.0121
 9432TIP3   OH228259   1.157   6.604   2.571 -0.2491  0.4813 -0.2930
 9432TIP3    H128260   1.140   6.513   2.545  0.5513 -0.3184  1.7600
 9432TIP3    H228261   1.240   6.599   2.619 -0.7980  2.1061  0.8738
 9433TIP3   OH228262   5.665   2.864   0.658  1.0218  0.3692 -0.0338
 9433TIP3    H128263   5.734   2.815   0.614 -0.7779 -2.0454 -0.3762
 9433TIP3    H228264   5.647   2.814   0.738 -1.1110  0.1844 -0.5550
 9434TIP3   OH228265   4.748   5.058   0.324 -0.0920  0.3643  0.0532
 9434TIP3    H128266   4.718   5.132   0.272 -0.9055 -2.2027 -3.5336
 9434TIP3    H228267   4.668   5.016   0.354  0.3153  0.2853  1.0504
 9435TIP3   OH228268   0.577   1.223   5.753 -0.4352 -0.0164 -0.3726
 9435TIP3    H128269   0.498   1.202   5.703 -1.0216 -1.6328  1.1217
 9435TIP3    H228270   0.644   1.164   5.718 -0.3002  0.2529 -0.5751
 9436TIP3   OH228271   3.070   6.290   3.359  0.0639 -0.4861 -0.0338
 9436TIP3    H128272   3.151   6.335   3.334 -0.5842  0.6535 -0.1557
 9436TIP3    H228273   3.097   6.226   3.424  1.4836 -2.0862 -2.0817
 9437TIP3   OH228274   7.089   3.209   1.425  0.3648 -0.5586 -0.8011
 9437TIP3    H128275   7.067   3.207   1.332 -0.5372  1.0513 -0.6604
 9437TIP3    H228276   7.109   3.301   1.443  0.9600 -0.9141  0.5123
 9438TIP3   OH228277   1.891   1.672   4.974  0.1268  0.6607 -0.0908
 9438TIP3    H128278   1.969   1.727   4.971  0.7479 -0.1813  0.5367
 9438TIP3    H228279   1.911   1.598   4.917  0.2521 -0.1457  0.9878
 9439TIP3   OH228280   0.962   2.496   4.664 -0.7749  0.4789 -0.1796
 9439TIP3    H128281   1.050   2.495   4.626  0.1956 -0.4331  1.8849
 9439TIP3    H228282   0.911   2.439   4.608  0.5707 -0.7774 -0.1918
 9440TIP3   OH228283   4.741   1.673   2.085 -0.3265  0.3865 -0.1771
 9440TIP3    H128284   4.749   1.596   2.141 -2.0670 -0.0339 -0.4650
 9440TIP3    H228285   4.741   1.639   1.996 -1.0500  0.7147 -0.3089
 9441TIP3   OH228286   5.714   4.819   1.066 -0.1776 -0.0021 -0.1443
 9441TIP3    H128287   5.808   4.817   1.050 -0.4742 -0.2462 -2.1062
 9441TIP3    H228288   5.701   4.761   1.141  1.2662  0.3925  0.4347
 9442TIP3   OH228289   5.878   0.077   2.618 -0.4525  0.1420 -0.3904
 9442TIP3    H128290   5.887   0.003   2.678  0.7148  1.2754  0.8954
 9442TIP3    H228291   5.795   0.061   2.572 -1.1481 -0.9892  1.1837
 9443TIP3   OH228292   0.803   0.515   2.010 -0.4035  0.3418  0.0380
 9443TIP3    H128293   0.794   0.540   1.918 -0.0379  2.9797  0.6250
 9443TIP3    H228294   0.720   0.541   2.050  0.3593  1.6682  0.8680
 9444TIP3   OH228295   1.926   1.593   3.122 -0.3027  0.2651 -0.2159
 9444TIP3    H128296   1.980   1.665   3.153  2.5472 -1.2856 -1.2498
 9444TIP3    H228297   1.862   1.580   3.192  1.6136  1.2292  1.8526
 9445TIP3   OH228298   1.583   0.371   0.291  0.4263  0.1930 -0.3143
 9445TIP3    H128299   1.617   0.366   0.381 -1.0917  0.9716  0.3458
 9445TIP3    H228300   1.570   0.280   0.265 -0.4620 -0.0171  0.8038
 9446TIP3   OH228301   4.754   2.641   0.125  0.9311  0.1931  0.0535
 9446TIP3    H128302   4.704   2.722   0.114  1.8163  0.6039 -1.1895
 9446TIP3    H228303   4.700   2.587   0.183 -0.6563  0.8585 -0.7302
 9447TIP3   OH228304   6.744   0.114   0.315  0.1765  0.5802 -0.2595
 9447TIP3    H128305   6.745   0.051   0.387  1.7926 -0.2327 -0.9181
 9447TIP3    H228306   6.664   0.094   0.267  0.7960 -1.2497 -0.6304
 9448TIP3   OH228307   7.028   4.328   3.839 -0.1157  0.3381  0.0019
 9448TIP3    H128308   6.951   4.350   3.787 -1.5670 -1.9344  1.0138
 9448TIP3    H228309   7.074   4.263   3.787 -0.7257 -0.7665  0.7846
 9449TIP3   OH228310   3.541   5.590   5.435 -0.4525 -0.1204  0.0007
 9449TIP3    H128311   3.588   5.554   5.510 -0.5821 -2.8577 -1.1300
 9449TIP3    H228312   3.576   5.679   5.426  2.0416 -0.8649  1.2578
 9450TIP3   OH228313   4.297   4.742   1.406  0.1511 -0.6619  0.0385
 9450TIP3    H128314   4.258   4.708   1.487 -0.0893  1.7347  1.0028
 9450TIP3    H228315   4.326   4.830   1.428  2.3828 -0.8309 -1.8291
 9451TIP3   OH228316   2.101   0.717   3.148  0.1411  0.1226  0.1238
 9451TIP3    H128317   2.114   0.802   3.190 -3.4426  0.6781  0.4187
 9451TIP3    H228318   2.065   0.661   3.217 -1.1219 -0.4574 -0.9536
 9452TIP3   OH228319   5.274   3.251   1.283  0.3315  0.5460 -0.7765
 9452TIP3    H128320   5.307   3.167   1.316  1.1681  1.8323  1.9854
 9452TIP3    H228321   5.344   3.283   1.226  0.5161 -0.1037 -0.9222
 9453TIP3   OH228322   6.575   3.221   2.864  0.1963  0.0318  0.1735
 9453TIP3    H128323   6.565   3.151   2.929  0.9657 -2.0870 -1.8414
 9453TIP3    H228324   6.664   3.209   2.830 -0.0941  1.2513 -1.0939
 9454TIP3   OH228325   6.492   5.319   2.667  0.1415 -0.0807 -0.2907
 9454TIP3    H128326   6.542   5.361   2.737 -2.0248  1.9567  0.1633
 9454TIP3    H228327   6.483   5.386   2.600 -0.1793 -1.0987 -1.3082
 9455TIP3   OH228328   6.355   5.837   2.166  0.0403 -0.0668 -0.3791
 9455TIP3    H128329   6.279   5.864   2.216 -1.5428  0.5896 -2.9513
 9455TIP3    H228330   6.420   5.906   2.180 -0.4196  0.1830  0.5714
 9456TIP3   OH228331   4.582   0.613   0.586 -0.0808  0.2579  0.2780
 9456TIP3    H128332   4.622   0.527   0.573  2.2289  1.4077 -0.8760
 9456TIP3    H228333   4.618   0.645   0.668  0.4975  0.8270 -0.1842
 9457TIP3   OH228334   4.882   3.980   2.923  0.6859  0.6761  0.2755
 9457TIP3    H128335   4.947   4.001   2.856  1.7857 -0.3503  0.9805
 9457TIP3    H228336   4.932   3.934   2.991 -0.7900 -0.2311  0.7907
 9458TIP3   OH228337   3.113   1.317  -0.002 -0.1479  0.0436  0.4687
 9458TIP3    H128338   3.132   1.248   0.062 -0.8155  0.5486  1.2277
 9458TIP3    H228339   3.041   1.367   0.036 -0.6794  0.2595 -0.7585
 9459TIP3   OH228340   7.169   4.245   3.251  0.0118  0.4949 -0.2051
 9459TIP3    H128341   7.093   4.198   3.285  0.9123 -0.9574 -0.0916
 9459TIP3    H228342   7.171   4.223   3.158  1.7017 -1.6669  0.2408
 9460TIP3   OH228343   6.294   6.147   1.728 -0.4427  0.2040 -0.4293
 9460TIP3    H128344   6.333   6.231   1.748 -1.5400  0.8612 -0.9390
 9460TIP3    H228345   6.257   6.157   1.640 -1.4505 -0.4634 -0.1110
 9461TIP3   OH228346   2.889   6.069   4.247  0.1443  0.7792 -0.1755
 9461TIP3    H128347   2.902   6.164   4.248  2.6027  0.5297  2.2069
 9461TIP3    H228348   2.849   6.049   4.332 -3.1087 -0.1448 -1.7431
 9462TIP3   OH228349   3.389   6.729   2.903  0.0947 -0.4355  0.3794
 9462TIP3    H128350   3.364   6.819   2.882 -0.0139 -0.7494 -0.9829
 9462TIP3    H228351   3.433   6.735   2.987 -2.6855  0.4219  1.8956
 9463TIP3   OH228352   2.558   0.059   1.066 -0.6170 -0.1090 -0.9757
 9463TIP3    H128353   2.490  -0.007   1.078 -0.0937 -1.1030 -3.0008
 9463TIP3    H228354   2.610   0.027   0.992  1.9040  0.7408  0.2895
 9464TIP3   OH228355   6.215   2.249   0.508  0.0650  0.3557  0.5951
 9464TIP3    H128356   6.235   2.332   0.550 -3.0067  0.6211  1.8016
 9464TIP3    H228357   6.174   2.272   0.425  1.5520 -0.0955 -0.3242
 9465TIP3   OH228358   5.457   1.232   0.346 -0.3861 -0.5542 -0.2825
 9465TIP3    H128359   5.460   1.137   0.350  0.0470 -0.5743 -1.0133
 9465TIP3    H228360   5.548   1.259   0.335 -0.5799 -0.0904 -0.7747
 9466TIP3   OH228361   4.048   5.490   0.653  0.1377  0.3930 -1.0550
 9466TIP3    H128362   4.118   5.488   0.588 -0.4040  3.0448 -1.8474
 9466TIP3    H228363   4.093   5.513   0.735  0.3516  1.2741 -1.3964
 9467TIP3   OH228364   3.143   0.078   5.699 -0.2157  0.2809 -0.0629
 9467TIP3    H128365   3.133   0.156   5.645  0.5072  0.3609 -0.0952
 9467TIP3    H228366   3.224   0.037   5.668 -1.0808 -1.0256 -0.7150
 9468TIP3   OH228367   3.661   0.667   4.342 -0.5786 -0.7208 -0.1459
 9468TIP3    H128368   3.677   0.605   4.413 -2.0739  0.2274  1.1028
 9468TIP3    H228369   3.747   0.704   4.322 -0.0741 -1.2610  0.9469
 9469TIP3   OH228370   1.168   1.223   5.794  0.4460 -0.2615 -0.2769
 9469TIP3    H128371   1.091   1.279   5.809  0.5441  0.4076 -2.0824
 9469TIP3    H228372   1.142   1.164   5.724  1.6558  0.1551 -1.1053
 9470TIP3   OH228373   1.726   6.588   5.521 -0.2638  0.1006 -0.5891
 9470TIP3    H128374   1.659   6.558   5.459 -0.4386 -2.6635  0.7518
 9470TIP3    H228375   1.808   6.555   5.486 -0.1989 -0.3454 -0.0300
 9471TIP3   OH228376   6.143   5.140   5.754  0.5199 -0.2839 -0.0531
 9471TIP3    H128377   6.209   5.087   5.711  1.5884  1.4276 -0.6160
 9471TIP3    H228378   6.144   5.224   5.707 -2.4776 -0.3548 -0.4858
 9472TIP3   OH228379   3.211   1.174   5.660  0.0283 -0.3426  0.4461
 9472TIP3    H128380   3.193   1.091   5.615  1.6837 -0.6894  0.3549
 9472TIP3    H228381   3.161   1.168   5.742  0.3202 -1.5600  0.5594
 9473TIP3   OH228382   1.652   3.834   0.134 -0.1333 -0.2020 -0.4283
 9473TIP3    H128383   1.578   3.894   0.142  1.3533  1.5863  0.5811
 9473TIP3    H228384   1.655   3.813   0.040 -0.9543  0.9358 -0.7361
 9474TIP3   OH228385   5.353   2.419   4.239 -0.3358 -0.0886 -0.5805
 9474TIP3    H128386   5.388   2.507   4.224  0.3062 -0.1394  0.4860
 9474TIP3    H228387   5.348   2.411   4.335 -1.4405 -0.8150 -0.6789
 9475TIP3   OH228388   5.987   0.399   4.969  0.1081  0.0237 -0.1326
 9475TIP3    H128389   6.006   0.457   5.043 -1.1714 -0.6996  0.8291
 9475TIP3    H228390   6.057   0.334   4.971 -0.3165 -0.4308  0.9592
 9476TIP3   OH228391   0.312   1.194   1.228  0.0441  0.2035 -0.5695
 9476TIP3    H128392   0.352   1.250   1.296  0.0382  0.4377 -0.7596
 9476TIP3    H228393   0.380   1.129   1.209 -0.8386 -1.4250  1.4580
 9477TIP3   OH228394   0.836   6.165   3.706 -0.4793 -0.2491  0.6474
 9477TIP3    H128395   0.882   6.215   3.639 -0.8629 -0.9078 -0.1285
 9477TIP3    H228396   0.808   6.230   3.770 -1.1874  0.5662 -0.4633
 9478TIP3   OH228397   0.525   2.509   2.063 -0.0681 -0.5297 -0.0091
 9478TIP3    H128398   0.438   2.544   2.040 -0.4642 -0.8899  0.9069
 9478TIP3    H228399   0.581   2.587   2.070 -0.0883 -0.3559 -1.4942
 9479TIP3   OH228400   0.881   5.061   2.327 -0.2330 -0.2883  0.3872
 9479TIP3    H128401   0.908   5.037   2.239 -1.3942 -0.6788  0.1144
 9479TIP3    H228402   0.877   5.157   2.326 -0.4528 -0.2996 -0.0622
 9480TIP3   OH228403   7.074   4.269   1.077  0.3122  0.0251 -0.2354
 9480TIP3    H128404   7.130   4.296   1.150  0.7828  1.5324 -1.1090
 9480TIP3    H228405   6.985   4.285   1.108  0.4258 -0.7300  0.5199
 9481TIP3   OH228406   6.190   1.382   2.661  0.1438  0.5902  0.5751
 9481TIP3    H128407   6.247   1.455   2.685  2.1024 -1.4504  2.8307
 9481TIP3    H228408   6.173   1.393   2.568  1.9393  2.8503  0.4390
 9482TIP3   OH228409   4.791   1.154   5.499 -0.4337  0.0488 -0.6681
 9482TIP3    H128410   4.884   1.130   5.499 -0.9474 -2.5079  2.4463
 9482TIP3    H228411   4.791   1.249   5.513  1.7353 -0.0720  0.5533
 9483TIP3   OH228412   3.220   0.629   0.179 -0.0247  0.3684  0.2779
 9483TIP3    H128413   3.221   0.723   0.161  1.1673  0.1759 -0.8824
 9483TIP3    H228414   3.147   0.595   0.126  0.3113  0.4998 -0.2867
 9484TIP3   OH228415   4.499   5.955   4.487 -0.3828  0.4955  0.3514
 9484TIP3    H128416   4.464   5.906   4.561  0.8379  0.0177  0.6384
 9484TIP3    H228417   4.493   5.895   4.413 -0.8732  0.6911  0.2293
 9485TIP3   OH228418   5.197   1.050   4.432  0.2103  0.3019 -0.3385
 9485TIP3    H128419   5.240   1.135   4.435  0.5252  0.1312  0.0319
 9485TIP3    H228420   5.267   0.988   4.412  0.1040  0.0468  0.0663
 9486TIP3   OH228421   2.475   0.604   5.557  0.0294  0.0324  0.7364
 9486TIP3    H128422   2.547   0.544   5.538 -1.4806 -1.2858 -1.2342
 9486TIP3    H228423   2.501   0.686   5.516  0.4304 -0.4365  0.0295
 9487TIP3   OH228424   0.886   3.414   2.580  0.5571 -0.8232  0.3120
 9487TIP3    H128425   0.928   3.491   2.619  0.0113  0.5412 -1.5921
 9487TIP3    H228426   0.796   3.417   2.612 -0.1106  0.7498 -1.4969
 9488TIP3   OH228427   7.160  -0.017   1.128  0.2938  0.0111 -0.4570
 9488TIP3    H128428   7.116   0.044   1.069  0.1720 -0.4586 -0.8600
 9488TIP3    H228429   7.131   0.009   1.215  0.6313  0.8380 -0.5796
 9489TIP3   OH228430   0.065   6.475   1.847  0.1193 -0.6860  0.0716
 9489TIP3    H128431   0.033   6.552   1.894 -1.4639 -0.9124 -0.5388
 9489TIP3    H228432   0.027   6.484   1.759  1.8158 -0.9928 -0.7380
 9490TIP3   OH228433   4.942   3.964   3.532  0.8454  0.2478 -0.3962
 9490TIP3    H128434   5.025   4.002   3.559  0.2146 -0.4352  2.9003
 9490TIP3    H228435   4.879   4.036   3.539  0.5402 -0.1152  0.9152
 9491TIP3   OH228436   0.677   1.217   5.385  0.0909 -0.3252 -0.1036
 9491TIP3    H128437   0.679   1.311   5.401 -0.5312 -0.3589  0.1779
 9491TIP3    H228438   0.715   1.178   5.464  1.6524 -0.2612 -0.7758
 9492TIP3   OH228439   1.221   1.093   0.745 -0.2047  0.0225 -0.2898
 9492TIP3    H128440   1.146   1.079   0.688  0.5567  0.3649 -1.4071
 9492TIP3    H228441   1.268   1.009   0.745 -0.8833 -0.3812  0.8902
 9493TIP3   OH228442   5.195   6.725   2.841 -0.2237  0.4879  0.3162
 9493TIP3    H128443   5.107   6.763   2.837 -0.5204 -0.0925  1.1480
 9493TIP3    H228444   5.197   6.662   2.769 -0.7789 -0.0719  0.7743
 9494TIP3   OH228445   3.859   5.264   2.873 -0.3678  0.3212  0.1101
 9494TIP3    H128446   3.883   5.212   2.949 -0.1553 -0.4692 -0.4889
 9494TIP3    H228447   3.763   5.273   2.880 -0.3316  0.3905  0.5481
 9495TIP3   OH228448   0.556   4.204   0.090 -0.0327 -0.0737 -0.2809
 9495TIP3    H128449   0.533   4.252   0.169  1.1419 -0.7402  0.4977
 9495TIP3    H228450   0.473   4.175   0.054 -0.5746  0.0441  0.8427
 9496TIP3   OH228451   2.052   4.957   1.689  0.2807 -0.3815 -0.2335
 9496TIP3    H128452   2.073   5.050   1.683  0.5381 -0.4216  0.0184
 9496TIP3    H228453   2.041   4.941   1.783 -1.2882 -0.2722 -0.3807
 9497TIP3   OH228454   0.141   5.200   4.695 -0.2176  0.0604  0.5890
 9497TIP3    H128455   0.208   5.257   4.733 -0.1644 -0.4012  1.1903
 9497TIP3    H228456   0.189   5.145   4.633 -0.2338  0.5217  0.1633
 9498TIP3   OH228457   1.758   3.089   5.526 -0.4412 -0.0101 -0.1278
 9498TIP3    H128458   1.681   3.144   5.537 -0.7968 -0.6655  0.7463
 9498TIP3    H228459   1.737   3.009   5.574  0.4508 -0.5256 -0.5813
 9499TIP3   OH228460   4.849   0.396   5.384  0.2328  0.1695  1.1096
 9499TIP3    H128461   4.838   0.302   5.369  1.1074  0.1462  0.5387
 9499TIP3    H228462   4.904   0.426   5.311 -0.2865  1.1820  1.1110
 9500TIP3   OH228463   5.020   4.593   1.152 -0.0561 -0.0310  0.1417
 9500TIP3    H128464   5.037   4.661   1.087  1.0608 -0.6951 -0.2981
 9500TIP3    H228465   5.065   4.516   1.118  1.8149 -0.0397  2.3551
 9501TIP3   OH228466   6.851   4.010   2.962 -0.4160 -0.2486 -0.2656
 9501TIP3    H128467   6.870   3.932   2.910  0.0062  0.1679 -0.7516
 9501TIP3    H228468   6.925   4.017   3.023 -0.6361 -0.4308  0.0231
 9502TIP3   OH228469   1.963   6.471   5.365 -0.8372 -0.3231  0.0196
 9502TIP3    H128470   2.028   6.511   5.423 -1.7100 -1.6841  2.0607
 9502TIP3    H228471   2.007   6.394   5.329 -0.0749  0.8683 -1.7568
 9503TIP3   OH228472   2.149   4.377   0.187 -0.0707  0.3897 -0.7876
 9503TIP3    H128473   2.171   4.426   0.267 -0.1345  2.5112 -1.9796
 9503TIP3    H228474   2.060   4.346   0.201  0.7216 -1.3307  0.8703
 9504TIP3   OH228475   5.352   2.621   0.575  0.3558  0.0589 -0.2456
 9504TIP3    H128476   5.357   2.702   0.624 -1.5012  0.4422 -0.6002
 9504TIP3    H228477   5.317   2.647   0.489  0.8390 -0.9575 -0.7713
 9505TIP3   OH228478   4.236   5.136   4.947 -0.6275 -0.4705 -0.2634
 9505TIP3    H128479   4.148   5.104   4.969 -1.0164  0.6292 -0.1444
 9505TIP3    H228480   4.295   5.075   4.992 -1.3697  0.6949  2.5085
 9506TIP3   OH228481   1.662   6.459   5.037  0.2953 -0.0293 -0.1851
 9506TIP3    H128482   1.723   6.385   5.041  0.7468  0.3877  2.4626
 9506TIP3    H228483   1.671   6.503   5.121 -1.7685  1.6233 -0.7185
 9507TIP3   OH228484   1.380   2.659   4.057 -0.7183 -0.0894 -0.0580
 9507TIP3    H128485   1.467   2.645   4.096 -0.0064 -0.6549 -1.7414
 9507TIP3    H228486   1.349   2.741   4.096  0.1745 -0.3470  1.2481
 9508TIP3   OH228487   2.633   3.754   4.183  0.3566 -0.1014  0.2406
 9508TIP3    H128488   2.722   3.718   4.187  0.0163 -1.0650 -0.4589
 9508TIP3    H228489   2.631   3.820   4.252  1.7801  0.3100 -0.0679
 9509TIP3   OH228490   6.323   2.010   5.429 -0.1097 -0.1444 -0.4994
 9509TIP3    H128491   6.355   1.942   5.488  0.7173  0.4758 -0.2256
 9509TIP3    H228492   6.232   1.985   5.411 -0.0408 -0.9165  0.1823
 9510TIP3   OH228493   2.511   0.462   1.310 -0.3170  0.1329 -0.2216
 9510TIP3    H128494   2.577   0.434   1.373  0.6292  1.0109 -0.7943
 9510TIP3    H228495   2.525   0.404   1.235  0.3706  0.8448 -0.6609
 9511TIP3   OH228496   5.557   2.248   1.017  0.5204 -0.6355 -0.5592
 9511TIP3    H128497   5.516   2.213   0.937  0.8763 -0.3241 -0.8814
 9511TIP3    H228498   5.634   2.295   0.986  0.0669  0.4276 -0.1357
 9512TIP3   OH228499   6.784   6.597   2.974  0.4261  0.1850 -0.0128
 9512TIP3    H128500   6.689   6.587   2.969  0.4352 -1.5068  1.8905
 9512TIP3    H228501   6.802   6.674   2.920 -1.7647 -0.5956 -2.0581
 9513TIP3   OH228502   3.923   6.673   5.811  0.9373 -0.2624  0.9823
 9513TIP3    H128503   3.957   6.594   5.852 -1.5237 -1.8749  0.0980
 9513TIP3    H228504   3.846   6.645   5.763 -1.1714  2.9686  2.1127
 9514TIP3   OH228505   2.044   3.987   5.795  0.7075  0.3553  0.0535
 9514TIP3    H128506   1.999   3.915   5.839  0.9518 -1.4952 -2.5511
 9514TIP3    H228507   2.115   4.010   5.855  0.5457 -1.4826  1.0270
 9515TIP3   OH228508   2.548   6.036   4.042  0.1830  0.1209  0.3408
 9515TIP3    H128509   2.610   5.985   3.990 -0.0114 -0.1951  0.4121
 9515TIP3    H228510   2.468   6.038   3.990  0.1833  0.3344  0.3487
 9516TIP3   OH228511   0.459   1.622   5.228  0.4340 -0.1166 -0.7026
 9516TIP3    H128512   0.474   1.560   5.158  0.2629 -0.0464 -0.8022
 9516TIP3    H228513   0.416   1.571   5.297 -0.5154  0.0818 -1.1312
 9517TIP3   OH228514   7.039   4.445   0.838  0.0989 -0.2486 -0.5412
 9517TIP3    H128515   7.075   4.389   0.769 -0.8095 -2.4120  0.6263
 9517TIP3    H228516   7.052   4.395   0.919  0.4519  1.8724  0.7879
 9518TIP3   OH228517   5.798   3.394   1.481 -0.0658 -0.2293  0.1441
 9518TIP3    H128518   5.864   3.338   1.521  0.4509  0.3117  0.0723
 9518TIP3    H228519   5.811   3.480   1.522  0.8420  0.4834 -1.5451
 9519TIP3   OH228520   1.806   2.315   1.771 -0.8665  0.1443 -0.2732
 9519TIP3    H128521   1.788   2.221   1.775 -1.3681  0.2510  0.1090
 9519TIP3    H228522   1.861   2.332   1.847  0.5523 -0.1005 -1.1939
 9520TIP3   OH228523   6.424   0.192   4.358 -0.3790 -0.4337  0.3690
 9520TIP3    H128524   6.381   0.166   4.277 -2.3837  0.7961  0.9605
 9520TIP3    H228525   6.385   0.276   4.380  0.3100 -0.6074  2.4757
 9521TIP3   OH228526   3.646   0.278   0.103 -0.2482  0.4104 -0.4226
 9521TIP3    H128527   3.695   0.329   0.167 -1.8118  0.8429  0.4736
 9521TIP3    H228528   3.564   0.326   0.092 -0.0539  0.3444 -2.7599
 9522TIP3   OH228529   6.220   1.132   4.443  0.2728  0.1900  0.4893
 9522TIP3    H128530   6.151   1.183   4.485  0.3027  0.4393  0.2392
 9522TIP3    H228531   6.207   1.148   4.349  1.3397  1.1046  0.4842
 9523TIP3   OH228532   1.211   5.799   3.383  0.2013  0.0441 -0.1303
 9523TIP3    H128533   1.151   5.872   3.373 -1.4569 -1.2339  0.1385
 9523TIP3    H228534   1.263   5.799   3.303 -2.2231 -0.5992 -1.8221
 9524TIP3   OH228535   4.071   0.904   1.634 -0.4157  0.1453  0.1253
 9524TIP3    H128536   4.133   0.834   1.612 -2.3263 -0.9094 -2.4096
 9524TIP3    H228537   4.102   0.980   1.585 -0.9292 -0.3317 -0.9913
 9525TIP3   OH228538   2.342   6.599   2.332 -0.2312 -0.2991  0.2742
 9525TIP3    H128539   2.291   6.679   2.320  0.0429 -0.0421  0.7908
 9525TIP3    H228540   2.433   6.626   2.320 -0.1382 -0.5376  0.4414
 9526TIP3   OH228541   3.797   0.271   1.877 -0.3328 -0.0414  0.2621
 9526TIP3    H128542   3.873   0.328   1.867  1.1380 -1.2218  3.3159
 9526TIP3    H228543   3.829   0.184   1.851 -1.1425 -0.2597 -0.0133
 9527TIP3   OH228544   4.746   2.037   2.541  0.1195 -0.1857 -0.4617
 9527TIP3    H128545   4.775   2.115   2.495 -0.1939 -0.5690 -1.3356
 9527TIP3    H228546   4.704   2.070   2.620  1.0234  0.4677 -0.2298
 9528TIP3   OH228547   0.424   0.880   3.040 -0.3897  0.3456 -0.4683
 9528TIP3    H128548   0.356   0.904   3.102  0.3581  1.0754  0.1025
 9528TIP3    H228549   0.402   0.792   3.011  0.7280 -1.2129  2.9685
 9529TIP3   OH228550   2.011   1.791   1.307 -0.0177 -0.4653  0.1048
 9529TIP3    H128551   2.083   1.737   1.342  0.4334  0.1809  0.1970
 9529TIP3    H228552   2.001   1.862   1.370 -0.2417 -0.1402 -0.2872
 9530TIP3   OH228553   4.577   3.298   2.945 -0.0730  0.6705 -0.0303
 9530TIP3    H128554   4.591   3.324   3.036  0.0076 -1.6990  0.6983
 9530TIP3    H228555   4.518   3.365   2.910  1.7383  2.9493  1.0224
 9531TIP3   OH228556   4.403   0.093   5.030 -0.7050 -0.1182 -0.3999
 9531TIP3    H128557   4.342   0.130   4.967 -0.2526  0.4104 -0.5382
 9531TIP3    H228558   4.348   0.049   5.095 -1.1622 -1.7416 -1.7918
 9532TIP3   OH228559   6.858   1.064   4.523 -0.4813 -0.3239  0.0858
 9532TIP3    H128560   6.837   0.981   4.481 -1.0146 -0.6673  1.0016
 9532TIP3    H228561   6.831   1.053   4.614  1.3553  0.1202  0.7428
 9533TIP3   OH228562   6.348   0.857   2.918  0.5522  0.4255  0.4393
 9533TIP3    H128563   6.394   0.836   2.836  0.8279 -0.9903  0.9278
 9533TIP3    H228564   6.418   0.884   2.978  0.6998 -1.0806  0.9793
 9534TIP3   OH228565   5.426   1.950   3.350  0.1031 -0.3522 -0.2506
 9534TIP3    H128566   5.495   1.956   3.417 -0.2944 -1.5205  0.2736
 9534TIP3    H228567   5.351   1.912   3.395  0.1142 -2.0463 -1.5737
 9535TIP3   OH228568   1.424   1.480   0.258  0.6112  0.2801  0.2221
 9535TIP3    H128569   1.370   1.553   0.288 -0.3157  0.2452 -1.2623
 9535TIP3    H228570   1.409   1.411   0.323 -1.5194  0.1228 -0.3526
 9536TIP3   OH228571   1.558   6.287   0.616 -0.4544 -0.5567 -0.0680
 9536TIP3    H128572   1.619   6.352   0.581 -2.2845  0.0540 -2.4041
 9536TIP3    H228573   1.611   6.234   0.675  1.7322  1.4087 -0.1127
 9537TIP3   OH228574   2.182   6.480   1.665 -0.0965  0.4157  0.1303
 9537TIP3    H128575   2.145   6.413   1.722 -1.0915  0.3734 -0.5281
 9537TIP3    H228576   2.256   6.515   1.713 -1.0447  0.5541  1.5440
 9538TIP3   OH228577   4.146   6.745   4.316 -0.3381 -0.2236  0.0610
 9538TIP3    H128578   4.170   6.734   4.408 -0.6644 -1.0114  0.0590
 9538TIP3    H228579   4.114   6.835   4.310  0.5477  0.1419  0.5164
 9539TIP3   OH228580   5.975   5.870   2.826 -0.5822 -0.1931  0.0039
 9539TIP3    H128581   6.036   5.904   2.891 -0.7296  1.7932 -0.8243
 9539TIP3    H228582   5.950   5.783   2.859  0.2624  0.2589  1.9510
 9540TIP3   OH228583   5.595   3.214   0.453 -0.1151  0.1134  0.1424
 9540TIP3    H128584   5.541   3.276   0.502 -3.0113 -0.7563 -1.6597
 9540TIP3    H228585   5.544   3.132   0.455  1.1402 -0.7735 -1.7455
 9541TIP3   OH228586   5.894   0.867   4.172 -0.0994  0.2826  0.0912
 9541TIP3    H128587   5.815   0.877   4.225 -0.2305 -1.1597  0.2113
 9541TIP3    H228588   5.901   0.949   4.123 -0.3911  1.3517  1.7607
 9542TIP3   OH228589   3.575   1.779   5.505 -0.0153  0.5604  0.3464
 9542TIP3    H128590   3.492   1.819   5.532  0.2294  0.1436  1.7878
 9542TIP3    H228591   3.634   1.853   5.489 -0.2665  0.8273  0.6579
 9543TIP3   OH228592   7.143   1.094   5.634 -0.2843 -0.2661 -0.1454
 9543TIP3    H128593   7.054   1.105   5.599 -1.1510 -2.6341  1.0978
 9543TIP3    H228594   7.195   1.067   5.559 -0.8732  0.0126 -0.6692
 9544TIP3   OH228595   1.410   0.688   3.361  0.2394 -0.0619  0.1826
 9544TIP3    H128596   1.419   0.613   3.302  1.4096  0.0189  0.2272
 9544TIP3    H228597   1.473   0.752   3.328  1.0829 -0.0967  1.6166
 9545TIP3   OH228598   6.605   1.460   2.678  0.2988  0.1095 -0.3243
 9545TIP3    H128599   6.569   1.373   2.694 -1.2931  0.3614 -2.2327
 9545TIP3    H228600   6.529   1.516   2.666  1.3080  1.5099 -0.4865
 9546TIP3   OH228601   6.911   0.963   5.156  0.1211  0.0882  0.5006
 9546TIP3    H128602   6.935   1.048   5.119  1.0592 -0.4456 -0.1466
 9546TIP3    H228603   6.987   0.908   5.140 -0.8987 -1.1929 -0.0915
 9547TIP3   OH228604   0.495   3.810   5.804 -0.1082  0.1535 -0.5818
 9547TIP3    H128605   0.444   3.729   5.805  0.8550 -0.4743  0.0701
 9547TIP3    H228606   0.431   3.880   5.792 -1.1209 -0.5902  0.4002
 9548TIP3   OH228607   2.764   0.842   3.472 -0.2811  0.1615 -0.6325
 9548TIP3    H128608   2.786   0.753   3.498 -1.2313 -0.9625 -3.3116
 9548TIP3    H228609   2.688   0.865   3.525 -0.1284 -0.6842 -0.0238
 9549TIP3   OH228610   5.145   1.947   1.231 -0.8950  0.1149 -0.3511
 9549TIP3    H128611   5.130   1.864   1.187  1.0824 -1.6927  2.0587
 9549TIP3    H228612   5.232   1.975   1.201 -1.6683  1.5093 -1.3704
 9550TIP3   OH228613   0.514   1.954   1.727 -0.1379  0.5009 -0.8229
 9550TIP3    H128614   0.582   2.008   1.769 -0.2730  1.0556 -1.2921
 9550TIP3    H228615   0.529   1.866   1.759 -0.4931  0.9734  0.7099
 9551TIP3   OH228616   1.058   3.656   4.664 -0.8296 -0.0620 -0.0595
 9551TIP3    H128617   1.014   3.612   4.591 -0.7267 -2.6499  1.3258
 9551TIP3    H228618   1.151   3.639   4.650 -0.6903  0.6383 -0.0434
 9552TIP3   OH228619   0.823   6.219   1.031  0.2678 -0.9187  0.2333
 9552TIP3    H128620   0.843   6.252   0.943 -1.1068 -0.0174  0.2214
 9552TIP3    H228621   0.856   6.288   1.090  0.7847 -1.3098  0.4031
 9553TIP3   OH228622   4.710   6.270   3.448 -0.2567  0.2672 -0.2841
 9553TIP3    H128623   4.784   6.286   3.390 -0.7233  0.4529 -0.8340
 9553TIP3    H228624   4.680   6.357   3.474 -1.2615  0.2467 -1.3218
 9554TIP3   OH228625   6.997   3.112   3.315 -0.1419 -0.0629  0.7266
 9554TIP3    H128626   6.908   3.092   3.286  0.0787  0.3755 -0.2980
 9554TIP3    H228627   7.022   3.037   3.369 -0.8604 -0.5448  0.4077
 9555TIP3   OH228628   2.656   2.746   5.395  0.1475 -0.3435  0.0312
 9555TIP3    H128629   2.705   2.666   5.416 -1.6513 -1.1403  1.3902
 9555TIP3    H228630   2.655   2.795   5.477  0.7445  0.8476 -0.6485
 9556TIP3   OH228631   5.858   1.181   1.296 -0.8609 -0.1521 -0.2331
 9556TIP3    H128632   5.859   1.104   1.352 -0.5908  0.5575  0.7696
 9556TIP3    H228633   5.948   1.213   1.298 -1.2764  1.0470  0.6168
 9557TIP3   OH228634   4.094   4.055   1.885 -0.5346 -0.1917 -0.2604
 9557TIP3    H128635   4.169   4.114   1.890  0.4710 -1.3205 -1.4056
 9557TIP3    H228636   4.042   4.089   1.812  0.4099 -1.0610 -1.3883
 9558TIP3   OH228637   2.600   5.596   0.830 -0.1531 -0.1479  0.8675
 9558TIP3    H128638   2.526   5.551   0.872 -0.1271 -0.0637  1.0031
 9558TIP3    H228639   2.611   5.550   0.747 -0.2085 -0.3131  0.9498
 9559TIP3   OH228640   5.945   4.513   2.453  0.0081  0.1481 -0.5525
 9559TIP3    H128641   6.038   4.528   2.469 -0.0645  0.1492 -0.1375
 9559TIP3    H228642   5.940   4.423   2.422  0.3703  0.7070 -2.4151
 9560TIP3   OH228643   3.413   1.378   5.619  0.2149  0.4342 -0.1563
 9560TIP3    H128644   3.344   1.438   5.646 -1.1884 -0.0996 -2.3085
 9560TIP3    H228645   3.374   1.291   5.626  0.1384  0.1934 -2.5619
 9561TIP3   OH228646   5.757   3.947   4.257 -0.0585 -0.0021 -0.7405
 9561TIP3    H128647   5.689   4.012   4.275  0.4039  0.3024 -0.0717
 9561TIP3    H228648   5.758   3.940   4.161 -1.0550 -0.0427 -0.7628
 9562TIP3   OH228649   0.159   1.153   2.523 -0.3744 -0.1408 -0.2629
 9562TIP3    H128650   0.076   1.200   2.523 -0.7100 -0.5590 -2.7663
 9562TIP3    H228651   0.223   1.217   2.492 -0.1710 -0.3906 -0.3624
 9563TIP3   OH228652   3.855   3.250   0.916  0.2041  0.0238  0.2234
 9563TIP3    H128653   3.914   3.317   0.949  0.9173 -1.0595  1.2319
 9563TIP3    H228654   3.771   3.295   0.907  0.6625  1.0545  0.8695
 9564TIP3   OH228655   5.252   5.229   0.734  0.3881  0.5645 -0.0078
 9564TIP3    H128656   5.314   5.207   0.804  0.0140  1.3520  0.5775
 9564TIP3    H228657   5.229   5.320   0.750  0.1334  0.6937 -1.0427
 9565TIP3   OH228658   4.771   2.338   5.411 -0.2025 -0.2852  0.0073
 9565TIP3    H128659   4.833   2.351   5.339  0.1805 -0.7369  0.2545
 9565TIP3    H228660   4.820   2.365   5.489 -0.1145 -1.2017  0.2735
 9566TIP3   OH228661   4.143   3.174   0.873  0.2304  0.2122  0.3466
 9566TIP3    H128662   4.184   3.258   0.895  2.9363 -0.5919 -1.1856
 9566TIP3    H228663   4.080   3.196   0.804  1.0772  0.9897 -0.2101
 9567TIP3   OH228664   1.000   3.623   2.206 -0.2760 -0.2233  0.2492
 9567TIP3    H128665   1.090   3.634   2.234 -0.4121 -0.1211  0.6569
 9567TIP3    H228666   0.974   3.537   2.239 -0.1823 -0.4514 -0.2682
 9568TIP3   OH228667   5.205   4.046   2.914  0.5311 -0.0497  0.2145
 9568TIP3    H128668   5.177   3.979   2.977  0.8368 -2.5870 -2.1503
 9568TIP3    H228669   5.296   4.064   2.937  0.9082 -1.5917  0.0677
 9569TIP3   OH228670   1.851   5.357   4.763  0.5011 -0.1837 -0.1696
 9569TIP3    H128671   1.779   5.419   4.756 -0.0419 -0.9043 -1.0713
 9569TIP3    H228672   1.902   5.369   4.683  0.2831 -1.0348 -0.4421
 9570TIP3   OH228673   6.750   5.022   0.536 -0.4427  0.3978 -0.4740
 9570TIP3    H128674   6.745   5.045   0.628  3.4462  0.6085 -0.1289
 9570TIP3    H228675   6.799   4.940   0.534 -1.1638 -0.0370 -2.3303
 9571TIP3   OH228676   2.940   0.640   2.542  0.0875  0.4772 -0.1721
 9571TIP3    H128677   2.899   0.611   2.623  0.6338  3.2503  1.1821
 9571TIP3    H228678   3.023   0.591   2.538 -0.0711  0.1154  0.7929
 9572TIP3   OH228679   2.591   0.234   5.569  0.3189  0.2210  0.1923
 9572TIP3    H128680   2.684   0.213   5.572  0.5671  1.3255  1.6379
 9572TIP3    H228681   2.567   0.246   5.661 -1.8031 -2.2577  0.0637
 9573TIP3   OH228682   5.043   0.300   0.917  0.1635  0.3639 -0.1360
 9573TIP3    H128683   4.987   0.237   0.874 -0.9788  1.1594  0.1379
 9573TIP3    H228684   5.008   0.386   0.891  0.1669  0.8688  1.3977
 9574TIP3   OH228685   2.706   0.939   2.158 -0.5742 -0.2197  0.4824
 9574TIP3    H128686   2.670   1.016   2.114  0.9445  0.0067 -0.4380
 9574TIP3    H228687   2.709   0.964   2.250  0.3500  1.0285  0.1407
 9575TIP3   OH228688   3.735   2.676   0.621 -0.6140 -0.4794  0.6122
 9575TIP3    H128689   3.669   2.703   0.559  0.0284  0.0743  0.1604
 9575TIP3    H228690   3.708   2.588   0.648 -1.2251 -0.4752  0.0267
 9576TIP3   OH228691   6.082   4.395   2.101 -0.5870  0.6581  0.4741
 9576TIP3    H128692   5.987   4.404   2.099 -0.5733  0.8791  0.7977
 9576TIP3    H228693   6.098   4.309   2.140 -0.6371  1.0434  1.3550
 9577TIP3   OH228694   3.685   2.249   1.897 -0.0780  0.3499  0.5470
 9577TIP3    H128695   3.702   2.333   1.939  1.9128 -0.0274  0.5900
 9577TIP3    H228696   3.658   2.192   1.968 -0.5930  0.7274  0.6578
 9578TIP3   OH228697   0.265   0.573   5.878 -0.1279 -0.1494  1.0261
 9578TIP3    H128698   0.254   0.494   5.825 -1.1212  1.5217 -1.4265
 9578TIP3    H228699   0.341   0.554   5.934  0.2453 -2.4562 -0.1535
 9579TIP3   OH228700   5.463   6.427   2.355  0.2514  0.5286  0.1397
 9579TIP3    H128701   5.544   6.398   2.313 -0.0364  1.7395 -1.3614
 9579TIP3    H228702   5.489   6.503   2.408  0.2380  0.4364  0.2770
 9580TIP3   OH228703   5.078   3.925   2.721 -0.4390 -0.0649  0.0366
 9580TIP3    H128704   5.102   3.980   2.647 -2.1418  1.1705  0.3630
 9580TIP3    H228705   5.138   3.952   2.791 -0.3667  0.4118 -0.2069
 9581TIP3   OH228706   1.754   5.297   3.441 -0.4544  0.2374  0.8114
 9581TIP3    H128707   1.829   5.324   3.494 -0.6668  1.3834  0.5556
 9581TIP3    H228708   1.687   5.362   3.460 -0.1935  1.3241 -1.6219
 9582TIP3   OH228709   4.438   2.465   1.152  0.9417 -0.0715  0.3150
 9582TIP3    H128710   4.390   2.547   1.169 -0.0925 -0.6721  0.3926
 9582TIP3    H228711   4.523   2.494   1.119  0.2078  1.0408 -0.7320
 9583TIP3   OH228712   5.081   4.656   3.225  0.1101  0.0257 -0.6796
 9583TIP3    H128713   5.086   4.561   3.221 -0.5243  0.0302 -1.8019
 9583TIP3    H228714   5.169   4.686   3.201  1.2359 -0.2840  2.5551
 9584TIP3   OH228715   5.619   0.887   2.564  0.0045  0.5294 -0.1009
 9584TIP3    H128716   5.635   0.834   2.642 -2.4373 -0.6323 -0.2998
 9584TIP3    H228717   5.618   0.978   2.596 -1.4868  0.0439  1.3870
 9585TIP3   OH228718   5.945   2.694   4.846  0.0297  0.1625  0.3671
 9585TIP3    H128719   5.871   2.723   4.792 -0.0333  1.2616  1.0161
 9585TIP3    H228720   5.951   2.600   4.830  0.0287  0.4553 -1.5806
 9586TIP3   OH228721   3.003   5.975   3.080  0.3609 -0.7058 -0.0355
 9586TIP3    H128722   2.919   5.937   3.056 -0.3901 -0.7201  2.3438
 9586TIP3    H228723   3.036   5.918   3.150  0.6955  1.1870  1.4378
 9587TIP3   OH228724   4.171   4.782   4.769 -0.2003  0.2734 -0.2107
 9587TIP3    H128725   4.248   4.726   4.781  0.4596  1.3151  0.6217
 9587TIP3    H228726   4.205   4.859   4.723 -1.5404 -0.9289 -3.5259
 9588TIP3   OH228727   2.554   1.042   4.859 -0.2349  0.2221  0.2854
 9588TIP3    H128728   2.511   1.050   4.944  0.1366 -0.1787  0.5125
 9588TIP3    H228729   2.544   0.950   4.835  0.1792  0.2019  0.1755
 9589TIP3   OH228730   2.796   2.828   0.386 -0.1628  0.5673 -0.0772
 9589TIP3    H128731   2.712   2.869   0.365 -0.9864 -0.4669  1.0534
 9589TIP3    H228732   2.861   2.885   0.346 -1.4406  0.8148 -1.9287
 9590TIP3   OH228733   5.348   0.802   4.409  0.0147 -0.0204  0.2697
 9590TIP3    H128734   5.431   0.836   4.375  0.3153 -0.7855  0.2309
 9590TIP3    H228735   5.316   0.744   4.341  0.5904 -1.5180  1.2205
 9591TIP3   OH228736   5.931   5.023   1.691 -0.6650  0.3864 -0.4824
 9591TIP3    H128737   5.874   5.071   1.631 -1.3268  0.8182  0.4662
 9591TIP3    H228738   5.978   5.090   1.739  0.3808  0.0317 -0.9821
 9592TIP3   OH228739   4.207   4.244   2.160  0.2029 -0.3296  0.4345
 9592TIP3    H128740   4.264   4.237   2.083  0.0676  0.1902  0.2828
 9592TIP3    H228741   4.255   4.201   2.230  0.3807 -0.7046  0.0846
 9593TIP3   OH228742  -0.001   5.361   4.049 -0.0799 -0.0730  0.0328
 9593TIP3    H128743   0.093   5.378   4.046 -0.1369  0.6182  1.3584
 9593TIP3    H228744  -0.014   5.305   4.125 -0.8180  0.4945  0.3487
 9594TIP3   OH228745   1.036   6.321   4.185 -0.3113  0.4004  0.2606
 9594TIP3    H128746   1.023   6.278   4.269 -0.1671 -1.3435 -0.5636
 9594TIP3    H228747   1.115   6.280   4.149 -0.0800  1.4740 -0.5058
 9595TIP3   OH228748   6.798   5.533   2.610  0.3893  0.2088 -0.7125
 9595TIP3    H128749   6.834   5.480   2.681  0.6158  0.7813 -0.3874
 9595TIP3    H228750   6.874   5.581   2.576 -0.0580  1.6018  0.1230
 9596TIP3   OH228751   6.553   0.515   5.197  0.2113  0.2194  0.4657
 9596TIP3    H128752   6.473   0.469   5.172 -1.1787  1.3987  2.4324
 9596TIP3    H228753   6.548   0.599   5.151 -0.1454  0.6375  1.2481
 9597TIP3   OH228754   2.751   1.978   5.305 -0.1737 -0.0694 -0.0364
 9597TIP3    H128755   2.709   1.907   5.257 -2.0256  0.8699  0.1000
 9597TIP3    H228756   2.749   1.950   5.396 -2.1754  0.6745  0.2055
 9598TIP3   OH228757   5.210   2.518   2.687 -0.3253  0.4916 -0.2014
 9598TIP3    H128758   5.264   2.485   2.615  0.0437 -0.3033  0.4233
 9598TIP3    H228759   5.251   2.483   2.766 -1.2754  0.5648  0.3412
 9599TIP3   OH228760   1.794   1.657   5.243  0.0882  0.0288 -0.3933
 9599TIP3    H128761   1.854   1.714   5.291 -0.6484  2.1221 -1.8012
 9599TIP3    H228762   1.833   1.648   5.157  0.0853 -1.4988 -0.2596
 9600TIP3   OH228763   1.933   0.360   0.052 -0.2897  0.1590 -0.2515
 9600TIP3    H128764   1.953   0.388   0.142 -3.6667 -1.1494  1.0661
 9600TIP3    H228765   1.867   0.422   0.021 -0.7953 -0.6984 -0.9475
 9601TIP3   OH228766   6.167   5.128   3.760 -0.2450  0.1441  0.4288
 9601TIP3    H128767   6.257   5.161   3.760 -0.6131  1.4030 -2.3075
 9601TIP3    H228768   6.141   5.130   3.852  2.2371  0.5127  1.2053
 9602TIP3   OH228769   0.090   2.817   0.347  0.7852  0.1057 -0.3650
 9602TIP3    H128770   0.123   2.795   0.433  0.2788 -0.2278 -0.2494
 9602TIP3    H228771   0.147   2.887   0.316  2.2254 -1.1244 -0.5949
 9603TIP3   OH228772   4.107   1.799   3.423 -0.3679  0.1465  0.0091
 9603TIP3    H128773   4.201   1.787   3.409 -0.3612  0.0293  0.1535
 9603TIP3    H228774   4.076   1.840   3.342 -0.1717  0.2963  0.0078
 9604TIP3   OH228775   2.520   0.592   2.214  0.2284 -0.4230  0.9707
 9604TIP3    H128776   2.581   0.626   2.149 -0.0163 -0.4710  0.7118
 9604TIP3    H228777   2.571   0.585   2.294  1.2092 -2.6353  0.2322
 9605TIP3   OH228778   5.513   2.734   1.842 -0.1218  0.4431 -0.2615
 9605TIP3    H128779   5.542   2.722   1.751 -1.6402  0.7772 -0.8098
 9605TIP3    H228780   5.428   2.777   1.835 -0.4622  0.0853  1.3098
 9606TIP3   OH228781   3.871   1.465   0.778  0.4141  0.6675 -0.2425
 9606TIP3    H128782   3.871   1.384   0.828 -1.5843  1.1117  0.5571
 9606TIP3    H228783   3.951   1.510   0.804  1.7376 -1.1478 -0.9531
 9607TIP3   OH228784   5.422   4.921   4.161  0.5618  0.1224  0.5247
 9607TIP3    H128785   5.503   4.971   4.153  0.0767  1.0829  1.3324
 9607TIP3    H228786   5.424   4.885   4.249 -0.9308  2.1403  1.4626
 9608TIP3   OH228787   2.608   3.078   3.744 -0.3485  0.2033 -0.4670
 9608TIP3    H128788   2.585   3.085   3.836 -1.8341  0.8328 -0.8679
 9608TIP3    H228789   2.629   3.168   3.717  0.8030 -0.0772 -0.5885
 9609TIP3   OH228790   3.689   5.600   5.079 -0.5583 -0.2746 -0.6486
 9609TIP3    H128791   3.731   5.627   5.161 -2.6616  0.9915  0.0985
 9609TIP3    H228792   3.664   5.509   5.093 -2.4557  0.4092  0.8973
 9610TIP3   OH228793   0.229   6.514   4.628  0.0398 -0.1202  0.0395
 9610TIP3    H128794   0.205   6.555   4.711  1.7013  0.4183  0.3052
 9610TIP3    H228795   0.214   6.421   4.641  2.9641 -0.4402  2.0528
 9611TIP3   OH228796   4.637   5.601   1.395  0.1304 -0.4973  0.8992
 9611TIP3    H128797   4.611   5.629   1.483  0.0112 -2.1707  1.4392
 9611TIP3    H228798   4.730   5.580   1.402  0.2343 -0.1981  0.4898
 9612TIP3   OH228799   5.273   4.259   0.751  0.2107 -0.4224  0.4296
 9612TIP3    H128800   5.265   4.268   0.656 -0.0484 -1.0159  0.3884
 9612TIP3    H228801   5.189   4.222   0.779 -0.1100  0.7086  1.0292
 9613TIP3   OH228802   1.488   0.719   4.255 -0.6161 -0.0448 -0.4949
 9613TIP3    H128803   1.468   0.694   4.165 -0.3798  0.3826 -0.6676
 9613TIP3    H228804   1.569   0.769   4.249 -0.3577 -0.3846  0.0063
 9614TIP3   OH228805   2.747   6.492   1.641  1.1192  0.2726 -0.3897
 9614TIP3    H128806   2.720   6.563   1.583  2.2315  0.1475 -1.1068
 9614TIP3    H228807   2.833   6.465   1.607  1.4929 -0.2691  0.9064
 9615TIP3   OH228808   6.042   4.533   5.828 -0.4268 -0.6635 -0.4529
 9615TIP3    H128809   6.103   4.462   5.848 -0.2661  0.0813  2.0169
 9615TIP3    H228810   6.095   4.597   5.781  0.7351 -0.1148  1.4782
 9616TIP3   OH228811   0.895   4.777   1.218 -0.2709  0.3862 -0.0700
 9616TIP3    H128812   0.821   4.832   1.247  0.5676  1.3937  0.2384
 9616TIP3    H228813   0.936   4.749   1.300  1.1763  1.9438 -0.2075
 9617TIP3   OH228814   2.260   4.603   5.742 -0.2589  0.0199 -0.5109
 9617TIP3    H128815   2.303   4.679   5.702  0.0554 -0.4119 -1.0062
 9617TIP3    H228816   2.328   4.565   5.798 -0.3912  0.0532 -0.3273
 9618TIP3   OH228817   1.491   2.567   3.159  0.6115  0.2881 -0.3208
 9618TIP3    H128818   1.427   2.528   3.099 -0.3014  1.8236 -0.3802
 9618TIP3    H228819   1.483   2.515   3.239  1.5592 -1.5317 -1.3417
 9619TIP3   OH228820   4.525   0.512   3.555 -0.4005 -0.8976 -0.2608
 9619TIP3    H128821   4.490   0.451   3.490  1.7761 -1.5646 -0.9009
 9619TIP3    H228822   4.607   0.543   3.516  0.9407 -1.2607  2.0910
 9620TIP3   OH228823   6.635   0.128   1.673 -0.0751 -0.4571 -0.6714
 9620TIP3    H128824   6.673   0.101   1.589 -1.0813 -0.3944 -1.1583
 9620TIP3    H228825   6.586   0.208   1.652  1.0260  0.5040  0.3061
 9621TIP3   OH228826   2.532   2.411   2.270 -0.5601 -0.2581  0.0399
 9621TIP3    H128827   2.577   2.418   2.354 -1.1714  0.3167  0.3344
 9621TIP3    H228828   2.601   2.389   2.207  0.1246  0.6076  0.4695
 9622TIP3   OH228829   6.319   4.192   1.775 -0.1919 -0.5593  0.5743
 9622TIP3    H128830   6.243   4.230   1.730  0.1237 -0.2887  0.2658
 9622TIP3    H228831   6.374   4.267   1.797  0.5954 -0.8413 -0.3339
 9623TIP3   OH228832   5.602   2.223   1.956 -0.2654 -0.3467  0.1247
 9623TIP3    H128833   5.628   2.163   1.886  1.5138 -0.9653  1.2477
 9623TIP3    H228834   5.645   2.306   1.934  1.1400 -0.8201  0.9526
 9624TIP3   OH228835   6.346   0.391   5.756  0.2443 -0.2016 -0.2670
 9624TIP3    H128836   6.363   0.299   5.738  1.1430  0.0239 -0.6009
 9624TIP3    H228837   6.411   0.439   5.705 -0.3703  0.6342 -0.2986
 9625TIP3   OH228838   1.105   6.156   4.651  0.1742 -0.2813  0.4400
 9625TIP3    H128839   1.197   6.151   4.673  0.2712 -1.1386 -0.1180
 9625TIP3    H228840   1.077   6.241   4.685  0.3338 -1.3796  3.6144
 9626TIP3   OH228841   6.652   5.778   5.455 -0.4661 -0.1135 -0.1920
 9626TIP3    H128842   6.588   5.768   5.526 -1.7753 -0.6644 -1.3876
 9626TIP3    H228843   6.609   5.838   5.393  0.8274  0.7033 -0.3294
 9627TIP3   OH228844   2.338   0.125   5.744 -0.4023  0.0319  0.1469
 9627TIP3    H128845   2.375   0.081   5.667 -1.1694 -0.7569  0.2015
 9627TIP3    H228846   2.303   0.053   5.797 -1.5624  0.7011  0.3164
 9628TIP3   OH228847   6.113   2.222   1.612  0.2989  0.1051 -0.0666
 9628TIP3    H128848   6.147   2.239   1.700  1.6381  2.2013 -0.9256
 9628TIP3    H228849   6.018   2.230   1.622  0.5253  2.0924  0.8809
 9629TIP3   OH228850   1.924   3.134   1.022 -0.0806 -0.2810 -0.2893
 9629TIP3    H128851   1.945   3.041   1.015  0.7263  0.0018 -1.9990
 9629TIP3    H228852   1.833   3.140   0.993 -0.3582 -0.6022  0.4796
 9630TIP3   OH228853   1.452   0.895   0.054  0.2470 -0.2945 -0.0326
 9630TIP3    H128854   1.501   0.826   0.009  2.8725 -1.0383  3.5668
 9630TIP3    H228855   1.516   0.963   0.073 -0.5342 -0.1993  2.7521
 9631TIP3   OH228856   6.508   2.173   4.933  0.4496 -0.5296 -0.0644
 9631TIP3    H128857   6.530   2.080   4.923  0.5016 -0.3800 -1.7634
 9631TIP3    H228858   6.418   2.174   4.963 -0.1271 -1.1593 -1.6688
 9632TIP3   OH228859   2.154   3.854   1.618  0.1552 -0.6108 -0.2171
 9632TIP3    H128860   2.204   3.809   1.686  1.0470 -0.5214 -0.7864
 9632TIP3    H228861   2.154   3.946   1.645  2.0619 -0.2593 -1.1806
 9633TIP3   OH228862   3.111   0.752   2.975 -0.4514 -0.3988 -0.1915
 9633TIP3    H128863   3.141   0.770   3.064 -0.1450  1.2845 -0.5871
 9633TIP3    H228864   3.185   0.708   2.934 -1.3648 -3.2201  0.9317
 9634TIP3   OH228865   1.395   3.565   5.258 -0.2500  0.2941 -0.0189
 9634TIP3    H128866   1.389   3.565   5.354 -0.6729 -0.5222 -0.0405
 9634TIP3    H228867   1.304   3.563   5.228 -0.1069 -1.2542 -0.4145
 9635TIP3   OH228868   1.984   1.922   4.270  0.3542 -0.4983 -0.2299
 9635TIP3    H128869   2.050   1.914   4.201  0.9670  0.1017  0.2743
 9635TIP3    H228870   2.029   1.896   4.350  0.2609  0.7876  0.2603
 9636TIP3   OH228871   7.162   2.723   1.137 -0.3616 -0.0992 -0.2311
 9636TIP3    H128872   7.256   2.738   1.137 -0.5416  1.1412 -0.2551
 9636TIP3    H228873   7.144   2.681   1.052  0.2739 -1.2181  0.1647
 9637TIP3   OH228874   1.357   4.838   4.107  0.3298  0.2503 -0.1666
 9637TIP3    H128875   1.302   4.768   4.071  0.2387 -0.0879  0.6179
 9637TIP3    H228876   1.399   4.877   4.030 -0.2360 -0.1353 -0.6866
 9638TIP3   OH228877   0.595   6.684   3.421 -0.1102 -0.1281 -0.1926
 9638TIP3    H128878   0.573   6.777   3.418 -0.0740 -0.0880  0.5245
 9638TIP3    H228879   0.596   6.663   3.515  1.1442 -0.5515 -0.2885
 9639TIP3   OH228880   3.070   2.690   1.722 -0.6926 -0.2712 -0.0444
 9639TIP3    H128881   3.164   2.680   1.704 -0.8913 -0.9706 -0.7654
 9639TIP3    H228882   3.045   2.610   1.767 -1.0746 -0.3817 -0.4403
 9640TIP3   OH228883   3.160   3.537   2.176  0.3516  0.0922  0.1700
 9640TIP3    H128884   3.114   3.457   2.151 -1.1986  0.5594  1.3790
 9640TIP3    H228885   3.163   3.589   2.096 -2.4866  0.6085  0.3017
 9641TIP3   OH228886   3.864   0.710   1.692 -0.3096 -0.2861  0.1199
 9641TIP3    H128887   3.843   0.635   1.636  0.7248  0.2827 -1.0485
 9641TIP3    H228888   3.949   0.740   1.662  1.0633 -0.9041  3.0110
 9642TIP3   OH228889   2.242   6.566   2.843 -0.1872  0.1575  0.3217
 9642TIP3    H128890   2.281   6.567   2.930 -0.2971  1.4752  0.3779
 9642TIP3    H228891   2.148   6.559   2.859 -0.1636 -0.2877  0.2785
 9643TIP3   OH228892   6.299   2.100   4.730  0.2392 -0.0495  0.3913
 9643TIP3    H128893   6.335   2.088   4.642 -0.8224 -2.7188  0.2397
 9643TIP3    H228894   6.215   2.144   4.715 -0.1609 -0.9232 -0.0174
 9644TIP3   OH228895   7.073   0.017   0.289  0.2332  0.1628 -0.1281
 9644TIP3    H128896   7.111   0.075   0.222 -2.1000  0.4192 -1.3416
 9644TIP3    H228897   7.024   0.076   0.347 -0.2233 -0.3484  0.0152
 9645TIP3   OH228898   2.198   4.470   2.361  0.2970  0.1474 -0.2534
 9645TIP3    H128899   2.125   4.452   2.421 -0.8542  0.2483 -1.5645
 9645TIP3    H228900   2.254   4.531   2.409  0.7597 -1.6621  1.6891
 9646TIP3   OH228901   3.125   1.519   5.867 -0.4055 -0.0269  0.3340
 9646TIP3    H128902   3.054   1.583   5.882 -0.5694  0.4288 -1.9745
 9646TIP3    H228903   3.080   1.435   5.857 -0.6440  0.2224 -0.8763
 9647TIP3   OH228904   1.771   5.235   4.008 -0.2205  0.4376 -0.3964
 9647TIP3    H128905   1.771   5.148   3.968 -2.1476  0.1234  0.1696
 9647TIP3    H228906   1.703   5.283   3.961 -0.9675  0.7854  0.9868
 9648TIP3   OH228907   0.953   0.148   4.614 -0.5345  0.8035  0.6043
 9648TIP3    H128908   0.926   0.237   4.634  0.1149  1.0322  0.4885
 9648TIP3    H228909   0.908   0.093   4.678 -0.2973  1.2947  1.1874
 9649TIP3   OH228910   7.017   6.757   0.939 -0.0491 -0.1518  0.6454
 9649TIP3    H128911   7.032   6.830   0.879 -1.2368 -1.0150 -0.7714
 9649TIP3    H228912   6.924   6.761   0.959  0.1202 -0.5528  1.5580
 9650TIP3   OH228913   2.198   2.466   5.005 -0.7402  0.2580  0.0581
 9650TIP3    H128914   2.240   2.381   5.018  0.0261  0.6157 -0.0131
 9650TIP3    H228915   2.252   2.527   5.056 -0.3814  0.9401 -1.0948
 9651TIP3   OH228916   7.115   1.222   1.331 -0.4161  0.8307 -0.1712
 9651TIP3    H128917   7.188   1.283   1.316  1.2163 -0.8238  0.7187
 9651TIP3    H228918   7.079   1.206   1.244  1.5047  0.2645 -0.9176
 9652TIP3   OH228919   3.773   6.000   2.846  0.1536 -0.3741  0.1150
 9652TIP3    H128920   3.756   5.914   2.884 -1.4045 -0.1446 -0.0342
 9652TIP3    H228921   3.779   5.983   2.752  0.1032 -0.3461  0.1074
 9653TIP3   OH228922   4.700   3.801   1.376  0.2700 -0.0672 -0.0892
 9653TIP3    H128923   4.610   3.769   1.365  0.4304 -0.5607 -0.0022
 9653TIP3    H228924   4.746   3.769   1.298  0.0726  1.2818 -0.7803
 9654TIP3   OH228925   3.710   5.240   4.121 -0.1811  0.2199 -0.4711
 9654TIP3    H128926   3.697   5.319   4.175  1.3522  0.3111 -0.1994
 9654TIP3    H228927   3.628   5.193   4.128 -1.0480  1.6619 -0.4197
 9655TIP3   OH228928   6.823   0.829   0.512  0.7219 -0.2522 -0.0656
 9655TIP3    H128929   6.868   0.897   0.462 -1.2847  1.8594  0.8195
 9655TIP3    H228930   6.827   0.860   0.603 -1.3582 -0.5988  0.1855
 9656TIP3   OH228931   1.932   5.400   1.692 -0.1259 -0.0432 -0.0072
 9656TIP3    H128932   2.016   5.379   1.653 -0.9288 -1.0067 -1.3180
 9656TIP3    H228933   1.950   5.472   1.752  1.8520 -1.1160  0.7770
 9657TIP3   OH228934   6.114   4.729   4.596  0.0683 -0.3229  0.0843
 9657TIP3    H128935   6.026   4.721   4.558 -0.1003 -0.8542  0.5694
 9657TIP3    H228936   6.136   4.640   4.625  0.6900 -0.1577  0.1371
 9658TIP3   OH228937   6.238   3.856   2.854  0.3072  0.1058 -0.3743
 9658TIP3    H128938   6.226   3.777   2.801 -0.1430 -0.1924  0.1500
 9658TIP3    H228939   6.331   3.876   2.848  0.2369  0.1785 -1.4066
 9659TIP3   OH228940   2.609   1.647   3.291 -0.3262 -0.4622 -0.0284
 9659TIP3    H128941   2.689   1.636   3.238 -0.4932 -1.1583 -0.1413
 9659TIP3    H228942   2.539   1.654   3.226 -0.3524  0.2227  0.0691
 9660TIP3   OH228943   2.622   3.938   2.934  0.1728 -0.5216 -0.2492
 9660TIP3    H128944   2.631   4.027   2.901 -0.7313 -0.3348 -0.0218
 9660TIP3    H228945   2.693   3.889   2.893 -0.0627  0.0273 -1.3273
 9661TIP3   OH228946   4.426   1.326   3.969  0.0814  0.0510 -0.4004
 9661TIP3    H128947   4.498   1.390   3.973  1.0896 -0.9887 -1.4638
 9661TIP3    H228948   4.430   1.290   3.881 -0.3183 -1.6624  0.2497
 9662TIP3   OH228949   2.381   4.676   5.514 -0.0284 -0.1551 -0.0925
 9662TIP3    H128950   2.332   4.596   5.498 -0.4123 -0.1829  1.1165
 9662TIP3    H228951   2.465   4.646   5.550  0.2731 -0.0542 -0.7090
 9663TIP3   OH228952   0.083   6.324   2.719 -0.2216 -0.1105 -0.4306
 9663TIP3    H128953   0.169   6.285   2.705 -0.4802 -0.2683 -1.7118
 9663TIP3    H228954   0.099   6.418   2.724 -0.1198  0.0175 -2.3394
 9664TIP3   OH228955   4.135   6.548   0.465 -0.6341  0.9146 -0.1991
 9664TIP3    H128956   4.078   6.625   0.464 -0.3808  1.1114  0.4795
 9664TIP3    H228957   4.075   6.474   0.460 -0.8389  1.1534 -2.2338
 9665TIP3   OH228958   4.390   3.134   5.544  0.3081 -0.3002 -0.1965
 9665TIP3    H128959   4.456   3.090   5.597 -0.3290 -0.6945  0.2859
 9665TIP3    H228960   4.307   3.117   5.589 -0.4433 -1.7145 -2.0007
 9666TIP3   OH228961   5.224   3.650   0.079 -0.0692  0.6695 -0.0735
 9666TIP3    H128962   5.161   3.631   0.009  0.7585  0.5810 -0.8135
 9666TIP3    H228963   5.174   3.699   0.144 -0.9697  0.3531 -0.5129
 9667TIP3   OH228964   5.726   0.137   0.808  0.0840  0.0273 -0.8329
 9667TIP3    H128965   5.691   0.219   0.843 -0.1298 -0.3323 -0.1825
 9667TIP3    H228966   5.682   0.126   0.724 -1.2165 -0.2978 -0.1352
 9668TIP3   OH228967   0.759   0.695   2.713  0.2180  0.0160 -0.6458
 9668TIP3    H128968   0.726   0.739   2.635  1.0107  0.6367 -0.6432
 9668TIP3    H228969   0.844   0.736   2.730  1.4359 -2.1509 -1.1657
 9669TIP3   OH228970   2.969   5.659   0.695  0.5623 -0.2230 -0.2155
 9669TIP3    H128971   3.022   5.725   0.739 -2.5963  1.8032  0.9107
 9669TIP3    H228972   2.946   5.699   0.611 -0.3299 -0.4310 -0.0798
 9670TIP3   OH228973   0.965   6.219   2.850 -0.1102 -0.6279  0.3958
 9670TIP3    H128974   1.032   6.264   2.798  1.1456 -1.5107  1.1826
 9670TIP3    H228975   0.977   6.251   2.939 -1.0952 -0.4187  0.4672
 9671TIP3   OH228976   3.087   5.371   4.013 -0.1336 -0.1936  0.2962
 9671TIP3    H128977   3.080   5.278   3.992  0.0258 -0.0406 -0.4935
 9671TIP3    H228978   3.017   5.412   3.962  2.4189  0.6303 -2.8999
 9672TIP3   OH228979   4.923   0.997   5.228 -0.4630  0.0886 -0.0182
 9672TIP3    H128980   4.999   0.986   5.171 -1.1965  0.1524 -1.0363
 9672TIP3    H228981   4.935   1.084   5.267  0.4662 -0.2985  0.5909
 9673TIP3   OH228982   4.340   5.081   1.018  0.0944  0.1327  0.2808
 9673TIP3    H128983   4.374   5.023   1.086  1.2257  1.1867  0.6561
 9673TIP3    H228984   4.253   5.106   1.049  0.4883  0.3872  1.2315
 9674TIP3   OH228985   6.078   4.006   5.156  0.6639  0.4611  0.4716
 9674TIP3    H128986   6.021   4.009   5.232 -0.4313 -0.5292 -0.2741
 9674TIP3    H228987   6.075   3.915   5.127  0.6245  0.9273 -1.0774
 9675TIP3   OH228988   5.527   0.362   4.400  0.1997  0.6485 -0.4997
 9675TIP3    H128989   5.608   0.404   4.430  0.0398 -0.6985  2.0741
 9675TIP3    H228990   5.557   0.289   4.345  0.7369  0.5490 -0.0895
 9676TIP3   OH228991   0.115   5.763   0.655 -0.2618 -0.6021 -0.3202
 9676TIP3    H128992   0.051   5.831   0.676  0.6883  0.2618 -0.1469
 9676TIP3    H228993   0.063   5.682   0.650 -1.3604  0.0736 -0.2155
 9677TIP3   OH228994   3.090   4.386   4.874  0.6750  0.5216  0.1352
 9677TIP3    H128995   3.036   4.425   4.943  0.2104  1.1385 -0.5490
 9677TIP3    H228996   3.098   4.294   4.899 -1.7611  0.0942 -0.3429
 9678TIP3   OH228997   1.774   1.313   0.004 -0.1073 -0.3595 -0.0395
 9678TIP3    H128998   1.691   1.275  -0.025 -0.7476 -0.2311  1.5270
 9678TIP3    H228999   1.830   1.237   0.022 -1.5832 -0.7423  3.6770
 9679TIP3   OH229000   3.718   2.767   2.157 -0.5328  0.2162 -0.1722
 9679TIP3    H129001   3.771   2.844   2.179 -1.7933  0.3792  2.9479
 9679TIP3    H229002   3.715   2.717   2.239 -1.1763 -2.2877 -1.6411
 9680TIP3   OH229003   2.655   1.312   0.263  0.6690 -0.5945  0.0355
 9680TIP3    H129004   2.595   1.338   0.193  0.4441 -0.5253  0.2529
 9680TIP3    H229005   2.740   1.349   0.238  0.0219  1.8565  1.1962
 9681TIP3   OH229006   7.016   4.471   1.565  0.1307  0.3878 -0.2000
 9681TIP3    H129007   7.101   4.442   1.533  0.6240  1.2971  0.2593
 9681TIP3    H229008   6.979   4.523   1.495 -0.1154 -0.1142 -0.4503
 9682TIP3   OH229009   4.823   3.283   5.864 -0.0704  0.1550  0.7264
 9682TIP3    H129010   4.822   3.376   5.840 -1.6097 -0.2408 -0.9868
 9682TIP3    H229011   4.737   3.267   5.902 -0.0700 -0.7018  0.3900
 9683TIP3   OH229012   6.045   2.765   0.021  0.2432  0.4675 -0.0213
 9683TIP3    H129013   6.069   2.676  -0.006  0.5844 -0.1699  2.2421
 9683TIP3    H229014   5.973   2.753   0.083 -0.4171  1.8631 -0.4725
 9684TIP3   OH229015   7.003   5.637   3.969 -0.1370 -0.1491 -0.1627
 9684TIP3    H129016   6.909   5.653   3.975 -0.0889  0.2468 -0.4561
 9684TIP3    H229017   7.042   5.724   3.979  0.1837 -0.2670 -0.4064
 9685TIP3   OH229018   0.773   4.349   0.205 -0.2514 -0.0659  0.2300
 9685TIP3    H129019   0.716   4.365   0.280 -0.0628 -1.3980  0.6709
 9685TIP3    H229020   0.732   4.277   0.158  0.7287 -0.6347  0.2102
 9686TIP3   OH229021   0.228   5.450   2.191 -0.5537 -0.7701 -0.2804
 9686TIP3    H129022   0.140   5.437   2.226 -0.7025  1.1030  0.1111
 9686TIP3    H229023   0.225   5.535   2.148  0.9996 -0.7934 -0.4938
 9687TIP3   OH229024   5.224   5.315   1.118 -0.4265 -0.1885  0.2517
 9687TIP3    H129025   5.243   5.405   1.090  0.0509  0.3984  2.2795
 9687TIP3    H229026   5.139   5.295   1.079 -0.5006  1.1003 -0.3169
 9688TIP3   OH229027   5.004   2.134   5.598 -0.1495 -0.9291 -0.3630
 9688TIP3    H129028   4.982   2.127   5.691  2.6021 -0.8132  0.3912
 9688TIP3    H229029   5.033   2.224   5.586  2.0500 -1.6090 -0.6349
 9689TIP3   OH229030   0.918   5.771   2.239 -0.3029 -0.1321 -0.0716
 9689TIP3    H129031   0.947   5.861   2.223  0.3540 -0.1210  1.0669
 9689TIP3    H229032   0.856   5.753   2.168 -0.3154  1.1516 -0.4182
 9690TIP3   OH229033   1.208   5.177   4.462  0.0315 -0.3212 -0.2455
 9690TIP3    H129034   1.128   5.219   4.493  0.9127  0.9074  0.4402
 9690TIP3    H229035   1.242   5.236   4.395  1.8566  0.7329  1.4895
 9691TIP3   OH229036   4.275   0.199   0.637  0.0571  0.2478  0.3571
 9691TIP3    H129037   4.311   0.239   0.717  0.5118  0.7695 -0.0982
 9691TIP3    H229038   4.255   0.274   0.580  2.1455 -0.1804 -1.0457
 9692TIP3   OH229039   3.358   1.973   3.883 -0.0244 -0.2987  0.5918
 9692TIP3    H129040   3.432   1.935   3.835 -0.0847  0.5017 -0.1537
 9692TIP3    H229041   3.307   1.897   3.912  0.3470 -0.8107 -0.0755
 9693TIP3   OH229042   4.877   6.258   0.141 -0.5769 -0.6091 -0.0031
 9693TIP3    H129043   4.910   6.205   0.214 -0.0496  2.1059  1.8899
 9693TIP3    H229044   4.783   6.262   0.155 -0.5893 -0.8412 -0.0170
 9694TIP3   OH229045   4.531   0.227   2.451  0.1559 -0.0352  0.2063
 9694TIP3    H129046   4.484   0.233   2.534  0.8970 -1.7232  0.7906
 9694TIP3    H229047   4.595   0.157   2.465  2.5588  1.8494 -0.6955
 9695TIP3   OH229048   5.039   4.491   4.656 -0.4177 -0.7390  0.1060
 9695TIP3    H129049   5.118   4.492   4.710 -0.0139  1.4298 -0.4049
 9695TIP3    H229050   4.968   4.506   4.718  0.1166  2.6391  0.1247
 9696TIP3   OH229051   4.513   3.351   0.886  0.2327 -0.4132 -0.1042
 9696TIP3    H129052   4.587   3.301   0.920  0.6285 -1.1996 -2.0085
 9696TIP3    H229053   4.552   3.416   0.829 -0.5393 -1.0643 -1.4072
 9697TIP3   OH229054   0.885   2.631   0.931 -0.0604  0.6838  0.1529
 9697TIP3    H129055   0.890   2.611   0.837 -0.9403  0.9202  0.0449
 9697TIP3    H229056   0.962   2.590   0.968 -0.0604 -0.0067 -0.5747
 9698TIP3   OH229057   3.128   6.087   2.861  0.2101 -0.4314  0.1787
 9698TIP3    H129058   3.193   6.147   2.898  0.5147 -0.9108  0.4438
 9698TIP3    H229059   3.082   6.051   2.938  0.8644 -1.4514  0.1169
 9699TIP3   OH229060   2.849   1.098   1.402  0.0221 -0.5087  0.4533
 9699TIP3    H129061   2.922   1.098   1.340  0.9993 -2.1921  1.5283
 9699TIP3    H229062   2.779   1.049   1.357 -0.2287  0.4963 -0.2951
 9700TIP3   OH229063   5.189   0.938   5.145 -0.0904 -0.1633 -0.0547
 9700TIP3    H129064   5.245   0.871   5.105  0.0590 -0.2090  0.2281
 9700TIP3    H229065   5.199   0.924   5.239 -0.5608 -0.1544 -0.0047
 9701TIP3   OH229066   4.642   5.790   3.033 -0.5914  0.2115  0.2088
 9701TIP3    H129067   4.611   5.810   2.944 -1.1331 -0.2679  0.2795
 9701TIP3    H229068   4.575   5.731   3.068  0.5327 -1.0416  0.2926
 9702TIP3   OH229069   3.254   2.079   2.461  0.6067  0.3569 -0.0657
 9702TIP3    H129070   3.244   2.127   2.379  0.3538  1.1227  0.4028
 9702TIP3    H229071   3.349   2.067   2.470  0.8460  2.3290  0.6595
 9703TIP3   OH229072   2.331   3.570   3.559  0.2987 -0.0105  0.6235
 9703TIP3    H129073   2.249   3.599   3.599  0.3587  0.5255  0.3590
 9703TIP3    H229074   2.399   3.610   3.613  0.3872  1.3440 -0.4299
 9704TIP3   OH229075   1.004   1.371   1.960  0.2032  0.2373 -0.5671
 9704TIP3    H129076   0.945   1.416   2.021  0.9919 -0.0672  0.4669
 9704TIP3    H229077   1.030   1.438   1.898  0.8644  1.0800  0.5764
 9705TIP3   OH229078   2.675   0.091   4.835 -0.0464 -0.4505  0.2746
 9705TIP3    H129079   2.601   0.150   4.846  0.5127  0.2999  0.1440
 9705TIP3    H229080   2.700   0.102   4.743  0.9517  0.2087  0.6060
 9706TIP3   OH229081   4.796   6.716   1.618  0.0151 -0.0410  0.2144
 9706TIP3    H129082   4.807   6.660   1.541 -0.7652  0.9556 -0.6556
 9706TIP3    H229083   4.716   6.765   1.601  0.1498  0.6353  1.4009
 9707TIP3   OH229084   2.333   0.905   5.293 -0.2824 -0.0333  0.1308
 9707TIP3    H129085   2.270   0.834   5.278 -1.0013  0.4064  0.9709
 9707TIP3    H229086   2.412   0.861   5.323 -0.8676 -0.4778  1.0887
 9708TIP3   OH229087   4.068   4.558   1.875  0.0591 -0.3009  0.2268
 9708TIP3    H129088   4.058   4.549   1.970  0.7358 -1.0336  0.2368
 9708TIP3    H229089   4.054   4.470   1.841 -0.5555  0.0328 -0.3973
 9709TIP3   OH229090   5.653   0.114   5.295 -0.2038 -0.0095  0.2677
 9709TIP3    H129091   5.618   0.031   5.261 -1.1750  0.8024 -0.8323
 9709TIP3    H229092   5.708   0.148   5.224 -0.1066  0.4533  0.5588
 9710TIP3   OH229093   4.378   1.530   2.131 -0.2438 -0.0272 -0.4849
 9710TIP3    H129094   4.454   1.584   2.151 -1.0706  0.7470  0.6949
 9710TIP3    H229095   4.408   1.441   2.147  0.3141  0.2914  0.3301
 9711TIP3   OH229096   1.336   2.326   5.600  0.1396 -0.3488  0.0098
 9711TIP3    H129097   1.310   2.381   5.674 -2.3756 -2.2489  0.7038
 9711TIP3    H229098   1.403   2.269   5.636 -0.6254 -0.8407  0.7145
 9712TIP3   OH229099   4.094   2.684   3.369  0.9259 -0.0608  0.6616
 9712TIP3    H129100   4.139   2.602   3.387  2.2134  0.7101  1.1126
 9712TIP3    H229101   4.003   2.668   3.393  0.8854 -1.7332 -0.4867
 9713TIP3   OH229102   5.539   5.651   0.240  0.1296 -0.1658  0.8262
 9713TIP3    H129103   5.518   5.559   0.252 -0.9240  0.0081  0.4076
 9713TIP3    H229104   5.603   5.653   0.169  0.7254 -0.6292  1.3504
 9714TIP3   OH229105   2.232   3.340   3.195  0.0381  0.1275  0.6171
 9714TIP3    H129106   2.268   3.390   3.122  1.1109  1.1281  1.7699
 9714TIP3    H229107   2.138   3.356   3.191  0.0148 -0.2782 -0.8387
 9715TIP3   OH229108   5.743   4.949   0.584 -0.2452 -0.3355 -0.2900
 9715TIP3    H129109   5.824   4.934   0.632 -0.5645  0.7080  0.6217
 9715TIP3    H229110   5.768   4.941   0.492  0.8745 -0.0982 -0.0219
 9716TIP3   OH229111   3.739   1.551   0.517 -0.1955  0.3445  0.0213
 9716TIP3    H129112   3.802   1.618   0.492 -0.9780  1.5376  1.1070
 9716TIP3    H229113   3.755   1.536   0.609 -0.7792 -0.1267  0.0531
 9717TIP3   OH229114   2.081   2.340   0.948  0.0173 -0.2163 -0.5678
 9717TIP3    H129115   2.157   2.353   1.004 -0.4571  0.5585 -0.0967
 9717TIP3    H229116   2.025   2.280   0.997  0.3849 -0.9243 -0.9896
 9718TIP3   OH229117   1.251   5.325   0.595 -0.0946  0.7941 -1.2421
 9718TIP3    H129118   1.168   5.300   0.636 -0.1556 -0.6683 -2.2166
 9718TIP3    H229119   1.234   5.413   0.560 -0.8155  1.0352 -0.3603
 9719TIP3   OH229120   6.865   2.025   4.171 -0.1104  0.2544  0.0138
 9719TIP3    H129121   6.900   2.035   4.082 -0.2644  0.0066 -0.0775
 9719TIP3    H229122   6.897   2.101   4.219  1.5663 -0.5498  0.2664
 9720TIP3   OH229123   3.945   5.075   3.069 -0.7157  0.0918  0.3015
 9720TIP3    H129124   3.925   4.985   3.044  2.1409 -0.5793  0.1396
 9720TIP3    H229125   3.922   5.080   3.162  0.6700 -1.3722  0.7699
 9721TIP3   OH229126   1.687   2.143   2.029 -0.1718  0.0728 -0.3752
 9721TIP3    H129127   1.701   2.063   2.078 -1.5018  0.5710  0.9076
 9721TIP3    H229128   1.757   2.202   2.057  0.2421 -0.3013 -0.6062
 9722TIP3   OH229129   6.912   4.780   3.454 -0.4347 -0.1775  0.4721
 9722TIP3    H129130   6.926   4.753   3.545 -0.9046  0.3094  0.6981
 9722TIP3    H229131   6.946   4.870   3.450 -1.7381  0.3458  0.5622
 9723TIP3   OH229132   4.556   5.686   0.955 -0.0726 -0.1284  0.0681
 9723TIP3    H129133   4.501   5.613   0.925 -1.3984  0.3469  1.2033
 9723TIP3    H229134   4.573   5.738   0.877  0.6934 -1.5127 -0.7148
 9724TIP3   OH229135   4.616   0.969   0.716 -0.0331 -0.0154 -0.6104
 9724TIP3    H129136   4.682   0.952   0.649  1.2230 -0.6293  0.7155
 9724TIP3    H229137   4.639   1.056   0.751 -1.4821  0.9011 -1.8221
 9725TIP3   OH229138   2.258   0.811   2.898 -0.4801  0.3411  0.0332
 9725TIP3    H129139   2.191   0.771   2.954 -0.2093 -1.0055 -0.5632
 9725TIP3    H229140   2.234   0.786   2.809  0.6565  0.0513 -0.2109
 9726TIP3   OH229141   6.157   2.535   1.450 -0.0926 -0.2055  0.3806
 9726TIP3    H129142   6.229   2.472   1.449  0.7071  0.6873 -0.5511
 9726TIP3    H229143   6.170   2.584   1.531 -0.7325 -1.2159  1.1241
 9727TIP3   OH229144   3.143   4.143   1.161  0.6225 -0.2603  0.4913
 9727TIP3    H129145   3.225   4.140   1.111  0.1523  0.4705 -0.3649
 9727TIP3    H229146   3.075   4.149   1.094 -0.3271 -3.0634  1.0857
 9728TIP3   OH229147   4.547   4.499   4.215 -0.0754 -0.0156  0.0718
 9728TIP3    H129148   4.529   4.408   4.242  2.1828 -0.3976  0.5054
 9728TIP3    H229149   4.545   4.496   4.120 -0.3040 -0.4612  0.0863
 9729TIP3   OH229150   1.974   2.653   5.152 -0.0673  0.4329 -0.2272
 9729TIP3    H129151   1.904   2.656   5.087 -0.8845 -1.0818  0.5342
 9729TIP3    H229152   2.053   2.677   5.103 -1.1024  2.3571 -1.0718
 9730TIP3   OH229153   4.546   0.070   0.606 -0.5444  0.7226  0.2910
 9730TIP3    H129154   4.577   0.115   0.527 -0.1063 -0.2890 -0.1200
 9730TIP3    H229155   4.458   0.106   0.620 -2.6553 -2.2431 -3.3335
 9731TIP3   OH229156   0.979   3.507   0.207  0.0302 -0.2635 -0.5111
 9731TIP3    H129157   0.897   3.546   0.176  0.8707  0.3466 -2.0359
 9731TIP3    H229158   1.030   3.491   0.128  0.6450 -2.4107  0.2388
 9732TIP3   OH229159   6.052   0.877   1.441  0.6258  0.4579  0.4222
 9732TIP3    H129160   6.050   0.786   1.409  0.8107  1.1860 -1.8524
 9732TIP3    H229161   5.962   0.896   1.465  0.2301  0.1611 -0.7334
 9733TIP3   OH229162   3.166   0.640   4.768 -0.8131  0.2592 -0.3152
 9733TIP3    H129163   3.145   0.547   4.763 -0.6419  0.2490 -0.8573
 9733TIP3    H229164   3.114   0.681   4.699  1.1126  0.1901 -1.8794
 9734TIP3   OH229165   7.118   1.892   5.131  0.0097 -0.0066  0.5371
 9734TIP3    H129166   7.086   1.856   5.048  0.8322 -0.6700  0.4862
 9734TIP3    H229167   7.163   1.973   5.106 -2.6531  1.6605  0.7586
 9735TIP3   OH229168   1.207   4.015   0.077 -0.4382 -0.3927 -0.3289
 9735TIP3    H129169   1.285   4.050   0.120  0.5675 -1.5855 -1.1180
 9735TIP3    H229170   1.176   3.946   0.136 -0.2913 -0.6135 -0.5101
 9736TIP3   OH229171   5.137   6.607   2.327 -0.4852  0.2781  0.4484
 9736TIP3    H129172   5.195   6.681   2.313  2.1504 -1.6611  0.4049
 9736TIP3    H229173   5.089   6.597   2.245  2.7863 -1.0025 -1.4625
 9737TIP3   OH229174   6.830   3.848   2.648  0.2257  0.5778  0.0417
 9737TIP3    H129175   6.854   3.840   2.555  0.0375 -1.1050  0.1148
 9737TIP3    H229176   6.736   3.831   2.650 -0.0177  1.8507  0.4156
 9738TIP3   OH229177   4.915   2.348   5.145 -0.1560 -0.0066  0.1627
 9738TIP3    H129178   4.983   2.394   5.195  0.2565 -1.7110  1.2632
 9738TIP3    H229179   4.963   2.307   5.073 -0.4913  1.0860 -0.7045
 9739TIP3   OH229180   0.697   0.861   3.023  0.3929 -0.6049 -0.4285
 9739TIP3    H129181   0.602   0.859   3.015  0.3493  1.4380 -0.8035
 9739TIP3    H229182   0.729   0.866   2.933  0.9789 -2.7403 -0.4169
 9740TIP3   OH229183   0.963   6.031   1.320 -0.4977 -0.3081 -0.5271
 9740TIP3    H129184   0.893   6.035   1.385 -0.7184  0.7003 -0.8135
 9740TIP3    H229185   1.037   5.992   1.368 -1.2280 -1.3780 -0.2216
 9741TIP3   OH229186   2.824   5.955   4.763 -0.2287 -0.2176 -0.1804
 9741TIP3    H129187   2.886   5.890   4.796  0.6307  0.6405 -0.0566
 9741TIP3    H229188   2.759   5.963   4.832  0.6507  0.3476  0.6067
 9742TIP3   OH229189   2.180   4.450   2.784 -0.6281  0.0577 -0.2860
 9742TIP3    H129190   2.114   4.382   2.775 -0.1875 -0.6217  1.3726
 9742TIP3    H229191   2.149   4.520   2.726 -0.6894 -1.7883 -2.6639
 9743TIP3   OH229192   5.564   5.126   2.830  0.8326  0.1294 -0.0128
 9743TIP3    H129193   5.590   5.039   2.860  2.3231  0.9415  1.2346
 9743TIP3    H229194   5.519   5.165   2.905 -0.5970  0.1768 -0.8448
 9744TIP3   OH229195   1.475   3.373   4.671 -0.3674 -1.0997  0.9492
 9744TIP3    H129196   1.542   3.440   4.686 -0.0252 -1.2091 -0.0161
 9744TIP3    H229197   1.418   3.379   4.747 -0.6922  0.6996  0.6239
 9745TIP3   OH229198   0.149   6.189   2.345  0.2302 -0.1896  0.0431
 9745TIP3    H129199   0.168   6.194   2.439  2.1966 -1.1890 -0.2598
 9745TIP3    H229200   0.086   6.260   2.330  1.4993  1.4100  1.7430
 9746TIP3   OH229201   5.638   0.372   2.488  0.0846  0.3553 -0.1874
 9746TIP3    H129202   5.550   0.409   2.496  0.6958  1.8613 -0.0857
 9746TIP3    H229203   5.695   0.448   2.474  1.7185 -0.2912  2.3146
 9747TIP3   OH229204   6.665   3.122   2.358  0.8229 -0.1719 -0.3894
 9747TIP3    H129205   6.578   3.133   2.320  0.5321 -0.4578  0.1852
 9747TIP3    H229206   6.650   3.120   2.452  1.1869 -2.2898 -0.3270
 9748TIP3   OH229207   4.560   5.769   2.760 -0.1692 -0.2294 -0.2451
 9748TIP3    H129208   4.603   5.832   2.702 -0.4297 -1.1777 -1.5319
 9748TIP3    H229209   4.490   5.731   2.706  0.2675 -1.9237  0.3197
 9749TIP3   OH229210   0.353   0.720   0.267 -0.9466 -0.1509 -0.0364
 9749TIP3    H129211   0.288   0.664   0.310  0.6930 -1.7826  0.4460
 9749TIP3    H229212   0.340   0.704   0.174 -0.4647 -1.4427  0.0952
   7.20156   6.78970   5.88004   0.00000   0.00000  -2.40052   0.00000  -2.40052  -3.39485
