Title t=  38.00000 step= 19000
44389
    1GLY      N    1   5.459   3.735   1.638
    1GLY    HT1    2   5.363   3.698   1.651
    1GLY    HT2    3   5.516   3.655   1.603
    1GLY    HT3    4   5.469   3.811   1.567
    1GLY     CA    5   5.521   3.783   1.768
    1GLY    HA1    6   5.455   3.861   1.804
    1GLY    HA2    7   5.625   3.806   1.753
    1GLY      C    8   5.515   3.668   1.872
    1GLY      O    9   5.478   3.561   1.834
    2PRO      N   10   5.564   3.687   1.995
    2PRO     CD   11   5.595   3.824   2.045
    2PRO    HD1   12   5.501   3.884   2.051
    2PRO    HD2   13   5.664   3.878   1.978
    2PRO     CA   14   5.547   3.592   2.108
    2PRO     HA   15   5.614   3.510   2.086
    2PRO     CB   16   5.583   3.677   2.236
    2PRO    HB1   17   5.653   3.625   2.304
    2PRO    HB2   18   5.498   3.708   2.300
    2PRO     CG   19   5.648   3.808   2.189
    2PRO    HG1   20   5.626   3.897   2.253
    2PRO    HG2   21   5.758   3.797   2.175
    2PRO      C   22   5.419   3.526   2.118
    2PRO      O   23   5.318   3.585   2.094
    3GLY      N   24   5.416   3.400   2.162
    3GLY     HN   25   5.502   3.353   2.184
    3GLY     CA   26   5.293   3.322   2.148
    3GLY    HA1   27   5.213   3.365   2.090
    3GLY    HA2   28   5.251   3.299   2.245
    3GLY      C   29   5.342   3.195   2.079
    3GLY      O   30   5.463   3.172   2.070
    4ASP      N   31   5.252   3.103   2.038
    4ASP     HN   32   5.155   3.124   2.042
    4ASP     CA   33   5.295   2.992   1.958
    4ASP     HA   34   5.366   2.943   2.023
    4ASP     CB   35   5.172   2.902   1.938
    4ASP    HB1   36   5.191   2.834   1.853
    4ASP    HB2   37   5.092   2.970   1.902
    4ASP     CG   38   5.121   2.824   2.052
    4ASP    OD1   39   5.208   2.756   2.117
    4ASP    OD2   40   4.998   2.810   2.066
    4ASP      C   41   5.355   3.026   1.820
    4ASP      O   42   5.337   3.136   1.766
    5PRO      N   43   5.449   2.942   1.773
    5PRO     CD   44   5.474   2.812   1.823
    5PRO    HD1   45   5.400   2.743   1.776
    5PRO    HD2   46   5.477   2.796   1.933
    5PRO     CA   47   5.525   2.973   1.650
    5PRO     HA   48   5.599   3.048   1.673
    5PRO     CB   49   5.604   2.843   1.614
    5PRO    HB1   50   5.699   2.872   1.566
    5PRO    HB2   51   5.541   2.775   1.553
    5PRO     CG   52   5.610   2.779   1.756
    5PRO    HG1   53   5.630   2.670   1.759
    5PRO    HG2   54   5.684   2.829   1.822
    5PRO      C   55   5.459   3.030   1.524
    5PRO      O   56   5.342   3.008   1.503
    6GLY      N   57   5.526   3.116   1.447
    6GLY     HN   58   5.605   3.159   1.491
    6GLY     CA   59   5.471   3.170   1.322
    6GLY    HA1   60   5.450   3.096   1.247
    6GLY    HA2   61   5.544   3.244   1.293
    6GLY      C   62   5.336   3.244   1.332
    6GLY      O   63   5.304   3.328   1.423
    7SER      N   64   5.254   3.224   1.229
    7SER     HN   65   5.276   3.159   1.158
    7SER     CA   66   5.131   3.309   1.206
    7SER     HA   67   5.159   3.412   1.188
    7SER     CB   68   5.058   3.262   1.080
    7SER    HB1   69   4.975   3.330   1.053
    7SER    HB2   70   5.018   3.160   1.098
    7SER     OG   71   5.151   3.261   0.973
    7SER    HG1   72   5.197   3.177   0.982
    7SER      C   73   5.028   3.308   1.319
    7SER      O   74   4.973   3.203   1.349
    8GLY      N   75   4.997   3.422   1.380
    8GLY     HN   76   5.033   3.504   1.335
    8GLY     CA   77   4.899   3.445   1.484
    8GLY    HA1   78   4.896   3.550   1.510
    8GLY    HA2   79   4.908   3.380   1.569
    8GLY      C   80   4.760   3.419   1.432
    8GLY      O   81   4.728   3.447   1.318
    9ASN      N   82   4.672   3.375   1.528
    9ASN     HN   83   4.703   3.352   1.620
    9ASN     CA   84   4.531   3.344   1.493
    9ASN     HA   85   4.537   3.269   1.416
    9ASN     CB   86   4.440   3.299   1.616
    9ASN    HB1   87   4.442   3.376   1.695
    9ASN    HB2   88   4.490   3.208   1.655
    9ASN     CG   89   4.305   3.246   1.578
    9ASN    OD1   90   4.272   3.211   1.465
    9ASN    ND2   91   4.218   3.233   1.685
    9ASN   HD21   92   4.131   3.186   1.669
    9ASN   HD22   93   4.235   3.281   1.771
    9ASN      C   94   4.471   3.476   1.435
    9ASN      O   95   4.497   3.585   1.491
   10PRO      N   96   4.392   3.482   1.324
   10PRO     CD   97   4.396   3.379   1.222
   10PRO    HD1   98   4.354   3.285   1.264
   10PRO    HD2   99   4.501   3.357   1.194
   10PRO     CA  100   4.318   3.595   1.271
   10PRO     HA  101   4.385   3.666   1.226
   10PRO     CB  102   4.224   3.534   1.162
   10PRO    HB1  103   4.197   3.613   1.089
   10PRO    HB2  104   4.133   3.489   1.208
   10PRO     CG  105   4.311   3.423   1.098
   10PRO    HG1  106   4.243   3.356   1.043
   10PRO    HG2  107   4.383   3.458   1.021
   10PRO      C  108   4.226   3.662   1.386
   10PRO      O  109   4.183   3.595   1.479
   11GLY      N  110   4.207   3.794   1.379
   11GLY     HN  111   4.236   3.844   1.298
   11GLY     CA  112   4.136   3.878   1.479
   11GLY    HA1  113   4.042   3.828   1.496
   11GLY    HA2  114   4.137   3.977   1.437
   11GLY      C  115   4.194   3.906   1.620
   11GLY      O  116   4.293   3.849   1.655
   12SER      N  117   4.135   4.003   1.697
   12SER     HN  118   4.078   4.077   1.661
   12SER     CA  119   4.175   4.041   1.829
   12SER     HA  120   4.224   3.955   1.872
   12SER     CB  121   4.280   4.162   1.830
   12SER    HB1  122   4.369   4.128   1.773
   12SER    HB2  123   4.308   4.195   1.932
   12SER     OG  124   4.237   4.278   1.760
   12SER    HG1  125   4.187   4.340   1.813
   12SER      C  126   4.052   4.086   1.903
   12SER      O  127   3.955   4.129   1.845
   13GLY      N  128   4.049   4.066   2.038
   13GLY     HN  129   4.123   4.018   2.083
   13GLY     CA  130   3.944   4.106   2.127
   13GLY    HA1  131   3.908   4.206   2.108
   13GLY    HA2  132   3.990   4.108   2.225
   13GLY      C  133   3.827   4.013   2.134
   13GLY      O  134   3.788   3.940   2.041
   14ASP      N  135   3.756   4.006   2.255
   14ASP     HN  136   3.786   4.056   2.336
   14ASP     CA  137   3.635   3.936   2.286
   14ASP     HA  138   3.653   3.836   2.248
   14ASP     CB  139   3.611   3.924   2.438
   14ASP    HB1  140   3.509   3.883   2.459
   14ASP    HB2  141   3.624   4.026   2.481
   14ASP     CG  142   3.725   3.849   2.504
   14ASP    OD1  143   3.750   3.737   2.459
   14ASP    OD2  144   3.787   3.891   2.606
   14ASP      C  145   3.506   3.994   2.218
   14ASP      O  146   3.506   4.111   2.173
   15PRO      N  147   3.402   3.912   2.205
   15PRO     CD  148   3.407   3.770   2.218
   15PRO    HD1  149   3.372   3.744   2.321
   15PRO    HD2  150   3.505   3.723   2.194
   15PRO     CA  151   3.287   3.950   2.121
   15PRO     HA  152   3.321   3.979   2.023
   15PRO     CB  153   3.208   3.817   2.121
   15PRO    HB1  154   3.129   3.820   2.043
   15PRO    HB2  155   3.158   3.795   2.218
   15PRO     CG  156   3.320   3.723   2.102
   15PRO    HG1  157   3.292   3.615   2.104
   15PRO    HG2  158   3.379   3.733   2.008
   15PRO      C  159   3.215   4.064   2.187
   15PRO    OT1  160   3.199   4.048   2.313
   15PRO    OT2  161   3.175   4.164   2.121
   16SOD    SOD  162   4.887   4.131   1.516
   17SOD    SOD  163   1.724   3.654   1.451
   18SOD    SOD  164   2.412   5.797   3.858
   19SOD    SOD  165   7.245   3.658   4.030
   20SOD    SOD  166   3.828   1.464   1.691
   21SOD    SOD  167   6.669   1.779   5.711
   22SOD    SOD  168   5.998   4.551   5.937
   23SOD    SOD  169   8.156   6.973   5.249
   24SOD    SOD  170   0.131   7.320   0.425
   25SOD    SOD  171   5.687   6.614   5.647
   26SOD    SOD  172   0.455   3.217   4.336
   27SOD    SOD  173   0.721   3.902   5.543
   28SOD    SOD  174   0.109   1.605   4.682
   29SOD    SOD  175   5.294   4.065   6.297
   30SOD    SOD  176   2.151   0.273   3.552
   31SOD    SOD  177   3.483   3.382   0.323
   32SOD    SOD  178   1.934   7.585   4.256
   33SOD    SOD  179   6.106   5.008   2.620
   34SOD    SOD  180   5.421   1.354   0.025
   35SOD    SOD  181   7.738   4.550   0.514
   36SOD    SOD  182   1.774   2.913   0.174
   37SOD    SOD  183   6.596   4.611   3.273
   38SOD    SOD  184   7.495   1.344   5.194
   39SOD    SOD  185   3.767   3.354   2.605
   40SOD    SOD  186   3.192   4.707   5.626
   41SOD    SOD  187   7.382   1.829   1.126
   42SOD    SOD  188   0.032   6.198   2.502
   43SOD    SOD  189   6.510   3.953   5.082
   44SOD    SOD  190   2.964   5.155   0.036
   45SOD    SOD  191   2.862   2.670   0.226
   46SOD    SOD  192   2.528   2.379   4.104
   47SOD    SOD  193   4.542   6.112   3.658
   48SOD    SOD  194   2.365   1.050   4.672
   49SOD    SOD  195   8.071   0.710   1.404
   50SOD    SOD  196   4.875   3.550   4.438
   51SOD    SOD  197   2.414   0.525   5.542
   52SOD    SOD  198   4.336   5.029   5.691
   53SOD    SOD  199   0.130   4.061   6.303
   54SOD    SOD  200   0.102   4.169   3.776
   55SOD    SOD  201   0.641   5.791   3.739
   56SOD    SOD  202   2.506   2.743   3.638
   57SOD    SOD  203   6.979   0.600   4.861
   58SOD    SOD  204   7.447   7.744   0.771
   59SOD    SOD  205   2.847   4.190   2.860
   60CLA    CLA  206   3.138   0.859   2.324
   61CLA    CLA  207   4.620   0.223   3.998
   62CLA    CLA  208   2.007   1.883   6.456
   63CLA    CLA  209   3.487   0.761   0.554
   64CLA    CLA  210   7.257   3.345   5.411
   65CLA    CLA  211   5.046   1.607   0.289
   66CLA    CLA  212   1.783   6.139   1.830
   67CLA    CLA  213   6.835   1.453   5.538
   68CLA    CLA  214   4.778   5.311   5.625
   69CLA    CLA  215   3.511   5.180   1.858
   70CLA    CLA  216   0.467   1.398   2.521
   71CLA    CLA  217   2.329   7.520   5.377
   72CLA    CLA  218   2.843   4.348   0.410
   73CLA    CLA  219   0.273   5.705   4.321
   74CLA    CLA  220   6.306   5.425   5.812
   75CLA    CLA  221   3.283   0.559   5.324
   76CLA    CLA  222   6.720   1.308   1.335
   77CLA    CLA  223   6.568   7.666   0.374
   78CLA    CLA  224   3.933   1.926   5.498
   79CLA    CLA  225   4.908   4.953   1.553
   80CLA    CLA  226   1.661   4.042   6.528
   81CLA    CLA  227   2.584   1.120   3.081
   82CLA    CLA  228   0.261   4.711   5.010
   83CLA    CLA  229   7.892   6.231   3.879
   84CLA    CLA  230   7.677   3.792   3.777
   85CLA    CLA  231   1.602   0.469   6.537
   86CLA    CLA  232   7.956   7.266   2.909
   87CLA    CLA  233   3.668   5.991   0.152
   88CLA    CLA  234   0.252   6.808   3.312
   89CLA    CLA  235   3.939   2.229   2.621
   90CLA    CLA  236   4.644   5.196   2.832
   91CLA    CLA  237   5.478   5.924   1.762
   92CLA    CLA  238   6.894   0.418   2.206
   93CLA    CLA  239   6.411   4.793   2.983
   94CLA    CLA  240   4.997   4.849   6.413
   95CLA    CLA  241   0.681   3.844   4.775
   96CLA    CLA  242   1.643   6.896   4.226
   97CLA    CLA  243   6.572   7.844   3.652
   98CLA    CLA  244   7.181   6.801   3.275
   99CLA    CLA  245   3.146   5.226   3.485
  100CLA    CLA  246   3.127   6.755   4.260
  101CLA    CLA  247   7.510   1.402   4.679
  102TIP3   OH2  248   5.291   6.114   3.942
  102TIP3    H1  249   5.251   6.096   3.857
  102TIP3    H2  250   5.291   6.030   3.988
  103TIP3   OH2  251   3.164   2.988   5.282
  103TIP3    H1  252   3.170   2.894   5.295
  103TIP3    H2  253   3.156   2.999   5.187
  104TIP3   OH2  254   4.399   6.933   4.965
  104TIP3    H1  255   4.412   6.951   4.872
  104TIP3    H2  256   4.336   6.999   4.994
  105TIP3   OH2  257   2.002   2.448   4.784
  105TIP3    H1  258   1.972   2.514   4.846
  105TIP3    H2  259   1.989   2.488   4.698
  106TIP3   OH2  260   6.404   4.765   1.881
  106TIP3    H1  261   6.456   4.686   1.892
  106TIP3    H2  262   6.347   4.746   1.806
  107TIP3   OH2  263   7.045   3.520   4.108
  107TIP3    H1  264   7.049   3.544   4.201
  107TIP3    H2  265   6.958   3.481   4.097
  108TIP3   OH2  266   5.999   0.757   2.367
  108TIP3    H1  267   6.000   0.743   2.461
  108TIP3    H2  268   6.022   0.849   2.356
  109TIP3   OH2  269   5.073   2.301   1.690
  109TIP3    H1  270   5.138   2.368   1.668
  109TIP3    H2  271   5.102   2.266   1.774
  110TIP3   OH2  272   5.666   6.816   4.749
  110TIP3    H1  273   5.751   6.824   4.793
  110TIP3    H2  274   5.685   6.829   4.656
  111TIP3   OH2  275   5.849   5.081   1.191
  111TIP3    H1  276   5.915   5.025   1.151
  111TIP3    H2  277   5.802   5.120   1.118
  112TIP3   OH2  278   3.905   3.248   2.455
  112TIP3    H1  279   3.925   3.313   2.388
  112TIP3    H2  280   3.935   3.165   2.417
  113TIP3   OH2  281   3.264   2.353   1.070
  113TIP3    H1  282   3.181   2.391   1.100
  113TIP3    H2  283   3.302   2.314   1.149
  114TIP3   OH2  284   5.905   3.261   3.961
  114TIP3    H1  285   5.842   3.223   4.023
  114TIP3    H2  286   5.854   3.274   3.881
  115TIP3   OH2  287   0.694   1.095   6.295
  115TIP3    H1  288   0.733   1.080   6.209
  115TIP3    H2  289   0.755   1.055   6.356
  116TIP3   OH2  290   3.169   4.513   5.830
  116TIP3    H1  291   3.101   4.502   5.896
  116TIP3    H2  292   3.187   4.425   5.799
  117TIP3   OH2  293   4.316   7.791   1.319
  117TIP3    H1  294   4.336   7.752   1.234
  117TIP3    H2  295   4.352   7.729   1.382
  118TIP3   OH2  296   6.191   2.378   2.517
  118TIP3    H1  297   6.102   2.352   2.494
  118TIP3    H2  298   6.189   2.474   2.513
  119TIP3   OH2  299   4.829   1.618   6.731
  119TIP3    H1  300   4.767   1.550   6.760
  119TIP3    H2  301   4.783   1.664   6.661
  120TIP3   OH2  302   3.233   2.793   0.506
  120TIP3    H1  303   3.203   2.750   0.426
  120TIP3    H2  304   3.328   2.785   0.505
  121TIP3   OH2  305   1.466   4.926   2.073
  121TIP3    H1  306   1.560   4.929   2.054
  121TIP3    H2  307   1.432   5.009   2.040
  122TIP3   OH2  308   0.472   2.922   1.598
  122TIP3    H1  309   0.495   2.956   1.685
  122TIP3    H2  310   0.523   2.976   1.537
  123TIP3   OH2  311   6.690   1.613   0.312
  123TIP3    H1  312   6.646   1.531   0.290
  123TIP3    H2  313   6.767   1.615   0.255
  124TIP3   OH2  314   1.134   4.611   0.696
  124TIP3    H1  315   1.116   4.700   0.726
  124TIP3    H2  316   1.229   4.606   0.690
  125TIP3   OH2  317   5.087   2.007   3.602
  125TIP3    H1  318   5.140   1.951   3.545
  125TIP3    H2  319   5.058   2.078   3.545
  126TIP3   OH2  320   1.221   5.254   6.246
  126TIP3    H1  321   1.313   5.277   6.258
  126TIP3    H2  322   1.204   5.273   6.154
  127TIP3   OH2  323   8.030   4.214   3.263
  127TIP3    H1  324   8.072   4.174   3.340
  127TIP3    H2  325   7.936   4.202   3.278
  128TIP3   OH2  326   0.114   5.426   1.918
  128TIP3    H1  327   0.103   5.334   1.895
  128TIP3    H2  328   0.209   5.441   1.912
  129TIP3   OH2  329   4.809   2.918   1.114
  129TIP3    H1  330   4.810   2.970   1.194
  129TIP3    H2  331   4.726   2.869   1.118
  130TIP3   OH2  332   5.528   7.544   3.058
  130TIP3    H1  333   5.499   7.462   3.018
  130TIP3    H2  334   5.613   7.523   3.096
  131TIP3   OH2  335   5.772   6.630   4.512
  131TIP3    H1  336   5.849   6.661   4.561
  131TIP3    H2  337   5.773   6.535   4.524
  132TIP3   OH2  338   0.544   4.418   0.299
  132TIP3    H1  339   0.626   4.397   0.255
  132TIP3    H2  340   0.476   4.376   0.246
  133TIP3   OH2  341   3.830   0.361   2.030
  133TIP3    H1  342   3.905   0.309   2.061
  133TIP3    H2  343   3.780   0.300   1.976
  134TIP3   OH2  344   5.600   1.522   1.567
  134TIP3    H1  345   5.522   1.499   1.517
  134TIP3    H2  346   5.579   1.608   1.604
  135TIP3   OH2  347   3.298   4.990   1.578
  135TIP3    H1  348   3.381   4.954   1.610
  135TIP3    H2  349   3.234   4.969   1.646
  136TIP3   OH2  350   2.826   6.672   0.940
  136TIP3    H1  351   2.814   6.578   0.952
  136TIP3    H2  352   2.893   6.696   1.004
  137TIP3   OH2  353   3.297   0.543   6.307
  137TIP3    H1  354   3.219   0.569   6.357
  137TIP3    H2  355   3.364   0.606   6.333
  138TIP3   OH2  356   4.314   0.219   3.785
  138TIP3    H1  357   4.379   0.266   3.836
  138TIP3    H2  358   4.300   0.274   3.707
  139TIP3   OH2  359   5.203   5.218   3.783
  139TIP3    H1  360   5.139   5.289   3.781
  139TIP3    H2  361   5.287   5.261   3.763
  140TIP3   OH2  362   1.977   3.344   2.427
  140TIP3    H1  363   1.923   3.286   2.375
  140TIP3    H2  364   2.066   3.312   2.414
  141TIP3   OH2  365   3.077   4.790   4.840
  141TIP3    H1  366   2.999   4.742   4.868
  141TIP3    H2  367   3.146   4.724   4.836
  142TIP3   OH2  368   1.561   5.923   1.188
  142TIP3    H1  369   1.618   5.999   1.187
  142TIP3    H2  370   1.557   5.897   1.281
  143TIP3   OH2  371   5.879   1.458   5.320
  143TIP3    H1  372   5.880   1.403   5.241
  143TIP3    H2  373   5.894   1.396   5.392
  144TIP3   OH2  374   3.034   2.960   4.720
  144TIP3    H1  375   2.996   2.987   4.804
  144TIP3    H2  376   2.982   3.006   4.655
  145TIP3   OH2  377   6.675   2.675   1.174
  145TIP3    H1  378   6.659   2.671   1.079
  145TIP3    H2  379   6.762   2.635   1.184
  146TIP3   OH2  380   5.367   7.229   1.210
  146TIP3    H1  381   5.384   7.160   1.146
  146TIP3    H2  382   5.386   7.311   1.163
  147TIP3   OH2  383   0.698   6.789   0.316
  147TIP3    H1  384   0.744   6.719   0.269
  147TIP3    H2  385   0.617   6.748   0.346
  148TIP3   OH2  386   7.433   2.046   1.164
  148TIP3    H1  387   7.440   2.141   1.159
  148TIP3    H2  388   7.485   2.022   1.241
  149TIP3   OH2  389   3.779   4.759   4.921
  149TIP3    H1  390   3.771   4.847   4.885
  149TIP3    H2  391   3.799   4.773   5.014
  150TIP3   OH2  392   7.105   1.829   4.385
  150TIP3    H1  393   7.185   1.856   4.431
  150TIP3    H2  394   7.125   1.843   4.292
  151TIP3   OH2  395   5.210   4.370   1.520
  151TIP3    H1  396   5.252   4.451   1.551
  151TIP3    H2  397   5.138   4.401   1.466
  152TIP3   OH2  398   2.121   1.066   5.398
  152TIP3    H1  399   2.154   1.154   5.381
  152TIP3    H2  400   2.170   1.037   5.475
  153TIP3   OH2  401   3.477   6.503   6.588
  153TIP3    H1  402   3.565   6.532   6.563
  153TIP3    H2  403   3.473   6.518   6.683
  154TIP3   OH2  404   5.007   7.721   5.034
  154TIP3    H1  405   5.055   7.754   4.958
  154TIP3    H2  406   5.053   7.756   5.109
  155TIP3   OH2  407   2.347   3.444   5.418
  155TIP3    H1  408   2.302   3.474   5.498
  155TIP3    H2  409   2.304   3.362   5.396
  156TIP3   OH2  410   5.607   2.529   2.446
  156TIP3    H1  411   5.640   2.587   2.514
  156TIP3    H2  412   5.546   2.583   2.396
  157TIP3   OH2  413   0.726   4.721   2.872
  157TIP3    H1  414   0.771   4.797   2.836
  157TIP3    H2  415   0.718   4.660   2.799
  158TIP3   OH2  416   5.761   5.016   3.061
  158TIP3    H1  417   5.718   4.951   3.116
  158TIP3    H2  418   5.693   5.079   3.038
  159TIP3   OH2  419   4.305   0.333   6.148
  159TIP3    H1  420   4.323   0.331   6.242
  159TIP3    H2  421   4.385   0.368   6.109
  160TIP3   OH2  422   5.487   5.091   1.087
  160TIP3    H1  423   5.414   5.121   1.033
  160TIP3    H2  424   5.448   5.075   1.173
  161TIP3   OH2  425   7.646   7.252   3.030
  161TIP3    H1  426   7.726   7.268   2.981
  161TIP3    H2  427   7.588   7.210   2.967
  162TIP3   OH2  428   7.060   6.265   0.654
  162TIP3    H1  429   7.106   6.250   0.572
  162TIP3    H2  430   6.967   6.254   0.632
  163TIP3   OH2  431   6.301   6.357   3.309
  163TIP3    H1  432   6.297   6.422   3.239
  163TIP3    H2  433   6.362   6.395   3.373
  164TIP3   OH2  434   2.773   6.222   1.489
  164TIP3    H1  435   2.745   6.192   1.403
  164TIP3    H2  436   2.806   6.143   1.532
  165TIP3   OH2  437   1.274   4.443   2.845
  165TIP3    H1  438   1.207   4.375   2.844
  165TIP3    H2  439   1.341   4.412   2.784
  166TIP3   OH2  440   2.184   1.348   3.056
  166TIP3    H1  441   2.143   1.272   3.099
  166TIP3    H2  442   2.130   1.422   3.085
  167TIP3   OH2  443   4.571   1.680   5.288
  167TIP3    H1  444   4.635   1.617   5.320
  167TIP3    H2  445   4.527   1.712   5.367
  168TIP3   OH2  446   4.559   1.601   2.954
  168TIP3    H1  447   4.651   1.622   2.934
  168TIP3    H2  448   4.555   1.603   3.050
  169TIP3   OH2  449   7.224   6.281   1.938
  169TIP3    H1  450   7.309   6.272   1.980
  169TIP3    H2  451   7.212   6.375   1.927
  170TIP3   OH2  452   3.894   3.264   2.797
  170TIP3    H1  453   3.930   3.292   2.881
  170TIP3    H2  454   3.880   3.170   2.807
  171TIP3   OH2  455   1.030   7.305   6.728
  171TIP3    H1  456   1.065   7.383   6.771
  171TIP3    H2  457   1.108   7.258   6.696
  172TIP3   OH2  458   6.625   1.614   5.307
  172TIP3    H1  459   6.686   1.563   5.359
  172TIP3    H2  460   6.664   1.702   5.303
  173TIP3   OH2  461   0.628   4.161   5.277
  173TIP3    H1  462   0.645   4.114   5.359
  173TIP3    H2  463   0.675   4.110   5.210
  174TIP3   OH2  464   3.076   2.157   3.480
  174TIP3    H1  465   3.067   2.083   3.541
  174TIP3    H2  466   3.170   2.173   3.476
  175TIP3   OH2  467   0.649   0.469   3.147
  175TIP3    H1  468   0.688   0.480   3.234
  175TIP3    H2  469   0.723   0.443   3.092
  176TIP3   OH2  470   6.158   1.644   3.694
  176TIP3    H1  471   6.253   1.660   3.698
  176TIP3    H2  472   6.119   1.723   3.732
  177TIP3   OH2  473   5.896   0.328   4.493
  177TIP3    H1  474   5.832   0.296   4.555
  177TIP3    H2  475   5.970   0.268   4.501
  178TIP3   OH2  476   0.908   6.153   5.674
  178TIP3    H1  477   0.928   6.076   5.726
  178TIP3    H2  478   0.986   6.208   5.681
  179TIP3   OH2  479   4.268   4.550   0.927
  179TIP3    H1  480   4.359   4.573   0.947
  179TIP3    H2  481   4.216   4.614   0.976
  180TIP3   OH2  482   3.749   2.475   2.154
  180TIP3    H1  483   3.797   2.422   2.217
  180TIP3    H2  484   3.802   2.554   2.143
  181TIP3   OH2  485   7.629   5.254   5.952
  181TIP3    H1  486   7.576   5.200   6.010
  181TIP3    H2  487   7.566   5.301   5.898
  182TIP3   OH2  488   3.236   1.279   2.755
  182TIP3    H1  489   3.257   1.192   2.721
  182TIP3    H2  490   3.311   1.333   2.729
  183TIP3   OH2  491   5.026   5.330   4.576
  183TIP3    H1  492   5.093   5.358   4.514
  183TIP3    H2  493   5.008   5.239   4.552
  184TIP3   OH2  494   4.968   2.140   2.050
  184TIP3    H1  495   4.898   2.205   2.047
  184TIP3    H2  496   4.922   2.056   2.042
  185TIP3   OH2  497   3.120   0.186   4.051
  185TIP3    H1  498   3.176   0.134   3.993
  185TIP3    H2  499   3.100   0.127   4.124
  186TIP3   OH2  500   4.349   4.778   2.616
  186TIP3    H1  501   4.372   4.758   2.525
  186TIP3    H2  502   4.415   4.843   2.643
  187TIP3   OH2  503   2.614   6.129   3.147
  187TIP3    H1  504   2.610   6.033   3.142
  187TIP3    H2  505   2.687   6.152   3.088
  188TIP3   OH2  506   6.754   7.635   1.099
  188TIP3    H1  507   6.687   7.703   1.098
  188TIP3    H2  508   6.784   7.629   1.009
  189TIP3   OH2  509   3.619   4.332   4.661
  189TIP3    H1  510   3.694   4.346   4.602
  189TIP3    H2  511   3.622   4.405   4.722
  190TIP3   OH2  512   5.958   7.008   6.226
  190TIP3    H1  513   5.878   7.000   6.173
  190TIP3    H2  514   5.942   6.953   6.302
  191TIP3   OH2  515   6.914   1.299   4.729
  191TIP3    H1  516   6.867   1.369   4.774
  191TIP3    H2  517   6.869   1.289   4.645
  192TIP3   OH2  518   7.662   2.811   3.684
  192TIP3    H1  519   7.630   2.901   3.682
  192TIP3    H2  520   7.750   2.816   3.645
  193TIP3   OH2  521   7.912   0.152   4.912
  193TIP3    H1  522   7.902   0.179   5.003
  193TIP3    H2  523   7.949   0.064   4.917
  194TIP3   OH2  524   6.410   4.442   2.104
  194TIP3    H1  525   6.482   4.506   2.108
  194TIP3    H2  526   6.451   4.363   2.068
  195TIP3   OH2  527   6.394   2.724   0.058
  195TIP3    H1  528   6.303   2.714   0.084
  195TIP3    H2  529   6.400   2.680  -0.027
  196TIP3   OH2  530   4.924   6.522   2.947
  196TIP3    H1  531   4.841   6.512   2.901
  196TIP3    H2  532   4.928   6.447   3.006
  197TIP3   OH2  533   7.047   1.389   2.654
  197TIP3    H1  534   7.005   1.343   2.581
  197TIP3    H2  535   7.044   1.482   2.629
  198TIP3   OH2  536   7.650   1.444   2.996
  198TIP3    H1  537   7.576   1.462   2.937
  198TIP3    H2  538   7.727   1.462   2.943
  199TIP3   OH2  539   6.829   5.151   1.019
  199TIP3    H1  540   6.747   5.173   0.975
  199TIP3    H2  541   6.851   5.064   0.986
  200TIP3   OH2  542   7.231   1.757   2.121
  200TIP3    H1  543   7.283   1.683   2.088
  200TIP3    H2  544   7.196   1.725   2.204
  201TIP3   OH2  545   7.380   6.757   1.191
  201TIP3    H1  546   7.387   6.717   1.277
  201TIP3    H2  547   7.426   6.840   1.199
  202TIP3   OH2  548   6.948   1.844   4.707
  202TIP3    H1  549   6.856   1.824   4.725
  202TIP3    H2  550   6.947   1.931   4.668
  203TIP3   OH2  551   8.111   5.571   3.873
  203TIP3    H1  552   8.200   5.541   3.857
  203TIP3    H2  553   8.063   5.546   3.794
  204TIP3   OH2  554   0.077   7.321   3.855
  204TIP3    H1  555   0.079   7.396   3.796
  204TIP3    H2  556   0.019   7.349   3.927
  205TIP3   OH2  557   3.359   4.295   4.657
  205TIP3    H1  558   3.334   4.368   4.600
  205TIP3    H2  559   3.454   4.305   4.668
  206TIP3   OH2  560   1.765   3.525   4.836
  206TIP3    H1  561   1.681   3.562   4.808
  206TIP3    H2  562   1.741   3.454   4.895
  207TIP3   OH2  563   0.087   4.688   4.469
  207TIP3    H1  564   0.100   4.768   4.518
  207TIP3    H2  565   0.157   4.687   4.404
  208TIP3   OH2  566   3.193   3.238   6.558
  208TIP3    H1  567   3.122   3.280   6.605
  208TIP3    H2  568   3.149   3.191   6.486
  209TIP3   OH2  569   2.241   3.031   1.469
  209TIP3    H1  570   2.259   3.054   1.378
  209TIP3    H2  571   2.175   2.961   1.463
  210TIP3   OH2  572   5.912   5.426   5.192
  210TIP3    H1  573   5.996   5.381   5.181
  210TIP3    H2  574   5.928   5.489   5.263
  211TIP3   OH2  575   6.055   6.652   1.278
  211TIP3    H1  576   6.062   6.677   1.186
  211TIP3    H2  577   5.989   6.712   1.314
  212TIP3   OH2  578   5.236   5.950   4.654
  212TIP3    H1  579   5.181   5.963   4.731
  212TIP3    H2  580   5.256   5.856   4.653
  213TIP3   OH2  581   1.111   5.403   3.937
  213TIP3    H1  582   1.043   5.345   3.903
  213TIP3    H2  583   1.136   5.364   4.020
  214TIP3   OH2  584   0.874   3.067   6.511
  214TIP3    H1  585   0.865   3.078   6.416
  214TIP3    H2  586   0.890   2.974   6.523
  215TIP3   OH2  587   3.687   5.027   4.896
  215TIP3    H1  588   3.650   5.098   4.843
  215TIP3    H2  589   3.617   5.004   4.957
  216TIP3   OH2  590   0.250   3.687   0.609
  216TIP3    H1  591   0.299   3.655   0.533
  216TIP3    H2  592   0.304   3.758   0.644
  217TIP3   OH2  593   0.033   5.591   2.868
  217TIP3    H1  594  -0.021   5.659   2.827
  217TIP3    H2  595  -0.029   5.523   2.892
  218TIP3   OH2  596   5.810   6.488   2.571
  218TIP3    H1  597   5.823   6.416   2.509
  218TIP3    H2  598   5.735   6.460   2.624
  219TIP3   OH2  599   1.544   7.427   0.805
  219TIP3    H1  600   1.467   7.379   0.835
  219TIP3    H2  601   1.529   7.517   0.834
  220TIP3   OH2  602   0.330   1.435   1.491
  220TIP3    H1  603   0.411   1.442   1.442
  220TIP3    H2  604   0.262   1.458   1.428
  221TIP3   OH2  605   2.982   3.189   3.118
  221TIP3    H1  606   3.073   3.161   3.125
  221TIP3    H2  607   2.934   3.109   3.096
  222TIP3   OH2  608   2.629   1.398   1.333
  222TIP3    H1  609   2.551   1.384   1.388
  222TIP3    H2  610   2.687   1.326   1.356
  223TIP3   OH2  611   5.990   1.892   3.708
  223TIP3    H1  612   5.944   1.844   3.639
  223TIP3    H2  613   6.070   1.922   3.666
  224TIP3   OH2  614   1.445   7.289   2.191
  224TIP3    H1  615   1.490   7.373   2.191
  224TIP3    H2  616   1.365   7.305   2.140
  225TIP3   OH2  617   5.988   4.767   4.441
  225TIP3    H1  618   6.008   4.694   4.500
  225TIP3    H2  619   6.037   4.748   4.361
  226TIP3   OH2  620   7.223   5.812   4.127
  226TIP3    H1  621   7.287   5.776   4.065
  226TIP3    H2  622   7.139   5.779   4.096
  227TIP3   OH2  623   3.196   0.306   5.848
  227TIP3    H1  624   3.125   0.369   5.834
  227TIP3    H2  625   3.233   0.330   5.932
  228TIP3   OH2  626   5.624   1.081   6.418
  228TIP3    H1  627   5.648   1.172   6.405
  228TIP3    H2  628   5.540   1.071   6.373
  229TIP3   OH2  629   4.477   4.017   6.002
  229TIP3    H1  630   4.438   4.065   5.929
  229TIP3    H2  631   4.571   4.022   5.986
  230TIP3   OH2  632   8.243   5.746   2.530
  230TIP3    H1  633   8.315   5.687   2.506
  230TIP3    H2  634   8.215   5.716   2.616
  231TIP3   OH2  635   4.220   4.351   6.069
  231TIP3    H1  636   4.309   4.385   6.057
  231TIP3    H2  637   4.176   4.370   5.986
  232TIP3   OH2  638   6.430   0.262   1.088
  232TIP3    H1  639   6.382   0.193   1.134
  232TIP3    H2  640   6.496   0.215   1.038
  233TIP3   OH2  641   2.295   4.714   0.464
  233TIP3    H1  642   2.356   4.666   0.520
  233TIP3    H2  643   2.301   4.671   0.379
  234TIP3   OH2  644   7.847   1.817   1.845
  234TIP3    H1  645   7.941   1.807   1.832
  234TIP3    H2  646   7.817   1.729   1.869
  235TIP3   OH2  647   1.757   3.214   4.135
  235TIP3    H1  648   1.750   3.188   4.226
  235TIP3    H2  649   1.721   3.302   4.132
  236TIP3   OH2  650   4.807   1.723   3.940
  236TIP3    H1  651   4.808   1.794   4.005
  236TIP3    H2  652   4.868   1.752   3.872
  237TIP3   OH2  653   3.279   5.530   4.284
  237TIP3    H1  654   3.266   5.584   4.206
  237TIP3    H2  655   3.243   5.445   4.260
  238TIP3   OH2  656   8.030   4.195   4.593
  238TIP3    H1  657   8.022   4.108   4.632
  238TIP3    H2  658   7.947   4.238   4.613
  239TIP3   OH2  659   7.034   5.322   1.416
  239TIP3    H1  660   6.994   5.348   1.499
  239TIP3    H2  661   6.960   5.309   1.357
  240TIP3   OH2  662   3.630   7.063   6.471
  240TIP3    H1  663   3.563   7.084   6.536
  240TIP3    H2  664   3.698   7.017   6.521
  241TIP3   OH2  665   3.452   1.787   0.636
  241TIP3    H1  666   3.482   1.766   0.724
  241TIP3    H2  667   3.521   1.753   0.579
  242TIP3   OH2  668   0.771   6.206   3.475
  242TIP3    H1  669   0.778   6.285   3.422
  242TIP3    H2  670   0.693   6.162   3.440
  243TIP3   OH2  671   3.935   3.723   1.968
  243TIP3    H1  672   3.867   3.791   1.967
  243TIP3    H2  673   3.894   3.650   2.015
  244TIP3   OH2  674   4.918   7.437   6.727
  244TIP3    H1  675   4.980   7.382   6.678
  244TIP3    H2  676   4.837   7.432   6.677
  245TIP3   OH2  677   6.404   5.686   3.071
  245TIP3    H1  678   6.427   5.777   3.093
  245TIP3    H2  679   6.443   5.634   3.141
  246TIP3   OH2  680   1.835   7.408   0.875
  246TIP3    H1  681   1.800   7.345   0.939
  246TIP3    H2  682   1.757   7.439   0.828
  247TIP3   OH2  683   7.457   6.677   4.492
  247TIP3    H1  684   7.502   6.592   4.490
  247TIP3    H2  685   7.422   6.687   4.403
  248TIP3   OH2  686   7.851   0.122   1.283
  248TIP3    H1  687   7.814   0.149   1.199
  248TIP3    H2  688   7.775   0.106   1.339
  249TIP3   OH2  689   4.898   2.150   3.201
  249TIP3    H1  690   4.861   2.078   3.251
  249TIP3    H2  691   4.963   2.110   3.143
  250TIP3   OH2  692   2.724   1.145   3.519
  250TIP3    H1  693   2.730   1.238   3.500
  250TIP3    H2  694   2.709   1.104   3.433
  251TIP3   OH2  695   4.293   1.875   5.914
  251TIP3    H1  696   4.348   1.938   5.960
  251TIP3    H2  697   4.349   1.797   5.905
  252TIP3   OH2  698   2.959   6.746   1.456
  252TIP3    H1  699   3.021   6.772   1.388
  252TIP3    H2  700   2.905   6.824   1.472
  253TIP3   OH2  701   7.591   3.270   3.418
  253TIP3    H1  702   7.509   3.303   3.456
  253TIP3    H2  703   7.608   3.329   3.345
  254TIP3   OH2  704   0.614   6.958   1.990
  254TIP3    H1  705   0.520   6.937   1.988
  254TIP3    H2  706   0.638   6.967   1.898
  255TIP3   OH2  707   0.139   2.266   5.997
  255TIP3    H1  708   0.182   2.212   6.064
  255TIP3    H2  709   0.071   2.208   5.961
  256TIP3   OH2  710   7.889   5.660   4.776
  256TIP3    H1  711   7.927   5.744   4.750
  256TIP3    H2  712   7.927   5.596   4.716
  257TIP3   OH2  713   4.901   2.979   5.864
  257TIP3    H1  714   4.844   2.954   5.937
  257TIP3    H2  715   4.875   3.069   5.843
  258TIP3   OH2  716   4.586   6.405   1.875
  258TIP3    H1  717   4.637   6.355   1.811
  258TIP3    H2  718   4.624   6.493   1.872
  259TIP3   OH2  719   1.161   7.640   4.907
  259TIP3    H1  720   1.088   7.675   4.855
  259TIP3    H2  721   1.223   7.712   4.912
  260TIP3   OH2  722   3.481   3.276   2.031
  260TIP3    H1  723   3.516   3.222   1.960
  260TIP3    H2  724   3.390   3.290   2.009
  261TIP3   OH2  725   7.344   7.642   0.454
  261TIP3    H1  726   7.329   7.624   0.547
  261TIP3    H2  727   7.273   7.597   0.409
  262TIP3   OH2  728   7.305   6.131   1.401
  262TIP3    H1  729   7.385   6.173   1.368
  262TIP3    H2  730   7.336   6.062   1.459
  263TIP3   OH2  731   6.742   5.944   5.467
  263TIP3    H1  732   6.797   5.885   5.416
  263TIP3    H2  733   6.675   5.973   5.406
  264TIP3   OH2  734   6.713   1.818   3.081
  264TIP3    H1  735   6.648   1.755   3.113
  264TIP3    H2  736   6.720   1.884   3.151
  265TIP3   OH2  737   2.798   4.283   5.695
  265TIP3    H1  738   2.705   4.262   5.681
  265TIP3    H2  739   2.825   4.324   5.613
  266TIP3   OH2  740   5.844   3.112   6.769
  266TIP3    H1  741   5.914   3.051   6.746
  266TIP3    H2  742   5.765   3.074   6.729
  267TIP3   OH2  743   1.575   7.002   5.339
  267TIP3    H1  744   1.606   6.935   5.278
  267TIP3    H2  745   1.486   6.975   5.362
  268TIP3   OH2  746   0.692   5.287   4.358
  268TIP3    H1  747   0.748   5.250   4.289
  268TIP3    H2  748   0.614   5.318   4.312
  269TIP3   OH2  749   0.482   3.696   4.976
  269TIP3    H1  750   0.543   3.731   4.911
  269TIP3    H2  751   0.442   3.774   5.015
  270TIP3   OH2  752   1.904   5.324   3.537
  270TIP3    H1  753   1.928   5.235   3.561
  270TIP3    H2  754   1.840   5.314   3.467
  271TIP3   OH2  755   1.722   4.347   4.941
  271TIP3    H1  756   1.811   4.314   4.950
  271TIP3    H2  757   1.689   4.307   4.861
  272TIP3   OH2  758   2.562   4.450   0.429
  272TIP3    H1  759   2.509   4.404   0.494
  272TIP3    H2  760   2.641   4.396   0.419
  273TIP3   OH2  761   4.512   7.259   5.058
  273TIP3    H1  762   4.569   7.324   5.100
  273TIP3    H2  763   4.477   7.207   5.130
  274TIP3   OH2  764   7.531   1.286   0.902
  274TIP3    H1  765   7.475   1.227   0.852
  274TIP3    H2  766   7.501   1.374   0.877
  275TIP3   OH2  767   3.824   3.819   5.740
  275TIP3    H1  768   3.888   3.882   5.772
  275TIP3    H2  769   3.766   3.804   5.815
  276TIP3   OH2  770   3.455   6.332   1.351
  276TIP3    H1  771   3.442   6.314   1.444
  276TIP3    H2  772   3.540   6.295   1.330
  277TIP3   OH2  773   2.380   5.366   5.174
  277TIP3    H1  774   2.351   5.408   5.093
  277TIP3    H2  775   2.324   5.289   5.182
  278TIP3   OH2  776   6.919   2.427   6.402
  278TIP3    H1  777   6.948   2.337   6.394
  278TIP3    H2  778   6.917   2.444   6.497
  279TIP3   OH2  779   0.667   5.856   5.545
  279TIP3    H1  780   0.721   5.850   5.624
  279TIP3    H2  781   0.656   5.766   5.516
  280TIP3   OH2  782   1.789   2.106   3.257
  280TIP3    H1  783   1.768   2.014   3.271
  280TIP3    H2  784   1.802   2.114   3.162
  281TIP3   OH2  785   7.228   2.480   3.246
  281TIP3    H1  786   7.300   2.540   3.225
  281TIP3    H2  787   7.252   2.443   3.331
  282TIP3   OH2  788   4.339   6.321  -0.005
  282TIP3    H1  789   4.432   6.329   0.019
  282TIP3    H2  790   4.302   6.266   0.064
  283TIP3   OH2  791   6.219   4.085   6.602
  283TIP3    H1  792   6.127   4.101   6.625
  283TIP3    H2  793   6.240   4.000   6.640
  284TIP3   OH2  794   0.164   3.459   3.563
  284TIP3    H1  795   0.226   3.517   3.607
  284TIP3    H2  796   0.139   3.396   3.630
  285TIP3   OH2  797   6.211   2.566   4.235
  285TIP3    H1  798   6.124   2.556   4.196
  285TIP3    H2  799   6.267   2.505   4.186
  286TIP3   OH2  800   2.839   3.445   5.264
  286TIP3    H1  801   2.764   3.496   5.295
  286TIP3    H2  802   2.837   3.366   5.318
  287TIP3   OH2  803   3.301   6.753   3.718
  287TIP3    H1  804   3.277   6.762   3.810
  287TIP3    H2  805   3.255   6.825   3.674
  288TIP3   OH2  806   1.305   0.709   4.118
  288TIP3    H1  807   1.274   0.619   4.124
  288TIP3    H2  808   1.265   0.744   4.039
  289TIP3   OH2  809   1.221   0.247   2.652
  289TIP3    H1  810   1.262   0.220   2.734
  289TIP3    H2  811   1.139   0.198   2.649
  290TIP3   OH2  812   7.708   3.548   3.322
  290TIP3    H1  813   7.700   3.642   3.337
  290TIP3    H2  814   7.803   3.532   3.323
  291TIP3   OH2  815   4.720   7.552   0.547
  291TIP3    H1  816   4.808   7.516   0.537
  291TIP3    H2  817   4.668   7.479   0.580
  292TIP3   OH2  818   1.869   6.054   3.299
  292TIP3    H1  819   1.910   6.100   3.373
  292TIP3    H2  820   1.777   6.079   3.304
  293TIP3   OH2  821   5.957   1.647   6.595
  293TIP3    H1  822   6.003   1.637   6.512
  293TIP3    H2  823   5.900   1.570   6.601
  294TIP3   OH2  824   6.464   7.285   5.495
  294TIP3    H1  825   6.522   7.210   5.477
  294TIP3    H2  826   6.523   7.361   5.495
  295TIP3   OH2  827   1.045   4.646   2.560
  295TIP3    H1  828   1.081   4.708   2.624
  295TIP3    H2  829   1.111   4.577   2.554
  296TIP3   OH2  830   1.917   6.139   5.833
  296TIP3    H1  831   1.884   6.055   5.801
  296TIP3    H2  832   1.879   6.148   5.921
  297TIP3   OH2  833   1.779   0.169   2.026
  297TIP3    H1  834   1.694   0.179   2.069
  297TIP3    H2  835   1.774   0.225   1.948
  298TIP3   OH2  836   8.303   5.842   5.315
  298TIP3    H1  837   8.261   5.782   5.377
  298TIP3    H2  838   8.394   5.844   5.342
  299TIP3   OH2  839   1.650   1.758   4.758
  299TIP3    H1  840   1.680   1.825   4.696
  299TIP3    H2  841   1.659   1.799   4.844
  300TIP3   OH2  842   7.724   4.359   1.618
  300TIP3    H1  843   7.661   4.423   1.585
  300TIP3    H2  844   7.797   4.363   1.557
  301TIP3   OH2  845   7.024   1.357   4.174
  301TIP3    H1  846   7.094   1.318   4.225
  301TIP3    H2  847   6.947   1.304   4.193
  302TIP3   OH2  848   1.188   3.469   1.404
  302TIP3    H1  849   1.228   3.543   1.359
  302TIP3    H2  850   1.096   3.471   1.377
  303TIP3   OH2  851   7.861   4.504   5.015
  303TIP3    H1  852   7.918   4.430   4.995
  303TIP3    H2  853   7.815   4.479   5.094
  304TIP3   OH2  854   4.389   5.428   4.969
  304TIP3    H1  855   4.435   5.492   4.915
  304TIP3    H2  856   4.457   5.389   5.023
  305TIP3   OH2  857   2.285   7.202   0.464
  305TIP3    H1  858   2.363   7.258   0.461
  305TIP3    H2  859   2.260   7.201   0.556
  306TIP3   OH2  860   2.122   5.957   1.293
  306TIP3    H1  861   2.175   5.915   1.360
  306TIP3    H2  862   2.069   6.021   1.341
  307TIP3   OH2  863   5.747   1.864   2.401
  307TIP3    H1  864   5.817   1.850   2.465
  307TIP3    H2  865   5.785   1.841   2.317
  308TIP3   OH2  866   7.404   6.730   1.439
  308TIP3    H1  867   7.493   6.759   1.455
  308TIP3    H2  868   7.359   6.742   1.522
  309TIP3   OH2  869   4.451   0.825   5.150
  309TIP3    H1  870   4.518   0.784   5.094
  309TIP3    H2  871   4.368   0.801   5.109
  310TIP3   OH2  872   3.595   7.399   3.731
  310TIP3    H1  873   3.628   7.321   3.776
  310TIP3    H2  874   3.529   7.435   3.790
  311TIP3   OH2  875   3.313   4.302   4.943
  311TIP3    H1  876   3.405   4.302   4.969
  311TIP3    H2  877   3.315   4.301   4.848
  312TIP3   OH2  878   7.694   1.089   3.992
  312TIP3    H1  879   7.768   1.147   4.011
  312TIP3    H2  880   7.709   1.059   3.902
  313TIP3   OH2  881   5.122   6.302   3.278
  313TIP3    H1  882   5.075   6.342   3.205
  313TIP3    H2  883   5.099   6.355   3.354
  314TIP3   OH2  884   1.668   6.049   5.221
  314TIP3    H1  885   1.734   6.044   5.152
  314TIP3    H2  886   1.616   5.969   5.210
  315TIP3   OH2  887   0.724   2.844   5.138
  315TIP3    H1  888   0.698   2.930   5.106
  315TIP3    H2  889   0.694   2.783   5.070
  316TIP3   OH2  890   6.329   6.656   1.425
  316TIP3    H1  891   6.246   6.655   1.378
  316TIP3    H2  892   6.361   6.566   1.419
  317TIP3   OH2  893   4.258   7.013   1.005
  317TIP3    H1  894   4.186   7.048   0.952
  317TIP3    H2  895   4.239   7.042   1.094
  318TIP3   OH2  896   0.162   3.750   2.640
  318TIP3    H1  897   0.203   3.770   2.555
  318TIP3    H2  898   0.094   3.686   2.619
  319TIP3   OH2  899   5.656   1.103   4.410
  319TIP3    H1  900   5.673   1.168   4.478
  319TIP3    H2  901   5.605   1.150   4.344
  320TIP3   OH2  902   4.742   6.972   4.356
  320TIP3    H1  903   4.766   6.952   4.265
  320TIP3    H2  904   4.654   6.935   4.367
  321TIP3   OH2  905   6.070   7.412   5.728
  321TIP3    H1  906   6.131   7.340   5.745
  321TIP3    H2  907   6.100   7.451   5.647
  322TIP3   OH2  908   3.714   2.180   5.199
  322TIP3    H1  909   3.786   2.243   5.203
  322TIP3    H2  910   3.756   2.097   5.178
  323TIP3   OH2  911   5.537   4.713   1.722
  323TIP3    H1  912   5.520   4.657   1.646
  323TIP3    H2  913   5.556   4.652   1.793
  324TIP3   OH2  914   6.661   6.604   3.585
  324TIP3    H1  915   6.664   6.667   3.657
  324TIP3    H2  916   6.752   6.583   3.567
  325TIP3   OH2  917   4.626   5.277   5.053
  325TIP3    H1  918   4.636   5.189   5.016
  325TIP3    H2  919   4.590   5.264   5.140
  326TIP3   OH2  920   7.794   2.922   0.468
  326TIP3    H1  921   7.769   2.844   0.417
  326TIP3    H2  922   7.890   2.921   0.468
  327TIP3   OH2  923   4.871   4.816   6.125
  327TIP3    H1  924   4.839   4.727   6.115
  327TIP3    H2  925   4.899   4.821   6.217
  328TIP3   OH2  926   0.177   0.233   2.213
  328TIP3    H1  927   0.154   0.245   2.121
  328TIP3    H2  928   0.097   0.251   2.261
  329TIP3   OH2  929   0.317   5.981   0.733
  329TIP3    H1  930   0.409   5.989   0.706
  329TIP3    H2  931   0.317   6.008   0.825
  330TIP3   OH2  932   1.840   2.963   3.792
  330TIP3    H1  933   1.792   2.880   3.792
  330TIP3    H2  934   1.772   3.030   3.783
  331TIP3   OH2  935   5.102   1.835   3.381
  331TIP3    H1  936   5.147   1.864   3.301
  331TIP3    H2  937   5.135   1.746   3.396
  332TIP3   OH2  938   6.931   3.886   1.553
  332TIP3    H1  939   6.851   3.852   1.592
  332TIP3    H2  940   6.947   3.829   1.478
  333TIP3   OH2  941   7.296   4.871   1.588
  333TIP3    H1  942   7.376   4.924   1.581
  333TIP3    H2  943   7.230   4.932   1.621
  334TIP3   OH2  944   2.035   2.492   2.799
  334TIP3    H1  945   1.962   2.490   2.737
  334TIP3    H2  946   2.029   2.409   2.846
  335TIP3   OH2  947   1.219   1.773   0.011
  335TIP3    H1  948   1.204   1.867   0.002
  335TIP3    H2  949   1.236   1.760   0.104
  336TIP3   OH2  950   1.795   7.530   3.462
  336TIP3    H1  951   1.805   7.549   3.556
  336TIP3    H2  952   1.710   7.486   3.456
  337TIP3   OH2  953   5.309   4.619   5.440
  337TIP3    H1  954   5.388   4.567   5.456
  337TIP3    H2  955   5.309   4.633   5.346
  338TIP3   OH2  956   7.905   1.963   5.287
  338TIP3    H1  957   7.900   2.057   5.308
  338TIP3    H2  958   7.873   1.958   5.197
  339TIP3   OH2  959   5.508   6.978   4.915
  339TIP3    H1  960   5.568   6.943   4.850
  339TIP3    H2  961   5.515   6.918   4.989
  340TIP3   OH2  962   6.481   6.718   2.439
  340TIP3    H1  963   6.473   6.682   2.527
  340TIP3    H2  964   6.401   6.768   2.426
  341TIP3   OH2  965   4.159   6.946   3.636
  341TIP3    H1  966   4.071   6.927   3.605
  341TIP3    H2  967   4.158   6.923   3.729
  342TIP3   OH2  968   6.283   7.650   2.065
  342TIP3    H1  969   6.362   7.703   2.057
  342TIP3    H2  970   6.311   7.561   2.045
  343TIP3   OH2  971   3.890   3.988   3.481
  343TIP3    H1  972   3.951   4.062   3.474
  343TIP3    H2  973   3.824   4.004   3.414
  344TIP3   OH2  974   3.507   2.305   5.895
  344TIP3    H1  975   3.416   2.274   5.899
  344TIP3    H2  976   3.500   2.396   5.866
  345TIP3   OH2  977   4.815   1.790   0.565
  345TIP3    H1  978   4.883   1.731   0.535
  345TIP3    H2  979   4.861   1.857   0.615
  346TIP3   OH2  980   6.149   2.149   5.787
  346TIP3    H1  981   6.244   2.157   5.785
  346TIP3    H2  982   6.125   2.125   5.698
  347TIP3   OH2  983   6.992   5.770   1.658
  347TIP3    H1  984   7.046   5.842   1.689
  347TIP3    H2  985   7.044   5.691   1.677
  348TIP3   OH2  986   2.381   6.020   5.371
  348TIP3    H1  987   2.337   5.984   5.448
  348TIP3    H2  988   2.403   5.944   5.317
  349TIP3   OH2  989   3.333   2.796   2.068
  349TIP3    H1  990   3.348   2.703   2.055
  349TIP3    H2  991   3.365   2.814   2.157
  350TIP3   OH2  992   6.861   5.550   2.674
  350TIP3    H1  993   6.937   5.493   2.690
  350TIP3    H2  994   6.896   5.639   2.682
  351TIP3   OH2  995   5.725   3.103   5.637
  351TIP3    H1  996   5.644   3.083   5.591
  351TIP3    H2  997   5.743   3.195   5.616
  352TIP3   OH2  998   4.930   5.972   5.329
  352TIP3    H1  999   4.971   5.891   5.300
  352TIP3    H2 1000   4.836   5.952   5.334
  353TIP3   OH2 1001   6.459   5.798   1.075
  353TIP3    H1 1002   6.504   5.865   1.023
  353TIP3    H2 1003   6.486   5.715   1.035
  354TIP3   OH2 1004   2.646   7.078   0.345
  354TIP3    H1 1005   2.708   7.123   0.403
  354TIP3    H2 1006   2.638   7.137   0.269
  355TIP3   OH2 1007   4.590   2.572   1.701
  355TIP3    H1 1008   4.675   2.545   1.736
  355TIP3    H2 1009   4.608   2.596   1.610
  356TIP3   OH2 1010   7.366   2.707   2.203
  356TIP3    H1 1011   7.378   2.802   2.203
  356TIP3    H2 1012   7.282   2.693   2.159
  357TIP3   OH2 1013   2.752   3.115   3.526
  357TIP3    H1 1014   2.809   3.158   3.589
  357TIP3    H2 1015   2.664   3.144   3.549
  358TIP3   OH2 1016   5.392   1.271   6.407
  358TIP3    H1 1017   5.314   1.260   6.462
  358TIP3    H2 1018   5.459   1.305   6.466
  359TIP3   OH2 1019   2.205   1.773   2.816
  359TIP3    H1 1020   2.110   1.781   2.824
  359TIP3    H2 1021   2.221   1.679   2.815
  360TIP3   OH2 1022   1.006   1.559   3.790
  360TIP3    H1 1023   0.994   1.616   3.714
  360TIP3    H2 1024   1.089   1.587   3.829
  361TIP3   OH2 1025   4.155   5.675   1.353
  361TIP3    H1 1026   4.076   5.715   1.391
  361TIP3    H2 1027   4.225   5.736   1.375
  362TIP3   OH2 1028   4.612   6.578   5.952
  362TIP3    H1 1029   4.707   6.575   5.967
  362TIP3    H2 1030   4.603   6.596   5.859
  363TIP3   OH2 1031   8.139   7.000   1.514
  363TIP3    H1 1032   8.107   6.911   1.522
  363TIP3    H2 1033   8.119   7.041   1.598
  364TIP3   OH2 1034   8.015   6.069   4.487
  364TIP3    H1 1035   8.078   6.131   4.451
  364TIP3    H2 1036   7.945   6.064   4.422
  365TIP3   OH2 1037   0.807   4.376   2.069
  365TIP3    H1 1038   0.730   4.321   2.085
  365TIP3    H2 1039   0.772   4.465   2.063
  366TIP3   OH2 1040   4.374   5.627   4.160
  366TIP3    H1 1041   4.325   5.698   4.119
  366TIP3    H2 1042   4.312   5.555   4.165
  367TIP3   OH2 1043   4.068   4.743   6.782
  367TIP3    H1 1044   4.078   4.714   6.873
  367TIP3    H2 1045   4.001   4.685   6.746
  368TIP3   OH2 1046   5.944   1.748   4.137
  368TIP3    H1 1047   5.929   1.737   4.043
  368TIP3    H2 1048   5.919   1.839   4.154
  369TIP3   OH2 1049   7.054   3.364   4.522
  369TIP3    H1 1050   7.058   3.332   4.612
  369TIP3    H2 1051   7.119   3.311   4.475
  370TIP3   OH2 1052   7.773   1.548   0.775
  370TIP3    H1 1053   7.788   1.476   0.714
  370TIP3    H2 1054   7.789   1.627   0.724
  371TIP3   OH2 1055   0.619   4.216   6.188
  371TIP3    H1 1056   0.583   4.130   6.171
  371TIP3    H2 1057   0.682   4.231   6.117
  372TIP3   OH2 1058   0.739   0.310   4.253
  372TIP3    H1 1059   0.669   0.360   4.211
  372TIP3    H2 1060   0.704   0.283   4.337
  373TIP3   OH2 1061   6.332   4.394   5.475
  373TIP3    H1 1062   6.283   4.466   5.437
  373TIP3    H2 1063   6.271   4.354   5.537
  374TIP3   OH2 1064   3.847   2.752   3.318
  374TIP3    H1 1065   3.911   2.747   3.247
  374TIP3    H2 1066   3.880   2.821   3.375
  375TIP3   OH2 1067   6.290   3.128   4.798
  375TIP3    H1 1068   6.223   3.197   4.808
  375TIP3    H2 1069   6.249   3.050   4.833
  376TIP3   OH2 1070   0.493   4.877   6.652
  376TIP3    H1 1071   0.546   4.858   6.729
  376TIP3    H2 1072   0.409   4.836   6.670
  377TIP3   OH2 1073   1.476   1.096   6.738
  377TIP3    H1 1074   1.463   1.184   6.705
  377TIP3    H2 1075   1.508   1.108   6.827
  378TIP3   OH2 1076   4.298   4.249   0.412
  378TIP3    H1 1077   4.205   4.268   0.398
  378TIP3    H2 1078   4.325   4.201   0.334
  379TIP3   OH2 1079   5.889   3.396   0.158
  379TIP3    H1 1080   5.897   3.308   0.196
  379TIP3    H2 1081   5.827   3.441   0.215
  380TIP3   OH2 1082   2.324   7.209   4.987
  380TIP3    H1 1083   2.275   7.274   5.036
  380TIP3    H2 1084   2.343   7.140   5.051
  381TIP3   OH2 1085   0.809   1.342   1.938
  381TIP3    H1 1086   0.812   1.435   1.962
  381TIP3    H2 1087   0.847   1.339   1.849
  382TIP3   OH2 1088   7.725   2.300   6.329
  382TIP3    H1 1089   7.661   2.350   6.279
  382TIP3    H2 1090   7.790   2.365   6.356
  383TIP3   OH2 1091   3.112   0.660   3.174
  383TIP3    H1 1092   3.019   0.675   3.162
  383TIP3    H2 1093   3.122   0.647   3.269
  384TIP3   OH2 1094   7.881   5.567   2.251
  384TIP3    H1 1095   7.965   5.603   2.223
  384TIP3    H2 1096   7.826   5.569   2.173
  385TIP3   OH2 1097   0.294   4.036   3.112
  385TIP3    H1 1098   0.236   3.988   3.054
  385TIP3    H2 1099   0.361   4.073   3.054
  386TIP3   OH2 1100   6.607   0.439   4.008
  386TIP3    H1 1101   6.542   0.506   4.029
  386TIP3    H2 1102   6.560   0.376   3.953
  387TIP3   OH2 1103   5.877   7.204   4.553
  387TIP3    H1 1104   5.809   7.207   4.619
  387TIP3    H2 1105   5.949   7.156   4.594
  388TIP3   OH2 1106   2.791   6.742   3.066
  388TIP3    H1 1107   2.801   6.837   3.060
  388TIP3    H2 1108   2.760   6.715   2.980
  389TIP3   OH2 1109   2.647   1.430   6.091
  389TIP3    H1 1110   2.645   1.405   6.184
  389TIP3    H2 1111   2.556   1.423   6.062
  390TIP3   OH2 1112   1.112   0.319   4.854
  390TIP3    H1 1113   1.166   0.256   4.806
  390TIP3    H2 1114   1.033   0.269   4.879
  391TIP3   OH2 1115   2.225   6.205   0.932
  391TIP3    H1 1116   2.147   6.162   0.897
  391TIP3    H2 1117   2.197   6.242   1.016
  392TIP3   OH2 1118   2.553   0.322   0.737
  392TIP3    H1 1119   2.583   0.288   0.821
  392TIP3    H2 1120   2.549   0.245   0.680
  393TIP3   OH2 1121   1.269   0.091   2.179
  393TIP3    H1 1122   1.335   0.122   2.116
  393TIP3    H2 1123   1.318   0.074   2.259
  394TIP3   OH2 1124   5.238   5.085   0.031
  394TIP3    H1 1125   5.332   5.094   0.013
  394TIP3    H2 1126   5.195   5.104  -0.052
  395TIP3   OH2 1127   3.733   4.340   3.900
  395TIP3    H1 1128   3.639   4.325   3.886
  395TIP3    H2 1129   3.744   4.434   3.886
  396TIP3   OH2 1130   5.480   4.157   3.555
  396TIP3    H1 1131   5.437   4.120   3.477
  396TIP3    H2 1132   5.486   4.251   3.536
  397TIP3   OH2 1133   1.841   0.934   2.996
  397TIP3    H1 1134   1.913   0.953   2.936
  397TIP3    H2 1135   1.862   0.847   3.031
  398TIP3   OH2 1136   1.320   6.185   3.316
  398TIP3    H1 1137   1.229   6.180   3.346
  398TIP3    H2 1138   1.316   6.239   3.237
  399TIP3   OH2 1139   0.408   0.456   3.435
  399TIP3    H1 1140   0.382   0.392   3.369
  399TIP3    H2 1141   0.358   0.535   3.413
  400TIP3   OH2 1142   5.882   7.504   1.998
  400TIP3    H1 1143   5.895   7.587   2.044
  400TIP3    H2 1144   5.788   7.500   1.981
  401TIP3   OH2 1145   2.529   2.938   3.760
  401TIP3    H1 1146   2.445   2.982   3.744
  401TIP3    H2 1147   2.582   3.004   3.804
  402TIP3   OH2 1148   4.978   4.096   2.255
  402TIP3    H1 1149   4.953   4.134   2.339
  402TIP3    H2 1150   5.072   4.080   2.262
  403TIP3   OH2 1151   8.074   7.428   1.069
  403TIP3    H1 1152   7.996   7.385   1.104
  403TIP3    H2 1153   8.134   7.433   1.143
  404TIP3   OH2 1154   1.262   7.257   4.239
  404TIP3    H1 1155   1.311   7.312   4.300
  404TIP3    H2 1156   1.325   7.191   4.211
  405TIP3   OH2 1157   4.983   3.110   0.424
  405TIP3    H1 1158   4.981   3.119   0.519
  405TIP3    H2 1159   4.975   3.200   0.391
  406TIP3   OH2 1160   4.323   6.745   6.617
  406TIP3    H1 1161   4.380   6.713   6.547
  406TIP3    H2 1162   4.336   6.840   6.617
  407TIP3   OH2 1163   3.079   2.443   5.111
  407TIP3    H1 1164   3.030   2.405   5.038
  407TIP3    H2 1165   3.043   2.401   5.188
  408TIP3   OH2 1166   0.328   5.965   2.274
  408TIP3    H1 1167   0.288   5.912   2.206
  408TIP3    H2 1168   0.336   5.907   2.350
  409TIP3   OH2 1169   2.075   3.308   5.595
  409TIP3    H1 1170   2.119   3.390   5.618
  409TIP3    H2 1171   2.081   3.254   5.674
  410TIP3   OH2 1172   5.794   2.463   4.337
  410TIP3    H1 1173   5.881   2.425   4.344
  410TIP3    H2 1174   5.809   2.556   4.324
  411TIP3   OH2 1175   5.960   1.368   5.582
  411TIP3    H1 1176   5.975   1.393   5.673
  411TIP3    H2 1177   5.980   1.275   5.578
  412TIP3   OH2 1178   1.010   0.093   4.982
  412TIP3    H1 1179   0.943   0.035   5.020
  412TIP3    H2 1180   1.059   0.124   5.058
  413TIP3   OH2 1181   8.032   2.229   3.266
  413TIP3    H1 1182   8.017   2.322   3.246
  413TIP3    H2 1183   7.947   2.195   3.291
  414TIP3   OH2 1184   6.963   4.102   0.076
  414TIP3    H1 1185   6.935   4.178   0.126
  414TIP3    H2 1186   7.052   4.084   0.106
  415TIP3   OH2 1187   4.071   6.312   3.111
  415TIP3    H1 1188   4.020   6.318   3.030
  415TIP3    H2 1189   4.012   6.267   3.172
  416TIP3   OH2 1190   6.988   1.106   6.649
  416TIP3    H1 1191   7.018   1.090   6.560
  416TIP3    H2 1192   6.954   1.022   6.679
  417TIP3   OH2 1193   5.747   4.445   3.261
  417TIP3    H1 1194   5.834   4.481   3.278
  417TIP3    H2 1195   5.726   4.471   3.171
  418TIP3   OH2 1196   2.265   4.958   3.246
  418TIP3    H1 1197   2.283   4.907   3.167
  418TIP3    H2 1198   2.350   4.967   3.289
  419TIP3   OH2 1199   0.051   6.823   6.671
  419TIP3    H1 1200   0.033   6.869   6.589
  419TIP3    H2 1201   0.133   6.777   6.654
  420TIP3   OH2 1202   5.333   1.360   3.328
  420TIP3    H1 1203   5.413   1.313   3.352
  420TIP3    H2 1204   5.296   1.309   3.256
  421TIP3   OH2 1205   3.079   2.676   0.123
  421TIP3    H1 1206   3.164   2.637   0.143
  421TIP3    H2 1207   3.096   2.734   0.049
  422TIP3   OH2 1208   4.009   3.404   2.229
  422TIP3    H1 1209   3.999   3.485   2.278
  422TIP3    H2 1210   4.101   3.380   2.240
  423TIP3   OH2 1211   5.327   5.409   5.723
  423TIP3    H1 1212   5.313   5.376   5.812
  423TIP3    H2 1213   5.409   5.458   5.728
  424TIP3   OH2 1214   0.363   0.160   4.029
  424TIP3    H1 1215   0.452   0.195   4.032
  424TIP3    H2 1216   0.370   0.080   3.977
  425TIP3   OH2 1217   1.356   5.585   4.177
  425TIP3    H1 1218   1.403   5.625   4.103
  425TIP3    H2 1219   1.343   5.494   4.151
  426TIP3   OH2 1220   3.990   3.118   6.483
  426TIP3    H1 1221   4.074   3.140   6.442
  426TIP3    H2 1222   3.936   3.085   6.411
  427TIP3   OH2 1223   2.131   3.889   5.928
  427TIP3    H1 1224   2.139   3.832   6.005
  427TIP3    H2 1225   2.215   3.935   5.925
  428TIP3   OH2 1226   2.216   1.352   2.295
  428TIP3    H1 1227   2.217   1.274   2.239
  428TIP3    H2 1228   2.258   1.324   2.376
  429TIP3   OH2 1229   8.015   1.769   5.120
  429TIP3    H1 1230   8.020   1.860   5.149
  429TIP3    H2 1231   7.934   1.764   5.070
  430TIP3   OH2 1232   3.500   2.040   1.189
  430TIP3    H1 1233   3.419   1.993   1.170
  430TIP3    H2 1234   3.531   2.001   1.271
  431TIP3   OH2 1235   4.567   0.936   0.575
  431TIP3    H1 1236   4.592   0.914   0.665
  431TIP3    H2 1237   4.558   1.031   0.575
  432TIP3   OH2 1238   0.501   3.153   3.479
  432TIP3    H1 1239   0.482   3.067   3.441
  432TIP3    H2 1240   0.458   3.215   3.419
  433TIP3   OH2 1241   2.312   1.758   5.412
  433TIP3    H1 1242   2.269   1.768   5.497
  433TIP3    H2 1243   2.392   1.809   5.420
  434TIP3   OH2 1244   6.198   5.613   4.620
  434TIP3    H1 1245   6.265   5.678   4.644
  434TIP3    H2 1246   6.147   5.656   4.551
  435TIP3   OH2 1247   6.663   6.118   4.850
  435TIP3    H1 1248   6.603   6.171   4.798
  435TIP3    H2 1249   6.616   6.036   4.866
  436TIP3   OH2 1250   6.891   6.678   4.056
  436TIP3    H1 1251   6.925   6.736   3.988
  436TIP3    H2 1252   6.914   6.590   4.027
  437TIP3   OH2 1253   1.519   6.243   0.718
  437TIP3    H1 1254   1.572   6.323   0.725
  437TIP3    H2 1255   1.508   6.229   0.624
  438TIP3   OH2 1256   4.457   6.360   1.276
  438TIP3    H1 1257   4.371   6.394   1.302
  438TIP3    H2 1258   4.503   6.346   1.359
  439TIP3   OH2 1259   2.871   5.748   5.361
  439TIP3    H1 1260   2.945   5.797   5.325
  439TIP3    H2 1261   2.886   5.657   5.332
  440TIP3   OH2 1262   5.463   0.905   2.011
  440TIP3    H1 1263   5.553   0.872   2.003
  440TIP3    H2 1264   5.437   0.882   2.100
  441TIP3   OH2 1265   2.478   0.753   0.221
  441TIP3    H1 1266   2.531   0.708   0.155
  441TIP3    H2 1267   2.414   0.803   0.171
  442TIP3   OH2 1268   6.229   0.145   0.125
  442TIP3    H1 1269   6.291   0.133   0.053
  442TIP3    H2 1270   6.248   0.232   0.159
  443TIP3   OH2 1271   2.738   0.569   4.421
  443TIP3    H1 1272   2.834   0.572   4.416
  443TIP3    H2 1273   2.711   0.528   4.339
  444TIP3   OH2 1274   3.111   6.062   0.925
  444TIP3    H1 1275   3.029   6.087   0.968
  444TIP3    H2 1276   3.154   6.003   0.987
  445TIP3   OH2 1277   6.425   7.555   3.367
  445TIP3    H1 1278   6.487   7.502   3.418
  445TIP3    H2 1279   6.407   7.502   3.289
  446TIP3   OH2 1280   5.649   3.297   0.762
  446TIP3    H1 1281   5.718   3.278   0.699
  446TIP3    H2 1282   5.673   3.247   0.840
  447TIP3   OH2 1283   0.248   7.624   2.889
  447TIP3    H1 1284   0.308   7.583   2.827
  447TIP3    H2 1285   0.297   7.699   2.924
  448TIP3   OH2 1286   1.979   3.884   4.128
  448TIP3    H1 1287   1.959   3.971   4.092
  448TIP3    H2 1288   1.949   3.890   4.219
  449TIP3   OH2 1289   5.549   5.851   5.382
  449TIP3    H1 1290   5.560   5.945   5.395
  449TIP3    H2 1291   5.610   5.811   5.444
  450TIP3   OH2 1292   4.500   1.956   3.050
  450TIP3    H1 1293   4.588   1.920   3.036
  450TIP3    H2 1294   4.484   2.010   2.972
  451TIP3   OH2 1295   0.102   1.831   2.472
  451TIP3    H1 1296   0.108   1.914   2.426
  451TIP3    H2 1297   0.094   1.765   2.403
  452TIP3   OH2 1298   3.560   4.700   2.774
  452TIP3    H1 1299   3.467   4.695   2.793
  452TIP3    H2 1300   3.569   4.774   2.714
  453TIP3   OH2 1301   0.326   6.755   6.562
  453TIP3    H1 1302   0.414   6.792   6.561
  453TIP3    H2 1303   0.323   6.698   6.486
  454TIP3   OH2 1304   2.247   1.562   4.260
  454TIP3    H1 1305   2.325   1.524   4.301
  454TIP3    H2 1306   2.245   1.524   4.172
  455TIP3   OH2 1307   7.852   1.992   2.754
  455TIP3    H1 1308   7.775   2.050   2.756
  455TIP3    H2 1309   7.886   2.001   2.665
  456TIP3   OH2 1310   0.868   1.184   0.216
  456TIP3    H1 1311   0.911   1.174   0.301
  456TIP3    H2 1312   0.919   1.128   0.158
  457TIP3   OH2 1313   1.837   0.728   1.213
  457TIP3    H1 1314   1.791   0.696   1.136
  457TIP3    H2 1315   1.813   0.666   1.282
  458TIP3   OH2 1316   3.246   1.832   5.665
  458TIP3    H1 1317   3.169   1.888   5.666
  458TIP3    H2 1318   3.257   1.804   5.756
  459TIP3   OH2 1319   2.779   7.713   0.240
  459TIP3    H1 1320   2.706   7.764   0.275
  459TIP3    H2 1321   2.809   7.660   0.313
  460TIP3   OH2 1322   0.500   1.280   5.305
  460TIP3    H1 1323   0.591   1.278   5.275
  460TIP3    H2 1324   0.454   1.222   5.244
  461TIP3   OH2 1325   8.195   5.839   6.227
  461TIP3    H1 1326   8.243   5.815   6.307
  461TIP3    H2 1327   8.202   5.762   6.171
  462TIP3   OH2 1328   3.439   6.094   0.658
  462TIP3    H1 1329   3.490   6.166   0.696
  462TIP3    H2 1330   3.411   6.128   0.573
  463TIP3   OH2 1331   5.996   2.075   4.366
  463TIP3    H1 1332   5.948   2.042   4.291
  463TIP3    H2 1333   6.013   2.167   4.346
  464TIP3   OH2 1334   6.091   6.700   3.722
  464TIP3    H1 1335   6.120   6.785   3.756
  464TIP3    H2 1336   6.167   6.666   3.675
  465TIP3   OH2 1337   0.940   1.305   3.798
  465TIP3    H1 1338   0.967   1.291   3.889
  465TIP3    H2 1339   0.970   1.394   3.778
  466TIP3   OH2 1340   5.788   3.953   6.115
  466TIP3    H1 1341   5.855   4.016   6.142
  466TIP3    H2 1342   5.807   3.874   6.167
  467TIP3   OH2 1343   5.763   6.954   0.975
  467TIP3    H1 1344   5.759   6.923   0.885
  467TIP3    H2 1345   5.738   6.878   1.028
  468TIP3   OH2 1346   1.324   0.200   2.946
  468TIP3    H1 1347   1.372   0.282   2.938
  468TIP3    H2 1348   1.271   0.211   3.025
  469TIP3   OH2 1349   1.859   4.564   5.783
  469TIP3    H1 1350   1.844   4.472   5.760
  469TIP3    H2 1351   1.906   4.600   5.707
  470TIP3   OH2 1352   1.420   1.588   3.806
  470TIP3    H1 1353   1.501   1.625   3.840
  470TIP3    H2 1354   1.375   1.553   3.883
  471TIP3   OH2 1355   0.938   2.551   5.051
  471TIP3    H1 1356   0.909   2.621   5.110
  471TIP3    H2 1357   0.867   2.544   4.987
  472TIP3   OH2 1358   3.323   3.515   1.742
  472TIP3    H1 1359   3.264   3.546   1.673
  472TIP3    H2 1360   3.387   3.586   1.751
  473TIP3   OH2 1361   6.050   6.170   0.104
  473TIP3    H1 1362   6.132   6.193   0.061
  473TIP3    H2 1363   6.064   6.192   0.196
  474TIP3   OH2 1364   8.183   4.070   0.158
  474TIP3    H1 1365   8.107   4.026   0.120
  474TIP3    H2 1366   8.258   4.039   0.107
  475TIP3   OH2 1367   8.076   0.712   3.361
  475TIP3    H1 1368   8.044   0.648   3.423
  475TIP3    H2 1369   8.152   0.671   3.321
  476TIP3   OH2 1370   1.908   2.486   3.337
  476TIP3    H1 1371   1.990   2.437   3.345
  476TIP3    H2 1372   1.851   2.428   3.285
  477TIP3   OH2 1373   6.599   0.226   5.514
  477TIP3    H1 1374   6.621   0.165   5.444
  477TIP3    H2 1375   6.570   0.305   5.469
  478TIP3   OH2 1376   1.777   4.770   4.774
  478TIP3    H1 1377   1.708   4.836   4.775
  478TIP3    H2 1378   1.731   4.687   4.786
  479TIP3   OH2 1379   3.834   5.595   3.853
  479TIP3    H1 1380   3.919   5.595   3.810
  479TIP3    H2 1381   3.772   5.571   3.785
  480TIP3   OH2 1382   6.652   2.185   2.610
  480TIP3    H1 1383   6.695   2.224   2.534
  480TIP3    H2 1384   6.579   2.135   2.574
  481TIP3   OH2 1385   3.577   3.449   6.143
  481TIP3    H1 1386   3.610   3.479   6.058
  481TIP3    H2 1387   3.494   3.407   6.123
  482TIP3   OH2 1388   5.326   5.307   2.923
  482TIP3    H1 1389   5.400   5.280   2.868
  482TIP3    H2 1390   5.251   5.263   2.884
  483TIP3   OH2 1391   2.191   3.564   5.599
  483TIP3    H1 1392   2.231   3.589   5.682
  483TIP3    H2 1393   2.121   3.628   5.587
  484TIP3   OH2 1394   3.419   3.261   5.176
  484TIP3    H1 1395   3.492   3.316   5.203
  484TIP3    H2 1396   3.421   3.263   5.080
  485TIP3   OH2 1397   4.549   5.674   1.888
  485TIP3    H1 1398   4.556   5.694   1.795
  485TIP3    H2 1399   4.617   5.608   1.904
  486TIP3   OH2 1400   1.524   3.710   4.795
  486TIP3    H1 1401   1.481   3.703   4.709
  486TIP3    H2 1402   1.474   3.778   4.840
  487TIP3   OH2 1403   1.699   4.654   2.320
  487TIP3    H1 1404   1.695   4.615   2.408
  487TIP3    H2 1405   1.614   4.630   2.281
  488TIP3   OH2 1406   5.715   6.315   0.534
  488TIP3    H1 1407   5.746   6.387   0.589
  488TIP3    H2 1408   5.644   6.353   0.483
  489TIP3   OH2 1409   1.345   5.235   3.404
  489TIP3    H1 1410   1.433   5.266   3.426
  489TIP3    H2 1411   1.327   5.273   3.318
  490TIP3   OH2 1412   6.457   5.339   1.499
  490TIP3    H1 1413   6.494   5.405   1.557
  490TIP3    H2 1414   6.532   5.286   1.472
  491TIP3   OH2 1415   6.253   4.840   2.681
  491TIP3    H1 1416   6.277   4.844   2.774
  491TIP3    H2 1417   6.238   4.747   2.664
  492TIP3   OH2 1418   6.114   3.602   6.305
  492TIP3    H1 1419   6.199   3.578   6.341
  492TIP3    H2 1420   6.077   3.519   6.274
  493TIP3   OH2 1421   4.136   7.338   0.704
  493TIP3    H1 1422   4.064   7.401   0.693
  493TIP3    H2 1423   4.172   7.328   0.616
  494TIP3   OH2 1424   8.123   4.983   6.090
  494TIP3    H1 1425   8.090   5.071   6.074
  494TIP3    H2 1426   8.068   4.927   6.035
  495TIP3   OH2 1427   3.215   3.836   1.765
  495TIP3    H1 1428   3.297   3.870   1.729
  495TIP3    H2 1429   3.194   3.761   1.709
  496TIP3   OH2 1430   1.319   2.450   5.709
  496TIP3    H1 1431   1.368   2.398   5.773
  496TIP3    H2 1432   1.387   2.495   5.658
  497TIP3   OH2 1433   4.406   7.443   6.810
  497TIP3    H1 1434   4.315   7.442   6.839
  497TIP3    H2 1435   4.423   7.534   6.786
  498TIP3   OH2 1436   7.451   2.724   3.355
  498TIP3    H1 1437   7.393   2.787   3.313
  498TIP3    H2 1438   7.419   2.718   3.444
  499TIP3   OH2 1439   6.718   3.608   6.760
  499TIP3    H1 1440   6.811   3.597   6.780
  499TIP3    H2 1441   6.696   3.530   6.708
  500TIP3   OH2 1442   8.144  -0.020   2.335
  500TIP3    H1 1443   8.105  -0.072   2.265
  500TIP3    H2 1444   8.140   0.070   2.303
  501TIP3   OH2 1445   7.362   4.038   0.966
  501TIP3    H1 1446   7.396   4.034   0.876
  501TIP3    H2 1447   7.438   4.020   1.021
  502TIP3   OH2 1448   4.120   2.727   6.433
  502TIP3    H1 1449   4.172   2.720   6.352
  502TIP3    H2 1450   4.170   2.787   6.488
  503TIP3   OH2 1451   3.639   5.241   0.459
  503TIP3    H1 1452   3.691   5.317   0.483
  503TIP3    H2 1453   3.661   5.225   0.367
  504TIP3   OH2 1454   6.872   2.996   5.708
  504TIP3    H1 1455   6.933   3.039   5.769
  504TIP3    H2 1456   6.816   3.067   5.676
  505TIP3   OH2 1457   0.001   2.095   4.072
  505TIP3    H1 1458  -0.032   2.030   4.009
  505TIP3    H2 1459   0.085   2.123   4.035
  506TIP3   OH2 1460   5.637   6.832   6.414
  506TIP3    H1 1461   5.622   6.916   6.457
  506TIP3    H2 1462   5.670   6.856   6.327
  507TIP3   OH2 1463   1.877   6.624   3.717
  507TIP3    H1 1464   1.798   6.588   3.758
  507TIP3    H2 1465   1.920   6.673   3.787
  508TIP3   OH2 1466   6.308   0.444   4.752
  508TIP3    H1 1467   6.375   0.499   4.711
  508TIP3    H2 1468   6.353   0.362   4.772
  509TIP3   OH2 1469   1.508   0.968   3.958
  509TIP3    H1 1470   1.513   0.948   4.051
  509TIP3    H2 1471   1.530   0.886   3.915
  510TIP3   OH2 1472   7.645   6.677   4.242
  510TIP3    H1 1473   7.666   6.754   4.295
  510TIP3    H2 1474   7.718   6.618   4.255
  511TIP3   OH2 1475   0.425   0.003   0.746
  511TIP3    H1 1476   0.343  -0.038   0.720
  511TIP3    H2 1477   0.493  -0.050   0.704
  512TIP3   OH2 1478   2.964   3.053   0.004
  512TIP3    H1 1479   2.978   3.147   0.015
  512TIP3    H2 1480   2.928   3.025   0.088
  513TIP3   OH2 1481   6.077   5.370   4.342
  513TIP3    H1 1482   6.078   5.342   4.433
  513TIP3    H2 1483   6.039   5.296   4.294
  514TIP3   OH2 1484   3.844   3.912   5.046
  514TIP3    H1 1485   3.818   3.944   4.960
  514TIP3    H2 1486   3.931   3.876   5.034
  515TIP3   OH2 1487   0.207   7.089   2.765
  515TIP3    H1 1488   0.288   7.133   2.791
  515TIP3    H2 1489   0.191   7.025   2.834
  516TIP3   OH2 1490   1.498   6.044   1.950
  516TIP3    H1 1491   1.491   6.083   2.036
  516TIP3    H2 1492   1.587   6.066   1.921
  517TIP3   OH2 1493   4.112   5.327   4.576
  517TIP3    H1 1494   4.126   5.325   4.670
  517TIP3    H2 1495   4.135   5.417   4.550
  518TIP3   OH2 1496   5.573   0.279   4.597
  518TIP3    H1 1497   5.482   0.273   4.628
  518TIP3    H2 1498   5.624   0.237   4.666
  519TIP3   OH2 1499   1.306   3.542   0.946
  519TIP3    H1 1500   1.280   3.489   0.870
  519TIP3    H2 1501   1.334   3.479   1.011
  520TIP3   OH2 1502   2.611   0.335   5.175
  520TIP3    H1 1503   2.602   0.240   5.182
  520TIP3    H2 1504   2.670   0.358   5.246
  521TIP3   OH2 1505   1.897   0.673   0.520
  521TIP3    H1 1506   1.925   0.760   0.490
  521TIP3    H2 1507   1.953   0.612   0.473
  522TIP3   OH2 1508   4.707   7.210   3.580
  522TIP3    H1 1509   4.635   7.155   3.549
  522TIP3    H2 1510   4.782   7.182   3.527
  523TIP3   OH2 1511   3.124   2.577   3.756
  523TIP3    H1 1512   3.139   2.483   3.744
  523TIP3    H2 1513   3.200   2.619   3.714
  524TIP3   OH2 1514   4.781   2.972   3.190
  524TIP3    H1 1515   4.799   2.913   3.263
  524TIP3    H2 1516   4.858   3.029   3.186
  525TIP3   OH2 1517   6.625   6.217   3.341
  525TIP3    H1 1518   6.591   6.300   3.375
  525TIP3    H2 1519   6.667   6.175   3.416
  526TIP3   OH2 1520   7.348   1.006   5.654
  526TIP3    H1 1521   7.271   1.061   5.637
  526TIP3    H2 1522   7.328   0.961   5.736
  527TIP3   OH2 1523   6.814   7.354   4.779
  527TIP3    H1 1524   6.838   7.343   4.687
  527TIP3    H2 1525   6.767   7.274   4.801
  528TIP3   OH2 1526   3.074   5.631   3.085
  528TIP3    H1 1527   3.033   5.591   3.162
  528TIP3    H2 1528   3.018   5.707   3.066
  529TIP3   OH2 1529   8.201   4.147   6.332
  529TIP3    H1 1530   8.184   4.225   6.279
  529TIP3    H2 1531   8.177   4.172   6.421
  530TIP3   OH2 1532   3.230   4.760   1.108
  530TIP3    H1 1533   3.171   4.764   1.033
  530TIP3    H2 1534   3.253   4.851   1.126
  531TIP3   OH2 1535   4.617   0.628   5.048
  531TIP3    H1 1536   4.568   0.582   5.115
  531TIP3    H2 1537   4.709   0.606   5.065
  532TIP3   OH2 1538   6.647   4.710   4.822
  532TIP3    H1 1539   6.585   4.781   4.839
  532TIP3    H2 1540   6.731   4.753   4.807
  533TIP3   OH2 1541   7.027   3.625   2.901
  533TIP3    H1 1542   6.936   3.632   2.928
  533TIP3    H2 1543   7.078   3.633   2.982
  534TIP3   OH2 1544   4.540   2.213   5.345
  534TIP3    H1 1545   4.476   2.212   5.417
  534TIP3    H2 1546   4.510   2.144   5.286
  535TIP3   OH2 1547   2.891   6.117   6.559
  535TIP3    H1 1548   2.903   6.092   6.650
  535TIP3    H2 1549   2.855   6.205   6.562
  536TIP3   OH2 1550   5.984   0.755   1.275
  536TIP3    H1 1551   5.943   0.720   1.353
  536TIP3    H2 1552   5.965   0.849   1.278
  537TIP3   OH2 1553   5.137   5.792   2.069
  537TIP3    H1 1554   5.080   5.746   2.008
  537TIP3    H2 1555   5.224   5.756   2.052
  538TIP3   OH2 1556   1.701   7.260   5.386
  538TIP3    H1 1557   1.639   7.187   5.387
  538TIP3    H2 1558   1.723   7.272   5.294
  539TIP3   OH2 1559   4.491   7.027   0.727
  539TIP3    H1 1560   4.479   7.046   0.634
  539TIP3    H2 1561   4.487   7.113   0.769
  540TIP3   OH2 1562   0.560   2.489   3.778
  540TIP3    H1 1563   0.608   2.570   3.788
  540TIP3    H2 1564   0.601   2.428   3.840
  541TIP3   OH2 1565   5.148   1.242   1.536
  541TIP3    H1 1566   5.219   1.199   1.583
  541TIP3    H2 1567   5.071   1.230   1.592
  542TIP3   OH2 1568   4.816   7.052   3.374
  542TIP3    H1 1569   4.897   7.006   3.353
  542TIP3    H2 1570   4.764   7.048   3.293
  543TIP3   OH2 1571   3.705   1.506   1.221
  543TIP3    H1 1572   3.659   1.422   1.220
  543TIP3    H2 1573   3.699   1.538   1.131
  544TIP3   OH2 1574   7.785   6.764   3.374
  544TIP3    H1 1575   7.848   6.819   3.421
  544TIP3    H2 1576   7.801   6.782   3.281
  545TIP3   OH2 1577   1.706   4.786   3.035
  545TIP3    H1 1578   1.725   4.752   3.122
  545TIP3    H2 1579   1.663   4.870   3.051
  546TIP3   OH2 1580   0.136   3.496   4.174
  546TIP3    H1 1581   0.059   3.458   4.132
  546TIP3    H2 1582   0.129   3.469   4.266
  547TIP3   OH2 1583   0.242   1.598   0.272
  547TIP3    H1 1584   0.309   1.636   0.216
  547TIP3    H2 1585   0.160   1.631   0.237
  548TIP3   OH2 1586   1.495   0.704   0.789
  548TIP3    H1 1587   1.548   0.659   0.723
  548TIP3    H2 1588   1.429   0.752   0.739
  549TIP3   OH2 1589   2.292   4.030   4.205
  549TIP3    H1 1590   2.379   3.992   4.191
  549TIP3    H2 1591   2.234   3.954   4.210
  550TIP3   OH2 1592   6.234   6.045   4.001
  550TIP3    H1 1593   6.212   6.123   3.950
  550TIP3    H2 1594   6.213   6.069   4.091
  551TIP3   OH2 1595   7.945   4.477   3.104
  551TIP3    H1 1596   8.033   4.480   3.068
  551TIP3    H2 1597   7.943   4.397   3.157
  552TIP3   OH2 1598   1.499   3.672   0.766
  552TIP3    H1 1599   1.468   3.640   0.681
  552TIP3    H2 1600   1.435   3.639   0.829
  553TIP3   OH2 1601   2.387   5.665   2.552
  553TIP3    H1 1602   2.451   5.641   2.484
  553TIP3    H2 1603   2.415   5.617   2.630
  554TIP3   OH2 1604   0.075   3.155   5.683
  554TIP3    H1 1605   0.143   3.093   5.657
  554TIP3    H2 1606   0.084   3.162   5.778
  555TIP3   OH2 1607   2.970   6.728   1.759
  555TIP3    H1 1608   2.937   6.720   1.670
  555TIP3    H2 1609   3.021   6.809   1.759
  556TIP3   OH2 1610   2.281   1.286   1.273
  556TIP3    H1 1611   2.193   1.254   1.251
  556TIP3    H2 1612   2.321   1.214   1.321
  557TIP3   OH2 1613   4.584   2.154   0.549
  557TIP3    H1 1614   4.610   2.077   0.499
  557TIP3    H2 1615   4.643   2.223   0.520
  558TIP3   OH2 1616   6.320   2.440   0.254
  558TIP3    H1 1617   6.272   2.502   0.198
  558TIP3    H2 1618   6.365   2.382   0.193
  559TIP3   OH2 1619   7.441   4.216   0.235
  559TIP3    H1 1620   7.504   4.287   0.250
  559TIP3    H2 1621   7.457   4.154   0.306
  560TIP3   OH2 1622   8.189   7.582   4.476
  560TIP3    H1 1623   8.225   7.631   4.550
  560TIP3    H2 1624   8.189   7.645   4.404
  561TIP3   OH2 1625   5.602   0.317   1.384
  561TIP3    H1 1626   5.630   0.319   1.475
  561TIP3    H2 1627   5.541   0.391   1.376
  562TIP3   OH2 1628   3.828   2.030   3.332
  562TIP3    H1 1629   3.884   2.027   3.254
  562TIP3    H2 1630   3.847   1.948   3.378
  563TIP3   OH2 1631   8.128   4.851   0.209
  563TIP3    H1 1632   8.213   4.808   0.201
  563TIP3    H2 1633   8.093   4.819   0.292
  564TIP3   OH2 1634   6.718   2.411   4.105
  564TIP3    H1 1635   6.714   2.500   4.141
  564TIP3    H2 1636   6.691   2.355   4.178
  565TIP3   OH2 1637   6.088   4.438   2.945
  565TIP3    H1 1638   6.173   4.421   2.984
  565TIP3    H2 1639   6.026   4.431   3.018
  566TIP3   OH2 1640   5.968   3.623   3.820
  566TIP3    H1 1641   6.001   3.637   3.909
  566TIP3    H2 1642   6.015   3.687   3.766
  567TIP3   OH2 1643   0.925   2.028   5.575
  567TIP3    H1 1644   0.928   1.982   5.491
  567TIP3    H2 1645   0.881   1.967   5.634
  568TIP3   OH2 1646   3.572   5.748   5.445
  568TIP3    H1 1647   3.597   5.676   5.502
  568TIP3    H2 1648   3.655   5.785   5.415
  569TIP3   OH2 1649   1.901   7.575   3.225
  569TIP3    H1 1650   1.992   7.603   3.236
  569TIP3    H2 1651   1.873   7.550   3.313
  570TIP3   OH2 1652   8.033   1.289   0.697
  570TIP3    H1 1653   8.027   1.198   0.726
  570TIP3    H2 1654   7.985   1.291   0.615
  571TIP3   OH2 1655   6.616   3.431   3.450
  571TIP3    H1 1656   6.680   3.469   3.510
  571TIP3    H2 1657   6.629   3.336   3.458
  572TIP3   OH2 1658   7.133   0.074   4.977
  572TIP3    H1 1659   7.111   0.023   5.055
  572TIP3    H2 1660   7.219   0.041   4.950
  573TIP3   OH2 1661   6.045   0.983   5.302
  573TIP3    H1 1662   6.112   0.947   5.243
  573TIP3    H2 1663   6.014   1.062   5.258
  574TIP3   OH2 1664   1.249   2.917   4.864
  574TIP3    H1 1665   1.312   2.984   4.891
  574TIP3    H2 1666   1.230   2.869   4.944
  575TIP3   OH2 1667   6.455   1.120   5.952
  575TIP3    H1 1668   6.509   1.055   5.908
  575TIP3    H2 1669   6.377   1.129   5.898
  576TIP3   OH2 1670   3.256   6.181   2.433
  576TIP3    H1 1671   3.250   6.265   2.387
  576TIP3    H2 1672   3.300   6.202   2.515
  577TIP3   OH2 1673   0.623   1.190   0.302
  577TIP3    H1 1674   0.713   1.186   0.269
  577TIP3    H2 1675   0.601   1.283   0.301
  578TIP3   OH2 1676   7.403   0.406   1.446
  578TIP3    H1 1677   7.331   0.343   1.446
  578TIP3    H2 1678   7.361   0.491   1.439
  579TIP3   OH2 1679   2.120   2.268   2.236
  579TIP3    H1 1680   2.045   2.327   2.221
  579TIP3    H2 1681   2.130   2.266   2.331
  580TIP3   OH2 1682   6.250   0.445   1.319
  580TIP3    H1 1683   6.165   0.411   1.295
  580TIP3    H2 1684   6.309   0.370   1.313
  581TIP3   OH2 1685   2.088   3.006   5.177
  581TIP3    H1 1686   2.101   2.911   5.180
  581TIP3    H2 1687   2.156   3.041   5.234
  582TIP3   OH2 1688   0.281   1.962   1.350
  582TIP3    H1 1689   0.310   2.036   1.297
  582TIP3    H2 1690   0.220   1.914   1.294
  583TIP3   OH2 1691   5.662   6.686   5.152
  583TIP3    H1 1692   5.614   6.609   5.182
  583TIP3    H2 1693   5.627   6.704   5.065
  584TIP3   OH2 1694   2.751   2.913   5.116
  584TIP3    H1 1695   2.661   2.932   5.143
  584TIP3    H2 1696   2.793   2.882   5.196
  585TIP3   OH2 1697   3.709   4.649   5.582
  585TIP3    H1 1698   3.762   4.724   5.608
  585TIP3    H2 1699   3.729   4.637   5.489
  586TIP3   OH2 1700   6.939   0.234   2.457
  586TIP3    H1 1701   6.935   0.294   2.382
  586TIP3    H2 1702   6.903   0.284   2.530
  587TIP3   OH2 1703   4.995   6.724   5.665
  587TIP3    H1 1704   5.019   6.667   5.738
  587TIP3    H2 1705   5.072   6.725   5.608
  588TIP3   OH2 1706   7.667   5.171   4.997
  588TIP3    H1 1707   7.583   5.165   5.042
  588TIP3    H2 1708   7.721   5.103   5.038
  589TIP3   OH2 1709   6.417   3.493   6.344
  589TIP3    H1 1710   6.370   3.429   6.290
  589TIP3    H2 1711   6.414   3.457   6.432
  590TIP3   OH2 1712   2.862   1.368   5.678
  590TIP3    H1 1713   2.943   1.320   5.662
  590TIP3    H2 1714   2.793   1.313   5.640
  591TIP3   OH2 1715   0.986   2.296   5.200
  591TIP3    H1 1716   0.983   2.325   5.109
  591TIP3    H2 1717   0.894   2.285   5.225
  592TIP3   OH2 1718   4.200   7.042   0.245
  592TIP3    H1 1719   4.120   7.045   0.193
  592TIP3    H2 1720   4.187   6.967   0.304
  593TIP3   OH2 1721   3.445   1.199   1.556
  593TIP3    H1 1722   3.477   1.145   1.483
  593TIP3    H2 1723   3.420   1.282   1.515
  594TIP3   OH2 1724   2.606   2.598   4.108
  594TIP3    H1 1725   2.545   2.672   4.098
  594TIP3    H2 1726   2.692   2.639   4.116
  595TIP3   OH2 1727   3.561   6.414   6.278
  595TIP3    H1 1728   3.550   6.369   6.362
  595TIP3    H2 1729   3.587   6.345   6.216
  596TIP3   OH2 1730   6.876   6.966   0.122
  596TIP3    H1 1731   6.847   7.027   0.055
  596TIP3    H2 1732   6.822   6.888   0.110
  597TIP3   OH2 1733   1.454   5.025   1.507
  597TIP3    H1 1734   1.492   5.106   1.474
  597TIP3    H2 1735   1.464   5.031   1.602
  598TIP3   OH2 1736   8.045   3.790   0.245
  598TIP3    H1 1737   7.952   3.767   0.247
  598TIP3    H2 1738   8.054   3.845   0.167
  599TIP3   OH2 1739   2.307   5.771   6.069
  599TIP3    H1 1740   2.228   5.744   6.022
  599TIP3    H2 1741   2.330   5.855   6.029
  600TIP3   OH2 1742   3.854   4.473   1.587
  600TIP3    H1 1743   3.789   4.436   1.646
  600TIP3    H2 1744   3.811   4.549   1.548
  601TIP3   OH2 1745   6.655   3.190   5.190
  601TIP3    H1 1746   6.576   3.226   5.150
  601TIP3    H2 1747   6.647   3.096   5.178
  602TIP3   OH2 1748   7.190   5.181   0.012
  602TIP3    H1 1749   7.136   5.200   0.089
  602TIP3    H2 1750   7.236   5.100   0.034
  603TIP3   OH2 1751   5.481   4.238   4.558
  603TIP3    H1 1752   5.536   4.316   4.561
  603TIP3    H2 1753   5.454   4.224   4.649
  604TIP3   OH2 1754   0.249   2.848   4.227
  604TIP3    H1 1755   0.264   2.923   4.169
  604TIP3    H2 1756   0.174   2.873   4.280
  605TIP3   OH2 1757   5.364   5.414   0.323
  605TIP3    H1 1758   5.324   5.333   0.356
  605TIP3    H2 1759   5.456   5.406   0.345
  606TIP3   OH2 1760   1.004   4.732   1.526
  606TIP3    H1 1761   1.037   4.642   1.521
  606TIP3    H2 1762   0.980   4.753   1.436
  607TIP3   OH2 1763   5.205   5.146   4.270
  607TIP3    H1 1764   5.231   5.062   4.306
  607TIP3    H2 1765   5.152   5.125   4.194
  608TIP3   OH2 1766   6.430   7.518   6.237
  608TIP3    H1 1767   6.496   7.562   6.291
  608TIP3    H2 1768   6.424   7.430   6.272
  609TIP3   OH2 1769   6.665   2.166   6.286
  609TIP3    H1 1770   6.671   2.118   6.369
  609TIP3    H2 1771   6.576   2.149   6.255
  610TIP3   OH2 1772   7.097   2.363   5.884
  610TIP3    H1 1773   7.073   2.368   5.977
  610TIP3    H2 1774   7.040   2.428   5.842
  611TIP3   OH2 1775   3.628   0.939   3.077
  611TIP3    H1 1776   3.641   1.029   3.048
  611TIP3    H2 1777   3.709   0.916   3.122
  612TIP3   OH2 1778   1.855   5.746   1.302
  612TIP3    H1 1779   1.840   5.822   1.357
  612TIP3    H2 1780   1.933   5.704   1.338
  613TIP3   OH2 1781   5.098   7.794   4.147
  613TIP3    H1 1782   5.054   7.747   4.077
  613TIP3    H2 1783   5.190   7.796   4.121
  614TIP3   OH2 1784   0.772   1.488   6.165
  614TIP3    H1 1785   0.687   1.464   6.203
  614TIP3    H2 1786   0.790   1.575   6.200
  615TIP3   OH2 1787   4.222   5.671   2.177
  615TIP3    H1 1788   4.180   5.757   2.173
  615TIP3    H2 1789   4.257   5.658   2.089
  616TIP3   OH2 1790   7.325   1.444   6.120
  616TIP3    H1 1791   7.262   1.507   6.154
  616TIP3    H2 1792   7.279   1.399   6.050
  617TIP3   OH2 1793   8.162   0.252   3.585
  617TIP3    H1 1794   8.177   0.174   3.532
  617TIP3    H2 1795   8.153   0.323   3.520
  618TIP3   OH2 1796   6.580   3.752   6.006
  618TIP3    H1 1797   6.576   3.762   6.101
  618TIP3    H2 1798   6.542   3.666   5.989
  619TIP3   OH2 1799   7.475   1.251   1.569
  619TIP3    H1 1800   7.504   1.291   1.486
  619TIP3    H2 1801   7.387   1.220   1.550
  620TIP3   OH2 1802   3.170   6.355   0.085
  620TIP3    H1 1803   3.139   6.367  -0.005
  620TIP3    H2 1804   3.122   6.279   0.117
  621TIP3   OH2 1805   4.665   2.432   2.607
  621TIP3    H1 1806   4.729   2.370   2.571
  621TIP3    H2 1807   4.717   2.490   2.663
  622TIP3   OH2 1808   7.602   6.389   3.676
  622TIP3    H1 1809   7.596   6.467   3.621
  622TIP3    H2 1810   7.536   6.330   3.640
  623TIP3   OH2 1811   0.465   5.095   6.479
  623TIP3    H1 1812   0.484   5.023   6.540
  623TIP3    H2 1813   0.473   5.174   6.532
  624TIP3   OH2 1814   7.144   3.854   4.131
  624TIP3    H1 1815   7.104   3.914   4.194
  624TIP3    H2 1816   7.219   3.901   4.096
  625TIP3   OH2 1817   0.204   4.945   1.683
  625TIP3    H1 1818   0.151   4.900   1.617
  625TIP3    H2 1819   0.271   4.881   1.708
  626TIP3   OH2 1820   7.895   0.665   1.580
  626TIP3    H1 1821   7.869   0.574   1.595
  626TIP3    H2 1822   7.905   0.702   1.667
  627TIP3   OH2 1823   7.180   7.360   1.671
  627TIP3    H1 1824   7.148   7.419   1.739
  627TIP3    H2 1825   7.271   7.345   1.693
  628TIP3   OH2 1826   1.512   4.531   5.040
  628TIP3    H1 1827   1.585   4.482   5.003
  628TIP3    H2 1828   1.435   4.477   5.020
  629TIP3   OH2 1829   2.161   3.764   5.059
  629TIP3    H1 1830   2.108   3.842   5.072
  629TIP3    H2 1831   2.230   3.770   5.125
  630TIP3   OH2 1832   2.198   7.648   5.646
  630TIP3    H1 1833   2.256   7.700   5.701
  630TIP3    H2 1834   2.256   7.608   5.581
  631TIP3   OH2 1835   7.469   6.708   6.033
  631TIP3    H1 1836   7.419   6.647   5.979
  631TIP3    H2 1837   7.477   6.664   6.118
  632TIP3   OH2 1838   7.619   6.032   6.038
  632TIP3    H1 1839   7.630   5.975   6.114
  632TIP3    H2 1840   7.680   6.105   6.053
  633TIP3   OH2 1841   0.651   6.210   4.622
  633TIP3    H1 1842   0.668   6.301   4.596
  633TIP3    H2 1843   0.557   6.207   4.636
  634TIP3   OH2 1844   3.104   5.120   0.924
  634TIP3    H1 1845   3.158   5.085   0.995
  634TIP3    H2 1846   3.120   5.060   0.851
  635TIP3   OH2 1847   2.728   4.163   1.575
  635TIP3    H1 1848   2.733   4.092   1.638
  635TIP3    H2 1849   2.819   4.178   1.548
  636TIP3   OH2 1850   4.977   3.209   2.129
  636TIP3    H1 1851   4.906   3.158   2.166
  636TIP3    H2 1852   5.008   3.263   2.201
  637TIP3   OH2 1853   7.283   6.820   2.110
  637TIP3    H1 1854   7.256   6.907   2.081
  637TIP3    H2 1855   7.378   6.825   2.115
  638TIP3   OH2 1856   2.258   5.324   3.906
  638TIP3    H1 1857   2.183   5.264   3.903
  638TIP3    H2 1858   2.306   5.306   3.825
  639TIP3   OH2 1859   6.309   2.190   0.107
  639TIP3    H1 1860   6.318   2.133   0.183
  639TIP3    H2 1861   6.385   2.170   0.052
  640TIP3   OH2 1862   7.739   5.639   2.467
  640TIP3    H1 1863   7.786   5.575   2.413
  640TIP3    H2 1864   7.661   5.660   2.416
  641TIP3   OH2 1865   5.896   7.662   1.692
  641TIP3    H1 1866   5.952   7.709   1.753
  641TIP3    H2 1867   5.902   7.570   1.719
  642TIP3   OH2 1868   4.996   4.855   4.891
  642TIP3    H1 1869   4.993   4.798   4.968
  642TIP3    H2 1870   4.959   4.802   4.821
  643TIP3   OH2 1871   0.241   5.358   3.421
  643TIP3    H1 1872   0.241   5.341   3.327
  643TIP3    H2 1873   0.152   5.391   3.439
  644TIP3   OH2 1874   7.653   6.805   1.898
  644TIP3    H1 1875   7.717   6.805   1.969
  644TIP3    H2 1876   7.590   6.737   1.923
  645TIP3   OH2 1877   4.018   4.743   6.413
  645TIP3    H1 1878   4.106   4.780   6.417
  645TIP3    H2 1879   4.032   4.652   6.385
  646TIP3   OH2 1880   7.625   0.502   0.512
  646TIP3    H1 1881   7.658   0.558   0.583
  646TIP3    H2 1882   7.667   0.536   0.433
  647TIP3   OH2 1883   4.514   0.781   2.297
  647TIP3    H1 1884   4.438   0.785   2.355
  647TIP3    H2 1885   4.483   0.734   2.220
  648TIP3   OH2 1886   8.159   5.400   0.993
  648TIP3    H1 1887   8.224   5.447   0.941
  648TIP3    H2 1888   8.088   5.382   0.931
  649TIP3   OH2 1889   6.449   2.891   4.183
  649TIP3    H1 1890   6.387   2.863   4.115
  649TIP3    H2 1891   6.423   2.842   4.261
  650TIP3   OH2 1892   4.684   4.091   2.858
  650TIP3    H1 1893   4.630   4.113   2.783
  650TIP3    H2 1894   4.685   4.171   2.912
  651TIP3   OH2 1895   8.308   1.145   5.847
  651TIP3    H1 1896   8.361   1.095   5.910
  651TIP3    H2 1897   8.225   1.099   5.844
  652TIP3   OH2 1898   0.412   7.804   3.007
  652TIP3    H1 1899   0.363   7.886   3.015
  652TIP3    H2 1900   0.479   7.822   2.941
  653TIP3   OH2 1901   4.476   4.500   3.087
  653TIP3    H1 1902   4.418   4.563   3.130
  653TIP3    H2 1903   4.562   4.542   3.089
  654TIP3   OH2 1904   7.217   4.263   0.799
  654TIP3    H1 1905   7.126   4.289   0.811
  654TIP3    H2 1906   7.250   4.249   0.888
  655TIP3   OH2 1907   6.899   5.567   0.440
  655TIP3    H1 1908   6.862   5.598   0.358
  655TIP3    H2 1909   6.890   5.641   0.500
  656TIP3   OH2 1910   3.646   3.139   6.205
  656TIP3    H1 1911   3.614   3.205   6.267
  656TIP3    H2 1912   3.692   3.189   6.138
  657TIP3   OH2 1913   7.182   6.973   1.037
  657TIP3    H1 1914   7.192   6.940   1.126
  657TIP3    H2 1915   7.250   7.040   1.029
  658TIP3   OH2 1916   4.407   4.321   3.744
  658TIP3    H1 1917   4.465   4.297   3.672
  658TIP3    H2 1918   4.441   4.272   3.819
  659TIP3   OH2 1919   6.359   0.131   0.734
  659TIP3    H1 1920   6.297   0.138   0.806
  659TIP3    H2 1921   6.346   0.043   0.699
  660TIP3   OH2 1922   2.690   0.556   6.434
  660TIP3    H1 1923   2.720   0.489   6.495
  660TIP3    H2 1924   2.638   0.616   6.488
  661TIP3   OH2 1925   6.718   5.206   0.315
  661TIP3    H1 1926   6.746   5.196   0.406
  661TIP3    H2 1927   6.633   5.250   0.320
  662TIP3   OH2 1928   2.977   5.055   5.512
  662TIP3    H1 1929   2.998   5.146   5.535
  662TIP3    H2 1930   3.031   5.038   5.434
  663TIP3   OH2 1931   1.407   1.291   4.183
  663TIP3    H1 1932   1.346   1.227   4.147
  663TIP3    H2 1933   1.397   1.369   4.128
  664TIP3   OH2 1934   7.396   5.105   2.436
  664TIP3    H1 1935   7.309   5.144   2.448
  664TIP3    H2 1936   7.418   5.122   2.345
  665TIP3   OH2 1937   7.938   3.376   1.587
  665TIP3    H1 1938   7.902   3.452   1.541
  665TIP3    H2 1939   7.871   3.308   1.577
  666TIP3   OH2 1940   6.484   2.447   2.497
  666TIP3    H1 1941   6.456   2.519   2.440
  666TIP3    H2 1942   6.478   2.369   2.442
  667TIP3   OH2 1943   5.971   4.219   1.908
  667TIP3    H1 1944   5.918   4.185   1.980
  667TIP3    H2 1945   5.964   4.152   1.839
  668TIP3   OH2 1946   1.367   4.238   0.663
  668TIP3    H1 1947   1.387   4.147   0.645
  668TIP3    H2 1948   1.409   4.286   0.592
  669TIP3   OH2 1949   4.154   0.524   6.682
  669TIP3    H1 1950   4.193   0.469   6.613
  669TIP3    H2 1951   4.226   0.543   6.742
  670TIP3   OH2 1952   6.794   3.447   1.722
  670TIP3    H1 1953   6.819   3.533   1.755
  670TIP3    H2 1954   6.848   3.385   1.772
  671TIP3   OH2 1955   1.696   4.455   0.717
  671TIP3    H1 1956   1.622   4.441   0.775
  671TIP3    H2 1957   1.730   4.541   0.741
  672TIP3   OH2 1958   2.796   7.179   4.805
  672TIP3    H1 1959   2.795   7.083   4.804
  672TIP3    H2 1960   2.888   7.202   4.788
  673TIP3   OH2 1961   2.073   0.812   5.451
  673TIP3    H1 1962   2.083   0.896   5.407
  673TIP3    H2 1963   2.035   0.754   5.385
  674TIP3   OH2 1964   0.027   2.408   1.278
  674TIP3    H1 1965   0.080   2.328   1.276
  674TIP3    H2 1966   0.049   2.448   1.362
  675TIP3   OH2 1967   0.284   3.788   5.419
  675TIP3    H1 1968   0.282   3.883   5.410
  675TIP3    H2 1969   0.369   3.770   5.460
  676TIP3   OH2 1970   8.127   6.524   3.753
  676TIP3    H1 1971   8.031   6.530   3.758
  676TIP3    H2 1972   8.147   6.535   3.660
  677TIP3   OH2 1973   3.504   7.426   0.626
  677TIP3    H1 1974   3.524   7.368   0.700
  677TIP3    H2 1975   3.449   7.374   0.568
  678TIP3   OH2 1976   0.774   0.954   3.892
  678TIP3    H1 1977   0.735   0.893   3.955
  678TIP3    H2 1978   0.704   1.017   3.873
  679TIP3   OH2 1979   0.396   5.307   1.397
  679TIP3    H1 1980   0.485   5.324   1.427
  679TIP3    H2 1981   0.373   5.383   1.344
  680TIP3   OH2 1982   5.049   0.547   2.880
  680TIP3    H1 1983   4.990   0.474   2.861
  680TIP3    H2 1984   5.127   0.506   2.916
  681TIP3   OH2 1985   2.802   6.814   3.851
  681TIP3    H1 1986   2.848   6.853   3.925
  681TIP3    H2 1987   2.868   6.762   3.805
  682TIP3   OH2 1988   6.044   1.285   1.579
  682TIP3    H1 1989   5.990   1.227   1.633
  682TIP3    H2 1990   5.994   1.294   1.498
  683TIP3   OH2 1991   3.038   7.519   6.772
  683TIP3    H1 1992   3.039   7.548   6.680
  683TIP3    H2 1993   3.013   7.427   6.768
  684TIP3   OH2 1994   3.770   4.090   4.802
  684TIP3    H1 1995   3.678   4.065   4.815
  684TIP3    H2 1996   3.769   4.186   4.803
  685TIP3   OH2 1997   3.032   5.289   2.342
  685TIP3    H1 1998   2.945   5.301   2.304
  685TIP3    H2 1999   3.026   5.326   2.430
  686TIP3   OH2 2000   5.726   1.447   3.906
  686TIP3    H1 2001   5.643   1.472   3.866
  686TIP3    H2 2002   5.733   1.353   3.891
  687TIP3   OH2 2003   3.916   7.145   6.680
  687TIP3    H1 2004   3.905   7.077   6.614
  687TIP3    H2 2005   3.853   7.213   6.656
  688TIP3   OH2 2006   2.619   1.961   2.597
  688TIP3    H1 2007   2.595   1.930   2.510
  688TIP3    H2 2008   2.571   1.904   2.657
  689TIP3   OH2 2009   6.446   1.395   2.168
  689TIP3    H1 2010   6.406   1.457   2.107
  689TIP3    H2 2011   6.503   1.341   2.114
  690TIP3   OH2 2012   2.146   4.947   0.996
  690TIP3    H1 2013   2.093   5.027   0.992
  690TIP3    H2 2014   2.224   4.967   0.944
  691TIP3   OH2 2015   1.260   1.480   2.880
  691TIP3    H1 2016   1.320   1.430   2.936
  691TIP3    H2 2017   1.260   1.432   2.797
  692TIP3   OH2 2018   7.570   5.748   0.360
  692TIP3    H1 2019   7.631   5.702   0.303
  692TIP3    H2 2020   7.507   5.682   0.386
  693TIP3   OH2 2021   0.590   6.592   2.940
  693TIP3    H1 2022   0.621   6.637   3.019
  693TIP3    H2 2023   0.522   6.650   2.905
  694TIP3   OH2 2024   2.725   1.827   0.059
  694TIP3    H1 2025   2.732   1.760  -0.009
  694TIP3    H2 2026   2.641   1.870   0.044
  695TIP3   OH2 2027   5.974   5.859   0.264
  695TIP3    H1 2028   5.999   5.815   0.183
  695TIP3    H2 2029   5.901   5.916   0.239
  696TIP3   OH2 2030   3.902   2.071   5.750
  696TIP3    H1 2031   3.900   2.004   5.681
  696TIP3    H2 2032   3.850   2.034   5.821
  697TIP3   OH2 2033   0.015   5.126   1.693
  697TIP3    H1 2034   0.021   5.202   1.635
  697TIP3    H2 2035   0.101   5.083   1.685
  698TIP3   OH2 2036   3.983   2.634   2.972
  698TIP3    H1 2037   4.036   2.599   2.900
  698TIP3    H2 2038   3.893   2.608   2.951
  699TIP3   OH2 2039   5.354   6.575   1.404
  699TIP3    H1 2040   5.438   6.602   1.365
  699TIP3    H2 2041   5.367   6.584   1.498
  700TIP3   OH2 2042   2.898   6.928   1.168
  700TIP3    H1 2043   2.934   6.968   1.247
  700TIP3    H2 2044   2.939   6.842   1.163
  701TIP3   OH2 2045   0.568   2.418   2.949
  701TIP3    H1 2046   0.549   2.343   3.005
  701TIP3    H2 2047   0.637   2.465   2.996
  702TIP3   OH2 2048   0.302   6.861   2.591
  702TIP3    H1 2049   0.286   6.950   2.623
  702TIP3    H2 2050   0.359   6.872   2.515
  703TIP3   OH2 2051   1.791   5.542   5.130
  703TIP3    H1 2052   1.703   5.549   5.094
  703TIP3    H2 2053   1.805   5.624   5.176
  704TIP3   OH2 2054   0.870   5.209   0.078
  704TIP3    H1 2055   0.949   5.156   0.068
  704TIP3    H2 2056   0.899   5.299   0.067
  705TIP3   OH2 2057   0.056   1.609   0.750
  705TIP3    H1 2058   0.134   1.652   0.786
  705TIP3    H2 2059   0.042   1.653   0.666
  706TIP3   OH2 2060   2.590   2.176   0.714
  706TIP3    H1 2061   2.515   2.180   0.655
  706TIP3    H2 2062   2.551   2.172   0.802
  707TIP3   OH2 2063   5.114   3.720   0.851
  707TIP3    H1 2064   5.198   3.749   0.817
  707TIP3    H2 2065   5.049   3.773   0.804
  708TIP3   OH2 2066   4.240   2.413   5.717
  708TIP3    H1 2067   4.294   2.477   5.670
  708TIP3    H2 2068   4.157   2.458   5.731
  709TIP3   OH2 2069   5.239   0.983   4.873
  709TIP3    H1 2070   5.318   1.036   4.868
  709TIP3    H2 2071   5.190   1.006   4.794
  710TIP3   OH2 2072   3.655   2.477   1.552
  710TIP3    H1 2073   3.601   2.458   1.475
  710TIP3    H2 2074   3.599   2.531   1.607
  711TIP3   OH2 2075   7.845   6.199   6.083
  711TIP3    H1 2076   7.825   6.292   6.069
  711TIP3    H2 2077   7.912   6.180   6.017
  712TIP3   OH2 2078   7.071   4.683   6.335
  712TIP3    H1 2079   7.147   4.633   6.303
  712TIP3    H2 2080   7.106   4.770   6.354
  713TIP3   OH2 2081   5.662   7.824   2.393
  713TIP3    H1 2082   5.585   7.822   2.335
  713TIP3    H2 2083   5.667   7.736   2.429
  714TIP3   OH2 2084   2.028   2.703   3.911
  714TIP3    H1 2085   2.054   2.664   3.828
  714TIP3    H2 2086   1.982   2.784   3.886
  715TIP3   OH2 2087   5.637   6.001   3.202
  715TIP3    H1 2088   5.571   6.031   3.139
  715TIP3    H2 2089   5.611   5.911   3.222
  716TIP3   OH2 2090   7.575   6.014   5.769
  716TIP3    H1 2091   7.602   6.020   5.861
  716TIP3    H2 2092   7.625   6.082   5.725
  717TIP3   OH2 2093   0.569   1.664   1.698
  717TIP3    H1 2094   0.596   1.599   1.633
  717TIP3    H2 2095   0.485   1.696   1.666
  718TIP3   OH2 2096   5.390   6.148   4.562
  718TIP3    H1 2097   5.326   6.081   4.582
  718TIP3    H2 2098   5.469   6.100   4.539
  719TIP3   OH2 2099   1.440   0.202   3.683
  719TIP3    H1 2100   1.351   0.197   3.720
  719TIP3    H2 2101   1.427   0.188   3.590
  720TIP3   OH2 2102   2.307   7.629   4.189
  720TIP3    H1 2103   2.308   7.723   4.176
  720TIP3    H2 2104   2.359   7.615   4.269
  721TIP3   OH2 2105   4.824   3.779   6.511
  721TIP3    H1 2106   4.877   3.754   6.435
  721TIP3    H2 2107   4.826   3.703   6.568
  722TIP3   OH2 2108   3.519   0.195   5.088
  722TIP3    H1 2109   3.543   0.281   5.055
  722TIP3    H2 2110   3.441   0.210   5.141
  723TIP3   OH2 2111   7.088   7.713   1.003
  723TIP3    H1 2112   7.132   7.636   1.039
  723TIP3    H2 2113   6.997   7.705   1.031
  724TIP3   OH2 2114   3.427   2.188   6.188
  724TIP3    H1 2115   3.445   2.230   6.104
  724TIP3    H2 2116   3.338   2.154   6.180
  725TIP3   OH2 2117   5.507   4.877   3.464
  725TIP3    H1 2118   5.583   4.822   3.482
  725TIP3    H2 2119   5.517   4.952   3.523
  726TIP3   OH2 2120   5.506   2.183   6.502
  726TIP3    H1 2121   5.437   2.132   6.459
  726TIP3    H2 2122   5.466   2.268   6.518
  727TIP3   OH2 2123   6.224   1.879   4.928
  727TIP3    H1 2124   6.250   1.791   4.956
  727TIP3    H2 2125   6.258   1.886   4.839
  728TIP3   OH2 2126   0.038   6.179   1.004
  728TIP3    H1 2127  -0.014   6.109   0.964
  728TIP3    H2 2128   0.059   6.238   0.932
  729TIP3   OH2 2129   5.943   2.846   0.820
  729TIP3    H1 2130   5.980   2.780   0.761
  729TIP3    H2 2131   5.860   2.809   0.849
  730TIP3   OH2 2132   8.272   3.278   6.638
  730TIP3    H1 2133   8.191   3.268   6.588
  730TIP3    H2 2134   8.340   3.283   6.571
  731TIP3   OH2 2135   7.558   0.655   0.817
  731TIP3    H1 2136   7.496   0.678   0.748
  731TIP3    H2 2137   7.643   0.652   0.772
  732TIP3   OH2 2138   5.397   6.870   1.241
  732TIP3    H1 2139   5.339   6.941   1.271
  732TIP3    H2 2140   5.461   6.913   1.186
  733TIP3   OH2 2141   0.877   6.598   6.405
  733TIP3    H1 2142   0.852   6.539   6.335
  733TIP3    H2 2143   0.969   6.620   6.387
  734TIP3   OH2 2144   3.698   6.640   6.280
  734TIP3    H1 2145   3.648   6.559   6.271
  734TIP3    H2 2146   3.632   6.710   6.275
  735TIP3   OH2 2147   1.861   0.310   6.495
  735TIP3    H1 2148   1.840   0.224   6.532
  735TIP3    H2 2149   1.796   0.369   6.534
  736TIP3   OH2 2150   6.837   5.460   5.952
  736TIP3    H1 2151   6.827   5.519   5.877
  736TIP3    H2 2152   6.871   5.516   6.022
  737TIP3   OH2 2153   0.090   0.925   4.327
  737TIP3    H1 2154   0.063   0.860   4.392
  737TIP3    H2 2155   0.181   0.945   4.351
  738TIP3   OH2 2156   3.603   7.113   3.206
  738TIP3    H1 2157   3.576   7.140   3.294
  738TIP3    H2 2158   3.690   7.075   3.219
  739TIP3   OH2 2159   2.233   1.758   0.633
  739TIP3    H1 2160   2.318   1.792   0.606
  739TIP3    H2 2161   2.171   1.827   0.606
  740TIP3   OH2 2162   4.860   6.173   1.865
  740TIP3    H1 2163   4.841   6.163   1.959
  740TIP3    H2 2164   4.948   6.210   1.862
  741TIP3   OH2 2165   6.605   3.112   1.975
  741TIP3    H1 2166   6.700   3.114   1.975
  741TIP3    H2 2167   6.582   3.022   1.996
  742TIP3   OH2 2168   4.216   7.636   5.663
  742TIP3    H1 2169   4.171   7.715   5.693
  742TIP3    H2 2170   4.300   7.638   5.709
  743TIP3   OH2 2171   3.211   6.796   4.583
  743TIP3    H1 2172   3.179   6.763   4.499
  743TIP3    H2 2173   3.226   6.717   4.635
  744TIP3   OH2 2174   4.703   2.696   6.759
  744TIP3    H1 2175   4.644   2.637   6.713
  744TIP3    H2 2176   4.790   2.659   6.745
  745TIP3   OH2 2177   3.792   6.746   1.752
  745TIP3    H1 2178   3.867   6.792   1.714
  745TIP3    H2 2179   3.716   6.784   1.708
  746TIP3   OH2 2180   1.307   4.331   0.911
  746TIP3    H1 2181   1.350   4.416   0.911
  746TIP3    H2 2182   1.325   4.294   0.824
  747TIP3   OH2 2183   0.350   0.551   1.716
  747TIP3    H1 2184   0.399   0.590   1.789
  747TIP3    H2 2185   0.393   0.585   1.638
  748TIP3   OH2 2186   4.539   1.528   1.343
  748TIP3    H1 2187   4.620   1.509   1.297
  748TIP3    H2 2188   4.512   1.444   1.380
  749TIP3   OH2 2189   6.638   0.452   3.094
  749TIP3    H1 2190   6.651   0.440   3.188
  749TIP3    H2 2191   6.688   0.532   3.074
  750TIP3   OH2 2192   4.022   3.250   6.704
  750TIP3    H1 2193   3.952   3.314   6.707
  750TIP3    H2 2194   3.998   3.191   6.632
  751TIP3   OH2 2195   1.087   0.371   0.885
  751TIP3    H1 2196   1.068   0.296   0.828
  751TIP3    H2 2197   1.080   0.447   0.827
  752TIP3   OH2 2198   3.850   1.482   6.621
  752TIP3    H1 2199   3.930   1.430   6.621
  752TIP3    H2 2200   3.837   1.506   6.712
  753TIP3   OH2 2201   6.890   3.622   0.703
  753TIP3    H1 2202   6.892   3.582   0.790
  753TIP3    H2 2203   6.870   3.714   0.720
  754TIP3   OH2 2204   7.962   6.596   1.065
  754TIP3    H1 2205   7.994   6.663   1.125
  754TIP3    H2 2206   7.868   6.593   1.080
  755TIP3   OH2 2207   7.039   5.541   0.111
  755TIP3    H1 2208   7.005   5.531   0.022
  755TIP3    H2 2209   7.020   5.457   0.153
  756TIP3   OH2 2210   3.591   0.909   1.578
  756TIP3    H1 2211   3.625   0.821   1.596
  756TIP3    H2 2212   3.655   0.948   1.519
  757TIP3   OH2 2213   7.800   5.116   4.740
  757TIP3    H1 2214   7.748   5.162   4.674
  757TIP3    H2 2215   7.753   5.130   4.822
  758TIP3   OH2 2216   2.883   0.345   0.318
  758TIP3    H1 2217   2.966   0.393   0.311
  758TIP3    H2 2218   2.818   0.406   0.284
  759TIP3   OH2 2219   4.609   4.853   6.647
  759TIP3    H1 2220   4.598   4.774   6.700
  759TIP3    H2 2221   4.646   4.822   6.564
  760TIP3   OH2 2222   0.766   2.446   2.442
  760TIP3    H1 2223   0.808   2.360   2.436
  760TIP3    H2 2224   0.696   2.444   2.376
  761TIP3   OH2 2225   0.519   7.156   1.432
  761TIP3    H1 2226   0.549   7.243   1.410
  761TIP3    H2 2227   0.570   7.131   1.508
  762TIP3   OH2 2228   3.945   6.155   6.367
  762TIP3    H1 2229   3.895   6.074   6.369
  762TIP3    H2 2230   3.880   6.224   6.353
  763TIP3   OH2 2231   6.159   5.350   3.693
  763TIP3    H1 2232   6.234   5.390   3.649
  763TIP3    H2 2233   6.197   5.277   3.742
  764TIP3   OH2 2234   0.246   4.992   2.135
  764TIP3    H1 2235   0.311   5.014   2.201
  764TIP3    H2 2236   0.241   4.896   2.138
  765TIP3   OH2 2237   4.342   0.704   4.527
  765TIP3    H1 2238   4.336   0.764   4.453
  765TIP3    H2 2239   4.340   0.617   4.487
  766TIP3   OH2 2240   1.926   6.752   6.482
  766TIP3    H1 2241   1.941   6.748   6.387
  766TIP3    H2 2242   1.950   6.665   6.513
  767TIP3   OH2 2243   2.538   0.144   1.708
  767TIP3    H1 2244   2.543   0.164   1.802
  767TIP3    H2 2245   2.452   0.176   1.681
  768TIP3   OH2 2246   6.178   5.495   6.453
  768TIP3    H1 2247   6.138   5.424   6.504
  768TIP3    H2 2248   6.150   5.575   6.497
  769TIP3   OH2 2249   4.339   5.939   4.241
  769TIP3    H1 2250   4.276   5.926   4.170
  769TIP3    H2 2251   4.401   6.004   4.207
  770TIP3   OH2 2252   4.423   4.595   4.632
  770TIP3    H1 2253   4.416   4.502   4.612
  770TIP3    H2 2254   4.370   4.638   4.565
  771TIP3   OH2 2255   2.410   7.136   2.398
  771TIP3    H1 2256   2.422   7.054   2.446
  771TIP3    H2 2257   2.370   7.196   2.461
  772TIP3   OH2 2258   0.454   4.360   2.970
  772TIP3    H1 2259   0.400   4.433   2.938
  772TIP3    H2 2260   0.543   4.394   2.970
  773TIP3   OH2 2261   7.752   1.308   0.614
  773TIP3    H1 2262   7.669   1.310   0.566
  773TIP3    H2 2263   7.740   1.238   0.678
  774TIP3   OH2 2264   6.761   1.961   0.011
  774TIP3    H1 2265   6.731   1.870   0.006
  774TIP3    H2 2266   6.834   1.965  -0.052
  775TIP3   OH2 2267   0.133   0.785   2.762
  775TIP3    H1 2268   0.210   0.837   2.738
  775TIP3    H2 2269   0.160   0.694   2.749
  776TIP3   OH2 2270   1.396   5.604   6.299
  776TIP3    H1 2271   1.307   5.618   6.269
  776TIP3    H2 2272   1.443   5.684   6.274
  777TIP3   OH2 2273   5.926   0.860   3.778
  777TIP3    H1 2274   5.879   0.781   3.803
  777TIP3    H2 2275   5.864   0.931   3.793
  778TIP3   OH2 2276   4.529   7.150   2.230
  778TIP3    H1 2277   4.564   7.062   2.218
  778TIP3    H2 2278   4.461   7.140   2.296
  779TIP3   OH2 2279   5.280   3.500   0.934
  779TIP3    H1 2280   5.239   3.418   0.906
  779TIP3    H2 2281   5.233   3.567   0.885
  780TIP3   OH2 2282   0.554   2.740   2.407
  780TIP3    H1 2283   0.596   2.682   2.344
  780TIP3    H2 2284   0.478   2.691   2.438
  781TIP3   OH2 2285   6.160   0.357   6.716
  781TIP3    H1 2286   6.251   0.366   6.742
  781TIP3    H2 2287   6.139   0.265   6.732
  782TIP3   OH2 2288   7.356  -0.020   1.469
  782TIP3    H1 2289   7.372   0.019   1.383
  782TIP3    H2 2290   7.300  -0.095   1.452
  783TIP3   OH2 2291   4.789   4.064   0.489
  783TIP3    H1 2292   4.774   4.111   0.572
  783TIP3    H2 2293   4.758   4.125   0.422
  784TIP3   OH2 2294   7.173   3.546   0.651
  784TIP3    H1 2295   7.084   3.576   0.670
  784TIP3    H2 2296   7.171   3.522   0.559
  785TIP3   OH2 2297   3.339   4.766   4.969
  785TIP3    H1 2298   3.406   4.714   4.924
  785TIP3    H2 2299   3.303   4.707   5.035
  786TIP3   OH2 2300   2.503   0.854   0.966
  786TIP3    H1 2301   2.485   0.946   0.948
  786TIP3    H2 2302   2.578   0.832   0.911
  787TIP3   OH2 2303   6.150   5.360   3.159
  787TIP3    H1 2304   6.063   5.366   3.199
  787TIP3    H2 2305   6.163   5.444   3.117
  788TIP3   OH2 2306   1.537   4.847   5.436
  788TIP3    H1 2307   1.483   4.925   5.430
  788TIP3    H2 2308   1.544   4.815   5.346
  789TIP3   OH2 2309   0.521   0.529   6.628
  789TIP3    H1 2310   0.546   0.475   6.553
  789TIP3    H2 2311   0.563   0.614   6.613
  790TIP3   OH2 2312   8.022   6.279   1.971
  790TIP3    H1 2313   8.100   6.238   1.934
  790TIP3    H2 2314   8.047   6.301   2.061
  791TIP3   OH2 2315   0.475   6.215   3.653
  791TIP3    H1 2316   0.522   6.287   3.695
  791TIP3    H2 2317   0.428   6.256   3.581
  792TIP3   OH2 2318   0.635   0.459   4.882
  792TIP3    H1 2319   0.620   0.449   4.788
  792TIP3    H2 2320   0.674   0.375   4.909
  793TIP3   OH2 2321   5.270   1.487   0.887
  793TIP3    H1 2322   5.183   1.494   0.847
  793TIP3    H2 2323   5.268   1.549   0.960
  794TIP3   OH2 2324   1.522   2.212   0.276
  794TIP3    H1 2325   1.527   2.185   0.184
  794TIP3    H2 2326   1.487   2.300   0.274
  795TIP3   OH2 2327   7.596   7.103   1.317
  795TIP3    H1 2328   7.648   7.126   1.394
  795TIP3    H2 2329   7.506   7.114   1.345
  796TIP3   OH2 2330   5.986   3.219   4.863
  796TIP3    H1 2331   5.977   3.130   4.829
  796TIP3    H2 2332   6.037   3.265   4.797
  797TIP3   OH2 2333   6.647   6.796   2.202
  797TIP3    H1 2334   6.635   6.728   2.268
  797TIP3    H2 2335   6.639   6.878   2.250
  798TIP3   OH2 2336   7.639   1.858   0.783
  798TIP3    H1 2337   7.690   1.847   0.864
  798TIP3    H2 2338   7.549   1.840   0.809
  799TIP3   OH2 2339   4.256   3.432   5.770
  799TIP3    H1 2340   4.328   3.491   5.792
  799TIP3    H2 2341   4.269   3.411   5.678
  800TIP3   OH2 2342   1.643   5.909   3.449
  800TIP3    H1 2343   1.572   5.845   3.454
  800TIP3    H2 2344   1.712   5.872   3.503
  801TIP3   OH2 2345   2.065   5.792   2.858
  801TIP3    H1 2346   2.007   5.798   2.934
  801TIP3    H2 2347   2.015   5.740   2.795
  802TIP3   OH2 2348   3.694   6.251   2.456
  802TIP3    H1 2349   3.676   6.158   2.446
  802TIP3    H2 2350   3.769   6.268   2.399
  803TIP3   OH2 2351   2.675   5.206   4.659
  803TIP3    H1 2352   2.740   5.195   4.589
  803TIP3    H2 2353   2.676   5.122   4.705
  804TIP3   OH2 2354   1.741   6.928   2.862
  804TIP3    H1 2355   1.836   6.919   2.851
  804TIP3    H2 2356   1.719   6.862   2.928
  805TIP3   OH2 2357   6.400   2.138   1.352
  805TIP3    H1 2358   6.317   2.097   1.375
  805TIP3    H2 2359   6.398   2.223   1.396
  806TIP3   OH2 2360   4.224   2.920   5.634
  806TIP3    H1 2361   4.145   2.947   5.679
  806TIP3    H2 2362   4.231   2.980   5.560
  807TIP3   OH2 2363   5.533   0.769   6.063
  807TIP3    H1 2364   5.599   0.831   6.033
  807TIP3    H2 2365   5.562   0.744   6.151
  808TIP3   OH2 2366   2.322   1.453   6.651
  808TIP3    H1 2367   2.344   1.472   6.560
  808TIP3    H2 2368   2.401   1.473   6.700
  809TIP3   OH2 2369   4.269   0.603   2.875
  809TIP3    H1 2370   4.274   0.581   2.783
  809TIP3    H2 2371   4.207   0.676   2.879
  810TIP3   OH2 2372   6.854   4.869   6.234
  810TIP3    H1 2373   6.906   4.797   6.270
  810TIP3    H2 2374   6.888   4.882   6.146
  811TIP3   OH2 2375   2.789   3.347   1.064
  811TIP3    H1 2376   2.820   3.418   1.010
  811TIP3    H2 2377   2.710   3.381   1.106
  812TIP3   OH2 2378   5.874   7.136   2.491
  812TIP3    H1 2379   5.803   7.130   2.427
  812TIP3    H2 2380   5.887   7.230   2.503
  813TIP3   OH2 2381   5.204   0.770   2.884
  813TIP3    H1 2382   5.185   0.789   2.792
  813TIP3    H2 2383   5.148   0.695   2.904
  814TIP3   OH2 2384   1.381   5.594   1.194
  814TIP3    H1 2385   1.315   5.532   1.163
  814TIP3    H2 2386   1.427   5.621   1.115
  815TIP3   OH2 2387   2.920   0.977   1.857
  815TIP3    H1 2388   2.876   0.982   1.941
  815TIP3    H2 2389   3.010   0.952   1.878
  816TIP3   OH2 2390   2.570   2.690   6.354
  816TIP3    H1 2391   2.535   2.664   6.439
  816TIP3    H2 2392   2.512   2.761   6.326
  817TIP3   OH2 2393   6.935   7.234   0.925
  817TIP3    H1 2394   6.865   7.231   0.860
  817TIP3    H2 2395   6.891   7.224   1.009
  818TIP3   OH2 2396   5.593   2.793   2.832
  818TIP3    H1 2397   5.541   2.861   2.875
  818TIP3    H2 2398   5.569   2.800   2.739
  819TIP3   OH2 2399   3.495   4.351   2.936
  819TIP3    H1 2400   3.442   4.412   2.987
  819TIP3    H2 2401   3.434   4.315   2.871
  820TIP3   OH2 2402   0.649   6.916   1.359
  820TIP3    H1 2403   0.734   6.941   1.324
  820TIP3    H2 2404   0.607   6.999   1.384
  821TIP3   OH2 2405   6.012   2.887   3.319
  821TIP3    H1 2406   6.005   2.887   3.414
  821TIP3    H2 2407   6.072   2.959   3.299
  822TIP3   OH2 2408   0.852   0.237   3.856
  822TIP3    H1 2409   0.947   0.245   3.848
  822TIP3    H2 2410   0.834   0.147   3.832
  823TIP3   OH2 2411   6.639   6.753   3.255
  823TIP3    H1 2412   6.607   6.825   3.310
  823TIP3    H2 2413   6.721   6.786   3.218
  824TIP3   OH2 2414   7.881   7.051   6.134
  824TIP3    H1 2415   7.819   6.990   6.095
  824TIP3    H2 2416   7.852   7.137   6.106
  825TIP3   OH2 2417   5.359   0.509   5.871
  825TIP3    H1 2418   5.279   0.549   5.838
  825TIP3    H2 2419   5.419   0.509   5.796
  826TIP3   OH2 2420   0.236   4.023   3.437
  826TIP3    H1 2421   0.250   4.019   3.531
  826TIP3    H2 2422   0.299   3.960   3.400
  827TIP3   OH2 2423   6.694   1.992   0.572
  827TIP3    H1 2424   6.715   1.980   0.479
  827TIP3    H2 2425   6.652   1.910   0.597
  828TIP3   OH2 2426   7.459   1.571   6.409
  828TIP3    H1 2427   7.513   1.621   6.470
  828TIP3    H2 2428   7.458   1.624   6.329
  829TIP3   OH2 2429   3.460   3.572   0.847
  829TIP3    H1 2430   3.406   3.632   0.898
  829TIP3    H2 2431   3.424   3.485   0.866
  830TIP3   OH2 2432   6.457   7.474   3.702
  830TIP3    H1 2433   6.482   7.494   3.611
  830TIP3    H2 2434   6.536   7.434   3.739
  831TIP3   OH2 2435   4.164   4.791   0.267
  831TIP3    H1 2436   4.208   4.708   0.284
  831TIP3    H2 2437   4.072   4.775   0.289
  832TIP3   OH2 2438   5.157   6.449   5.437
  832TIP3    H1 2439   5.092   6.380   5.426
  832TIP3    H2 2440   5.241   6.404   5.427
  833TIP3   OH2 2441   7.166   2.073   3.342
  833TIP3    H1 2442   7.228   2.136   3.379
  833TIP3    H2 2443   7.106   2.053   3.414
  834TIP3   OH2 2444   3.332   2.866   6.805
  834TIP3    H1 2445   3.380   2.845   6.885
  834TIP3    H2 2446   3.367   2.806   6.739
  835TIP3   OH2 2447   0.292   3.187   3.258
  835TIP3    H1 2448   0.334   3.246   3.196
  835TIP3    H2 2449   0.289   3.102   3.213
  836TIP3   OH2 2450   1.375   7.117   5.911
  836TIP3    H1 2451   1.307   7.183   5.899
  836TIP3    H2 2452   1.456   7.167   5.916
  837TIP3   OH2 2453   7.672   7.169   1.594
  837TIP3    H1 2454   7.736   7.201   1.658
  837TIP3    H2 2455   7.596   7.144   1.647
  838TIP3   OH2 2456   5.905   5.033   2.308
  838TIP3    H1 2457   5.981   5.082   2.277
  838TIP3    H2 2458   5.937   4.943   2.315
  839TIP3   OH2 2459   3.233   0.433   2.372
  839TIP3    H1 2460   3.224   0.369   2.301
  839TIP3    H2 2461   3.143   0.451   2.400
  840TIP3   OH2 2462   4.243   0.354   1.675
  840TIP3    H1 2463   4.273   0.266   1.653
  840TIP3    H2 2464   4.148   0.352   1.659
  841TIP3   OH2 2465   2.015   6.126   4.723
  841TIP3    H1 2466   1.925   6.095   4.736
  841TIP3    H2 2467   2.005   6.211   4.681
  842TIP3   OH2 2468   1.170   7.140   5.552
  842TIP3    H1 2469   1.164   7.233   5.531
  842TIP3    H2 2470   1.089   7.102   5.519
  843TIP3   OH2 2471   1.932   4.604   4.954
  843TIP3    H1 2472   1.946   4.675   4.893
  843TIP3    H2 2473   1.862   4.635   5.012
  844TIP3   OH2 2474   0.043   6.304   3.483
  844TIP3    H1 2475   0.042   6.283   3.577
  844TIP3    H2 2476  -0.002   6.388   3.477
  845TIP3   OH2 2477   8.337   5.994   4.188
  845TIP3    H1 2478   8.304   6.063   4.246
  845TIP3    H2 2479   8.298   6.014   4.103
  846TIP3   OH2 2480   8.162   0.368   2.028
  846TIP3    H1 2481   8.088   0.415   2.066
  846TIP3    H2 2482   8.130   0.334   1.945
  847TIP3   OH2 2483   4.632   5.993   4.786
  847TIP3    H1 2484   4.543   5.998   4.751
  847TIP3    H2 2485   4.676   5.928   4.731
  848TIP3   OH2 2486   0.029   2.116   0.364
  848TIP3    H1 2487   0.072   2.048   0.417
  848TIP3    H2 2488   0.101   2.174   0.337
  849TIP3   OH2 2489   4.952   0.062   0.369
  849TIP3    H1 2490   4.860   0.089   0.374
  849TIP3    H2 2491   4.957  -0.013   0.429
  850TIP3   OH2 2492   7.251   2.748   3.935
  850TIP3    H1 2493   7.286   2.670   3.978
  850TIP3    H2 2494   7.160   2.753   3.965
  851TIP3   OH2 2495   1.578   5.836   1.450
  851TIP3    H1 2496   1.583   5.768   1.516
  851TIP3    H2 2497   1.628   5.909   1.487
  852TIP3   OH2 2498   6.634   2.671   6.778
  852TIP3    H1 2499   6.588   2.726   6.715
  852TIP3    H2 2500   6.676   2.734   6.838
  853TIP3   OH2 2501   1.987   4.652   6.045
  853TIP3    H1 2502   1.900   4.648   6.084
  853TIP3    H2 2503   1.977   4.609   5.960
  854TIP3   OH2 2504   1.098   1.871   4.777
  854TIP3    H1 2505   1.133   1.960   4.778
  854TIP3    H2 2506   1.118   1.837   4.865
  855TIP3   OH2 2507   5.807   7.309   5.799
  855TIP3    H1 2508   5.843   7.397   5.796
  855TIP3    H2 2509   5.793   7.285   5.707
  856TIP3   OH2 2510   3.386   7.283   2.517
  856TIP3    H1 2511   3.327   7.264   2.589
  856TIP3    H2 2512   3.329   7.306   2.444
  857TIP3   OH2 2513   4.862   2.495   1.800
  857TIP3    H1 2514   4.915   2.482   1.879
  857TIP3    H2 2515   4.893   2.427   1.739
  858TIP3   OH2 2516   4.223   1.864   3.206
  858TIP3    H1 2517   4.274   1.894   3.131
  858TIP3    H2 2518   4.201   1.945   3.253
  859TIP3   OH2 2519   7.539   1.202   3.337
  859TIP3    H1 2520   7.448   1.229   3.345
  859TIP3    H2 2521   7.551   1.184   3.244
  860TIP3   OH2 2522   4.137   1.189   6.437
  860TIP3    H1 2523   4.107   1.211   6.525
  860TIP3    H2 2524   4.229   1.165   6.449
  861TIP3   OH2 2525   2.778   2.883   3.371
  861TIP3    H1 2526   2.824   2.806   3.402
  861TIP3    H2 2527   2.797   2.951   3.437
  862TIP3   OH2 2528   7.910   1.139   2.656
  862TIP3    H1 2529   7.914   1.048   2.625
  862TIP3    H2 2530   7.890   1.190   2.578
  863TIP3   OH2 2531   0.293   4.327   1.363
  863TIP3    H1 2532   0.346   4.247   1.364
  863TIP3    H2 2533   0.352   4.396   1.393
  864TIP3   OH2 2534   6.081   4.183   4.406
  864TIP3    H1 2535   6.102   4.250   4.471
  864TIP3    H2 2536   6.069   4.232   4.324
  865TIP3   OH2 2537   6.387   4.681   6.203
  865TIP3    H1 2538   6.426   4.761   6.167
  865TIP3    H2 2539   6.396   4.691   6.298
  866TIP3   OH2 2540   7.534   1.407   3.803
  866TIP3    H1 2541   7.558   1.492   3.765
  866TIP3    H2 2542   7.610   1.382   3.855
  867TIP3   OH2 2543   1.054   0.961   1.470
  867TIP3    H1 2544   0.993   1.004   1.410
  867TIP3    H2 2545   1.115   0.915   1.412
  868TIP3   OH2 2546   4.637   6.308   2.552
  868TIP3    H1 2547   4.569   6.300   2.485
  868TIP3    H2 2548   4.672   6.219   2.561
  869TIP3   OH2 2549   6.720   5.718   4.860
  869TIP3    H1 2550   6.705   5.692   4.769
  869TIP3    H2 2551   6.652   5.782   4.878
  870TIP3   OH2 2552   7.750   3.244   1.850
  870TIP3    H1 2553   7.731   3.228   1.758
  870TIP3    H2 2554   7.836   3.286   1.850
  871TIP3   OH2 2555   3.903   0.731   3.680
  871TIP3    H1 2556   3.959   0.800   3.645
  871TIP3    H2 2557   3.863   0.771   3.757
  872TIP3   OH2 2558   4.248   2.510   6.612
  872TIP3    H1 2559   4.214   2.424   6.590
  872TIP3    H2 2560   4.190   2.571   6.566
  873TIP3   OH2 2561   7.732   1.642   6.007
  873TIP3    H1 2562   7.672   1.571   5.984
  873TIP3    H2 2563   7.813   1.620   5.962
  874TIP3   OH2 2564   2.544   7.836   1.527
  874TIP3    H1 2565   2.614   7.878   1.576
  874TIP3    H2 2566   2.556   7.743   1.542
  875TIP3   OH2 2567   0.429   6.679   3.547
  875TIP3    H1 2568   0.507   6.660   3.494
  875TIP3    H2 2569   0.371   6.725   3.488
  876TIP3   OH2 2570   4.097   1.403   0.938
  876TIP3    H1 2571   4.102   1.488   0.982
  876TIP3    H2 2572   4.067   1.424   0.849
  877TIP3   OH2 2573   1.658   5.213   4.895
  877TIP3    H1 2574   1.637   5.122   4.875
  877TIP3    H2 2575   1.753   5.215   4.902
  878TIP3   OH2 2576   3.262   4.933   4.674
  878TIP3    H1 2577   3.305   4.857   4.714
  878TIP3    H2 2578   3.170   4.925   4.701
  879TIP3   OH2 2579   4.888   4.422   4.753
  879TIP3    H1 2580   4.984   4.425   4.749
  879TIP3    H2 2581   4.868   4.331   4.777
  880TIP3   OH2 2582   3.785   2.770   0.009
  880TIP3    H1 2583   3.804   2.727  -0.074
  880TIP3    H2 2584   3.691   2.789   0.006
  881TIP3   OH2 2585   7.236   3.326   0.925
  881TIP3    H1 2586   7.289   3.254   0.892
  881TIP3    H2 2587   7.297   3.399   0.935
  882TIP3   OH2 2588   1.056   4.900   4.801
  882TIP3    H1 2589   1.037   4.809   4.780
  882TIP3    H2 2590   0.978   4.948   4.775
  883TIP3   OH2 2591   0.947   6.832   6.196
  883TIP3    H1 2592   0.960   6.906   6.137
  883TIP3    H2 2593   0.866   6.791   6.166
  884TIP3   OH2 2594   1.338   4.942   3.951
  884TIP3    H1 2595   1.350   5.029   3.914
  884TIP3    H2 2596   1.245   4.939   3.976
  885TIP3   OH2 2597   3.092   0.862   3.817
  885TIP3    H1 2598   3.114   0.827   3.903
  885TIP3    H2 2599   3.166   0.837   3.762
  886TIP3   OH2 2600   6.447   1.824   5.828
  886TIP3    H1 2601   6.354   1.815   5.849
  886TIP3    H2 2602   6.486   1.865   5.905
  887TIP3   OH2 2603   4.439   3.237   6.142
  887TIP3    H1 2604   4.395   3.316   6.112
  887TIP3    H2 2605   4.488   3.206   6.066
  888TIP3   OH2 2606   5.128   3.740   3.567
  888TIP3    H1 2607   5.048   3.782   3.535
  888TIP3    H2 2608   5.159   3.688   3.492
  889TIP3   OH2 2609   4.473   6.735   2.777
  889TIP3    H1 2610   4.545   6.672   2.780
  889TIP3    H2 2611   4.460   6.754   2.684
  890TIP3   OH2 2612   3.378   1.243   3.182
  890TIP3    H1 2613   3.427   1.276   3.258
  890TIP3    H2 2614   3.404   1.301   3.110
  891TIP3   OH2 2615   2.737   3.376   6.265
  891TIP3    H1 2616   2.763   3.324   6.341
  891TIP3    H2 2617   2.691   3.452   6.301
  892TIP3   OH2 2618   5.133   1.543   3.084
  892TIP3    H1 2619   5.077   1.518   3.011
  892TIP3    H2 2620   5.078   1.531   3.162
  893TIP3   OH2 2621   2.097   1.549   2.586
  893TIP3    H1 2622   2.146   1.542   2.505
  893TIP3    H2 2623   2.162   1.537   2.655
  894TIP3   OH2 2624   1.016   4.007   4.126
  894TIP3    H1 2625   1.002   3.977   4.216
  894TIP3    H2 2626   0.997   4.101   4.129
  895TIP3   OH2 2627   5.681   4.345   6.092
  895TIP3    H1 2628   5.727   4.416   6.135
  895TIP3    H2 2629   5.686   4.272   6.154
  896TIP3   OH2 2630   7.006   5.925   1.238
  896TIP3    H1 2631   6.932   5.983   1.260
  896TIP3    H2 2632   7.077   5.985   1.214
  897TIP3   OH2 2633   0.679   2.438   3.249
  897TIP3    H1 2634   0.755   2.397   3.290
  897TIP3    H2 2635   0.622   2.365   3.225
  898TIP3   OH2 2636   3.208   7.732   5.473
  898TIP3    H1 2637   3.259   7.739   5.393
  898TIP3    H2 2638   3.144   7.664   5.456
  899TIP3   OH2 2639   4.043   7.439   4.097
  899TIP3    H1 2640   3.960   7.397   4.077
  899TIP3    H2 2641   4.106   7.367   4.104
  900TIP3   OH2 2642   5.950   0.413   5.496
  900TIP3    H1 2643   5.887   0.391   5.564
  900TIP3    H2 2644   5.975   0.503   5.514
  901TIP3   OH2 2645   4.861   1.961   1.730
  901TIP3    H1 2646   4.873   1.911   1.649
  901TIP3    H2 2647   4.775   1.933   1.762
  902TIP3   OH2 2648   1.446   0.608   4.799
  902TIP3    H1 2649   1.523   0.587   4.852
  902TIP3    H2 2650   1.458   0.555   4.720
  903TIP3   OH2 2651   7.568   6.437   6.628
  903TIP3    H1 2652   7.574   6.375   6.700
  903TIP3    H2 2653   7.652   6.430   6.583
  904TIP3   OH2 2654   7.577   1.811   4.027
  904TIP3    H1 2655   7.520   1.763   4.087
  904TIP3    H2 2656   7.665   1.775   4.043
  905TIP3   OH2 2657   0.229   6.984   4.671
  905TIP3    H1 2658   0.324   6.994   4.671
  905TIP3    H2 2659   0.197   7.063   4.628
  906TIP3   OH2 2660   3.153   2.069   6.204
  906TIP3    H1 2661   3.109   2.030   6.129
  906TIP3    H2 2662   3.171   1.996   6.262
  907TIP3   OH2 2663   4.749   3.286   5.085
  907TIP3    H1 2664   4.781   3.219   5.025
  907TIP3    H2 2665   4.659   3.260   5.103
  908TIP3   OH2 2666   6.255   2.646   1.715
  908TIP3    H1 2667   6.173   2.692   1.732
  908TIP3    H2 2668   6.241   2.599   1.633
  909TIP3   OH2 2669   6.247   6.003   6.720
  909TIP3    H1 2670   6.180   5.963   6.777
  909TIP3    H2 2671   6.295   5.928   6.684
  910TIP3   OH2 2672   4.628   4.857   6.004
  910TIP3    H1 2673   4.718   4.856   6.036
  910TIP3    H2 2674   4.615   4.770   5.965
  911TIP3   OH2 2675   2.888   7.590   4.703
  911TIP3    H1 2676   2.872   7.622   4.792
  911TIP3    H2 2677   2.809   7.615   4.654
  912TIP3   OH2 2678   2.493   2.774   4.522
  912TIP3    H1 2679   2.544   2.832   4.467
  912TIP3    H2 2680   2.543   2.692   4.524
  913TIP3   OH2 2681   1.376   4.282   0.079
  913TIP3    H1 2682   1.404   4.222   0.148
  913TIP3    H2 2683   1.304   4.236   0.036
  914TIP3   OH2 2684   7.949   2.941   2.804
  914TIP3    H1 2685   7.985   2.908   2.886
  914TIP3    H2 2686   7.970   2.873   2.739
  915TIP3   OH2 2687   7.185   6.431   3.841
  915TIP3    H1 2688   7.222   6.490   3.775
  915TIP3    H2 2689   7.260   6.395   3.887
  916TIP3   OH2 2690   4.769   5.241   4.295
  916TIP3    H1 2691   4.698   5.258   4.233
  916TIP3    H2 2692   4.819   5.323   4.299
  917TIP3   OH2 2693   5.814   1.757   2.152
  917TIP3    H1 2694   5.767   1.801   2.082
  917TIP3    H2 2695   5.906   1.775   2.135
  918TIP3   OH2 2696   0.953   3.797   2.969
  918TIP3    H1 2697   0.879   3.849   2.938
  918TIP3    H2 2698   1.014   3.862   3.005
  919TIP3   OH2 2699   2.183   4.439   5.858
  919TIP3    H1 2700   2.178   4.532   5.880
  919TIP3    H2 2701   2.172   4.393   5.941
  920TIP3   OH2 2702   5.547   2.656   5.734
  920TIP3    H1 2703   5.623   2.619   5.689
  920TIP3    H2 2704   5.552   2.621   5.822
  921TIP3   OH2 2705   1.887   0.343   3.881
  921TIP3    H1 2706   1.933   0.324   3.799
  921TIP3    H2 2707   1.946   0.311   3.950
  922TIP3   OH2 2708   1.560   2.821   0.124
  922TIP3    H1 2709   1.505   2.772   0.062
  922TIP3    H2 2710   1.537   2.785   0.209
  923TIP3   OH2 2711   6.928   4.399   6.057
  923TIP3    H1 2712   6.877   4.319   6.049
  923TIP3    H2 2713   6.869   4.468   6.027
  924TIP3   OH2 2714   2.661   1.051   2.308
  924TIP3    H1 2715   2.640   1.141   2.285
  924TIP3    H2 2716   2.578   1.012   2.336
  925TIP3   OH2 2717   5.846   6.805   5.670
  925TIP3    H1 2718   5.896   6.832   5.748
  925TIP3    H2 2719   5.883   6.856   5.599
  926TIP3   OH2 2720   4.105   0.160   5.196
  926TIP3    H1 2721   4.072   0.073   5.217
  926TIP3    H2 2722   4.180   0.172   5.254
  927TIP3   OH2 2723   5.550   3.068   5.156
  927TIP3    H1 2724   5.514   2.996   5.209
  927TIP3    H2 2725   5.644   3.065   5.173
  928TIP3   OH2 2726   0.829   5.240   4.118
  928TIP3    H1 2727   0.885   5.167   4.144
  928TIP3    H2 2728   0.861   5.267   4.032
  929TIP3   OH2 2729   2.550   5.460   4.089
  929TIP3    H1 2730   2.481   5.421   4.036
  929TIP3    H2 2731   2.630   5.448   4.037
  930TIP3   OH2 2732   2.328   6.911   4.146
  930TIP3    H1 2733   2.250   6.929   4.094
  930TIP3    H2 2734   2.401   6.938   4.090
  931TIP3   OH2 2735   4.732   7.345   5.261
  931TIP3    H1 2736   4.812   7.342   5.210
  931TIP3    H2 2737   4.686   7.423   5.229
  932TIP3   OH2 2738   1.253   3.425   6.169
  932TIP3    H1 2739   1.242   3.456   6.258
  932TIP3    H2 2740   1.247   3.329   6.176
  933TIP3   OH2 2741   3.550   1.866   2.152
  933TIP3    H1 2742   3.531   1.960   2.152
  933TIP3    H2 2743   3.484   1.828   2.094
  934TIP3   OH2 2744   0.983   5.744   6.098
  934TIP3    H1 2745   1.043   5.674   6.122
  934TIP3    H2 2746   0.896   5.705   6.103
  935TIP3   OH2 2747   6.396   6.109   3.005
  935TIP3    H1 2748   6.372   6.078   3.092
  935TIP3    H2 2749   6.490   6.126   3.011
  936TIP3   OH2 2750   2.279   2.489   5.146
  936TIP3    H1 2751   2.228   2.536   5.080
  936TIP3    H2 2752   2.363   2.534   5.147
  937TIP3   OH2 2753   3.984   2.255   1.571
  937TIP3    H1 2754   3.954   2.312   1.642
  937TIP3    H2 2755   3.961   2.302   1.491
  938TIP3   OH2 2756   8.013   6.272   3.579
  938TIP3    H1 2757   8.055   6.357   3.592
  938TIP3    H2 2758   7.956   6.261   3.656
  939TIP3   OH2 2759   7.498   2.497   4.872
  939TIP3    H1 2760   7.454   2.469   4.792
  939TIP3    H2 2761   7.430   2.497   4.939
  940TIP3   OH2 2762   6.679   6.668   1.553
  940TIP3    H1 2763   6.634   6.727   1.613
  940TIP3    H2 2764   6.645   6.691   1.466
  941TIP3   OH2 2765   6.520   2.774   0.476
  941TIP3    H1 2766   6.462   2.847   0.455
  941TIP3    H2 2767   6.571   2.760   0.396
  942TIP3   OH2 2768   5.775   5.177   2.643
  942TIP3    H1 2769   5.859   5.169   2.688
  942TIP3    H2 2770   5.797   5.215   2.558
  943TIP3   OH2 2771   2.488   5.990   4.241
  943TIP3    H1 2772   2.417   5.964   4.300
  943TIP3    H2 2773   2.529   5.907   4.215
  944TIP3   OH2 2774   0.297   6.012   4.249
  944TIP3    H1 2775   0.295   5.928   4.295
  944TIP3    H2 2776   0.214   6.016   4.203
  945TIP3   OH2 2777   7.552   1.081   5.182
  945TIP3    H1 2778   7.526   1.017   5.248
  945TIP3    H2 2779   7.520   1.044   5.099
  946TIP3   OH2 2780   1.111   3.664   1.618
  946TIP3    H1 2781   1.182   3.600   1.625
  946TIP3    H2 2782   1.124   3.723   1.692
  947TIP3   OH2 2783   1.850   7.649   1.813
  947TIP3    H1 2784   1.816   7.564   1.788
  947TIP3    H2 2785   1.858   7.644   1.908
  948TIP3   OH2 2786   1.476   5.478   2.903
  948TIP3    H1 2787   1.566   5.472   2.870
  948TIP3    H2 2788   1.475   5.560   2.953
  949TIP3   OH2 2789   5.243   4.666   3.182
  949TIP3    H1 2790   5.269   4.755   3.206
  949TIP3    H2 2791   5.303   4.642   3.111
  950TIP3   OH2 2792   2.472   6.095   1.588
  950TIP3    H1 2793   2.450   6.176   1.542
  950TIP3    H2 2794   2.517   6.124   1.668
  951TIP3   OH2 2795   2.299   2.679   5.904
  951TIP3    H1 2796   2.214   2.696   5.862
  951TIP3    H2 2797   2.364   2.703   5.838
  952TIP3   OH2 2798   7.431   1.117   4.108
  952TIP3    H1 2799   7.488   1.094   4.035
  952TIP3    H2 2800   7.479   1.088   4.185
  953TIP3   OH2 2801   5.015   6.622   0.988
  953TIP3    H1 2802   4.921   6.622   1.004
  953TIP3    H2 2803   5.054   6.590   1.070
  954TIP3   OH2 2804   0.482   2.066   0.213
  954TIP3    H1 2805   0.537   2.010   0.267
  954TIP3    H2 2806   0.533   2.146   0.200
  955TIP3   OH2 2807   2.165   1.926   5.265
  955TIP3    H1 2808   2.178   2.002   5.322
  955TIP3    H2 2809   2.233   1.864   5.292
  956TIP3   OH2 2810   3.959   6.970   0.088
  956TIP3    H1 2811   3.949   7.000  -0.003
  956TIP3    H2 2812   3.921   6.883   0.088
  957TIP3   OH2 2813   2.973   4.986   6.198
  957TIP3    H1 2814   3.054   4.968   6.150
  957TIP3    H2 2815   2.975   5.081   6.213
  958TIP3   OH2 2816   2.822   4.136   2.623
  958TIP3    H1 2817   2.737   4.100   2.596
  958TIP3    H2 2818   2.855   4.178   2.544
  959TIP3   OH2 2819   7.751   4.575   5.258
  959TIP3    H1 2820   7.824   4.627   5.292
  959TIP3    H2 2821   7.716   4.530   5.335
  960TIP3   OH2 2822   7.407   2.988   2.244
  960TIP3    H1 2823   7.443   2.984   2.333
  960TIP3    H2 2824   7.351   3.066   2.244
  961TIP3   OH2 2825   1.651   4.066   0.653
  961TIP3    H1 2826   1.563   4.063   0.691
  961TIP3    H2 2827   1.679   3.975   0.649
  962TIP3   OH2 2828   2.867   6.995   1.445
  962TIP3    H1 2829   2.867   7.030   1.534
  962TIP3    H2 2830   2.776   7.001   1.416
  963TIP3   OH2 2831   0.407   1.253   6.741
  963TIP3    H1 2832   0.452   1.183   6.695
  963TIP3    H2 2833   0.463   1.329   6.731
  964TIP3   OH2 2834   2.104   0.516   0.974
  964TIP3    H1 2835   2.182   0.462   0.979
  964TIP3    H2 2836   2.037   0.466   1.020
  965TIP3   OH2 2837   5.435   0.505   6.569
  965TIP3    H1 2838   5.427   0.576   6.633
  965TIP3    H2 2839   5.370   0.441   6.597
  966TIP3   OH2 2840   0.886   4.536   4.512
  966TIP3    H1 2841   0.808   4.490   4.545
  966TIP3    H2 2842   0.887   4.518   4.418
  967TIP3   OH2 2843   2.530   6.417   0.929
  967TIP3    H1 2844   2.528   6.346   0.993
  967TIP3    H2 2845   2.583   6.383   0.858
  968TIP3   OH2 2846   2.190   1.568   3.621
  968TIP3    H1 2847   2.202   1.654   3.661
  968TIP3    H2 2848   2.248   1.568   3.545
  969TIP3   OH2 2849   6.986   5.370   5.543
  969TIP3    H1 2850   6.957   5.418   5.466
  969TIP3    H2 2851   7.024   5.289   5.509
  970TIP3   OH2 2852   0.050   0.881   5.028
  970TIP3    H1 2853   0.127   0.894   5.083
  970TIP3    H2 2854  -0.024   0.891   5.088
  971TIP3   OH2 2855   2.517   4.254   5.601
  971TIP3    H1 2856   2.449   4.256   5.534
  971TIP3    H2 2857   2.480   4.302   5.675
  972TIP3   OH2 2858   2.015   4.117   2.655
  972TIP3    H1 2859   1.933   4.156   2.624
  972TIP3    H2 2860   2.057   4.086   2.575
  973TIP3   OH2 2861   7.234   4.704   5.041
  973TIP3    H1 2862   7.327   4.684   5.033
  973TIP3    H2 2863   7.193   4.655   4.970
  974TIP3   OH2 2864   1.866   7.054   5.493
  974TIP3    H1 2865   1.921   7.078   5.418
  974TIP3    H2 2866   1.799   7.122   5.496
  975TIP3   OH2 2867   4.564   4.860   1.161
  975TIP3    H1 2868   4.597   4.920   1.227
  975TIP3    H2 2869   4.638   4.802   1.142
  976TIP3   OH2 2870   4.836   0.449   5.886
  976TIP3    H1 2871   4.912   0.437   5.943
  976TIP3    H2 2872   4.806   0.538   5.904
  977TIP3   OH2 2873   2.477   3.604   2.626
  977TIP3    H1 2874   2.410   3.541   2.600
  977TIP3    H2 2875   2.534   3.556   2.686
  978TIP3   OH2 2876   3.362   6.388   0.612
  978TIP3    H1 2877   3.316   6.320   0.563
  978TIP3    H2 2878   3.299   6.417   0.678
  979TIP3   OH2 2879   6.980   2.692   6.296
  979TIP3    H1 2880   7.017   2.679   6.208
  979TIP3    H2 2881   6.996   2.609   6.341
  980TIP3   OH2 2882   1.171   0.965   0.889
  980TIP3    H1 2883   1.129   0.879   0.892
  980TIP3    H2 2884   1.153   0.998   0.801
  981TIP3   OH2 2885   7.894   7.540   4.139
  981TIP3    H1 2886   7.910   7.494   4.221
  981TIP3    H2 2887   7.978   7.539   4.094
  982TIP3   OH2 2888   7.545   4.279   4.231
  982TIP3    H1 2889   7.570   4.243   4.146
  982TIP3    H2 2890   7.489   4.354   4.210
  983TIP3   OH2 2891   2.723   6.534   3.212
  983TIP3    H1 2892   2.780   6.495   3.277
  983TIP3    H2 2893   2.777   6.602   3.170
  984TIP3   OH2 2894   7.583   3.213   5.703
  984TIP3    H1 2895   7.494   3.245   5.715
  984TIP3    H2 2896   7.608   3.243   5.616
  985TIP3   OH2 2897   4.751   3.626   0.048
  985TIP3    H1 2898   4.758   3.612  -0.047
  985TIP3    H2 2899   4.699   3.552   0.079
  986TIP3   OH2 2900   3.659   5.384   2.031
  986TIP3    H1 2901   3.603   5.459   2.008
  986TIP3    H2 2902   3.616   5.309   1.991
  987TIP3   OH2 2903   3.837   1.389   0.262
  987TIP3    H1 2904   3.863   1.316   0.319
  987TIP3    H2 2905   3.790   1.449   0.320
  988TIP3   OH2 2906   4.609   2.473   4.506
  988TIP3    H1 2907   4.554   2.551   4.519
  988TIP3    H2 2908   4.547   2.404   4.485
  989TIP3   OH2 2909   3.618   4.556   5.869
  989TIP3    H1 2910   3.529   4.555   5.903
  989TIP3    H2 2911   3.659   4.477   5.906
  990TIP3   OH2 2912   2.964   3.863   4.925
  990TIP3    H1 2913   3.030   3.917   4.880
  990TIP3    H2 2914   2.882   3.910   4.911
  991TIP3   OH2 2915   4.950   0.179   4.310
  991TIP3    H1 2916   4.921   0.095   4.345
  991TIP3    H2 2917   4.869   0.227   4.294
  992TIP3   OH2 2918   4.895   4.185   3.781
  992TIP3    H1 2919   4.969   4.156   3.728
  992TIP3    H2 2920   4.926   4.265   3.825
  993TIP3   OH2 2921   7.578   4.999   1.229
  993TIP3    H1 2922   7.600   5.061   1.159
  993TIP3    H2 2923   7.490   5.024   1.256
  994TIP3   OH2 2924   0.969   4.628   6.257
  994TIP3    H1 2925   0.951   4.623   6.351
  994TIP3    H2 2926   1.008   4.543   6.236
  995TIP3   OH2 2927   4.568   6.979   5.213
  995TIP3    H1 2928   4.520   6.964   5.132
  995TIP3    H2 2929   4.501   7.005   5.276
  996TIP3   OH2 2930   0.566   3.366   2.722
  996TIP3    H1 2931   0.561   3.442   2.663
  996TIP3    H2 2932   0.651   3.327   2.704
  997TIP3   OH2 2933   6.779   4.737   0.526
  997TIP3    H1 2934   6.807   4.657   0.569
  997TIP3    H2 2935   6.705   4.768   0.577
  998TIP3   OH2 2936   5.331   2.775   5.658
  998TIP3    H1 2937   5.410   2.729   5.685
  998TIP3    H2 2938   5.281   2.788   5.739
  999TIP3   OH2 2939   6.662   2.344   3.822
  999TIP3    H1 2940   6.711   2.262   3.813
  999TIP3    H2 2941   6.658   2.359   3.917
 1000TIP3   OH2 2942  -0.024   1.107   0.837
 1000TIP3    H1 2943   0.061   1.092   0.878
 1000TIP3    H2 2944  -0.014   1.192   0.793
 1001TIP3   OH2 2945   5.408   6.463   5.122
 1001TIP3    H1 2946   5.395   6.402   5.049
 1001TIP3    H2 2947   5.320   6.494   5.144
 1002TIP3   OH2 2948   1.953   2.605   6.716
 1002TIP3    H1 2949   2.041   2.631   6.743
 1002TIP3    H2 2950   1.919   2.555   6.790
 1003TIP3   OH2 2951   6.716   5.000   6.428
 1003TIP3    H1 2952   6.706   4.937   6.499
 1003TIP3    H2 2953   6.745   4.948   6.353
 1004TIP3   OH2 2954   3.346   6.399   4.055
 1004TIP3    H1 2955   3.305   6.402   3.969
 1004TIP3    H2 2956   3.379   6.309   4.063
 1005TIP3   OH2 2957   1.785   4.338   3.607
 1005TIP3    H1 2958   1.879   4.321   3.607
 1005TIP3    H2 2959   1.746   4.252   3.622
 1006TIP3   OH2 2960   3.713   6.682   6.571
 1006TIP3    H1 2961   3.799   6.645   6.591
 1006TIP3    H2 2962   3.713   6.690   6.475
 1007TIP3   OH2 2963   3.667   5.104   3.036
 1007TIP3    H1 2964   3.611   5.034   3.070
 1007TIP3    H2 2965   3.718   5.063   2.966
 1008TIP3   OH2 2966   0.013   4.252   0.902
 1008TIP3    H1 2967   0.061   4.273   0.982
 1008TIP3    H2 2968   0.076   4.262   0.832
 1009TIP3   OH2 2969   3.529   3.801   5.494
 1009TIP3    H1 2970   3.438   3.788   5.521
 1009TIP3    H2 2971   3.540   3.896   5.494
 1010TIP3   OH2 2972   4.754   6.810   4.124
 1010TIP3    H1 2973   4.698   6.739   4.092
 1010TIP3    H2 2974   4.842   6.772   4.125
 1011TIP3   OH2 2975   6.851   0.711   4.701
 1011TIP3    H1 2976   6.772   0.764   4.709
 1011TIP3    H2 2977   6.862   0.697   4.607
 1012TIP3   OH2 2978   3.779   1.865   3.961
 1012TIP3    H1 2979   3.719   1.929   3.999
 1012TIP3    H2 2980   3.824   1.827   4.037
 1013TIP3   OH2 2981   1.223   3.147   5.569
 1013TIP3    H1 2982   1.230   3.123   5.661
 1013TIP3    H2 2983   1.151   3.210   5.566
 1014TIP3   OH2 2984   5.273   5.683   4.717
 1014TIP3    H1 2985   5.292   5.593   4.688
 1014TIP3    H2 2986   5.179   5.682   4.735
 1015TIP3   OH2 2987   6.532   6.103   2.294
 1015TIP3    H1 2988   6.545   6.175   2.356
 1015TIP3    H2 2989   6.620   6.077   2.268
 1016TIP3   OH2 2990   3.715   6.203   2.942
 1016TIP3    H1 2991   3.749   6.265   3.007
 1016TIP3    H2 2992   3.718   6.251   2.859
 1017TIP3   OH2 2993   1.959   4.691   1.372
 1017TIP3    H1 2994   2.029   4.726   1.428
 1017TIP3    H2 2995   1.896   4.762   1.365
 1018TIP3   OH2 2996   2.103   6.659   2.077
 1018TIP3    H1 2997   2.033   6.607   2.116
 1018TIP3    H2 2998   2.060   6.704   2.004
 1019TIP3   OH2 2999   4.299   2.627   2.488
 1019TIP3    H1 3000   4.342   2.627   2.402
 1019TIP3    H2 3001   4.297   2.535   2.514
 1020TIP3   OH2 3002   0.973   2.160   0.769
 1020TIP3    H1 3003   0.906   2.228   0.758
 1020TIP3    H2 3004   0.941   2.106   0.842
 1021TIP3   OH2 3005   5.946   1.141   4.277
 1021TIP3    H1 3006   5.942   1.210   4.343
 1021TIP3    H2 3007   5.934   1.188   4.194
 1022TIP3   OH2 3008   3.301   0.613   2.974
 1022TIP3    H1 3009   3.218   0.617   3.021
 1022TIP3    H2 3010   3.362   0.572   3.035
 1023TIP3   OH2 3011   3.204   7.644   0.781
 1023TIP3    H1 3012   3.233   7.620   0.694
 1023TIP3    H2 3013   3.284   7.669   0.827
 1024TIP3   OH2 3014   6.049   2.637   4.786
 1024TIP3    H1 3015   5.975   2.634   4.726
 1024TIP3    H2 3016   6.038   2.561   4.843
 1025TIP3   OH2 3017   3.435   7.781   5.914
 1025TIP3    H1 3018   3.404   7.851   5.856
 1025TIP3    H2 3019   3.505   7.738   5.864
 1026TIP3   OH2 3020   2.497   5.577   1.258
 1026TIP3    H1 3021   2.547   5.498   1.274
 1026TIP3    H2 3022   2.536   5.615   1.180
 1027TIP3   OH2 3023   5.941   0.335   2.559
 1027TIP3    H1 3024   5.878   0.368   2.623
 1027TIP3    H2 3025   5.934   0.395   2.485
 1028TIP3   OH2 3026   3.691   1.093   5.306
 1028TIP3    H1 3027   3.700   1.006   5.269
 1028TIP3    H2 3028   3.780   1.127   5.311
 1029TIP3   OH2 3029   5.386   2.287   3.754
 1029TIP3    H1 3030   5.439   2.255   3.827
 1029TIP3    H2 3031   5.424   2.371   3.731
 1030TIP3   OH2 3032   6.731   2.847   5.883
 1030TIP3    H1 3033   6.698   2.929   5.918
 1030TIP3    H2 3034   6.786   2.872   5.809
 1031TIP3   OH2 3035   0.879   7.303   2.244
 1031TIP3    H1 3036   0.873   7.259   2.159
 1031TIP3    H2 3037   0.788   7.325   2.265
 1032TIP3   OH2 3038   2.165   3.173   4.148
 1032TIP3    H1 3039   2.107   3.183   4.072
 1032TIP3    H2 3040   2.110   3.137   4.216
 1033TIP3   OH2 3041   5.468   2.953   3.415
 1033TIP3    H1 3042   5.479   3.045   3.391
 1033TIP3    H2 3043   5.409   2.955   3.491
 1034TIP3   OH2 3044   4.534   2.377   0.971
 1034TIP3    H1 3045   4.569   2.392   0.883
 1034TIP3    H2 3046   4.450   2.332   0.956
 1035TIP3   OH2 3047   4.839   0.748   2.382
 1035TIP3    H1 3048   4.881   0.813   2.438
 1035TIP3    H2 3049   4.758   0.789   2.353
 1036TIP3   OH2 3050   8.165   2.802   4.330
 1036TIP3    H1 3051   8.151   2.753   4.411
 1036TIP3    H2 3052   8.199   2.737   4.268
 1037TIP3   OH2 3053   7.625   7.267   2.394
 1037TIP3    H1 3054   7.543   7.313   2.372
 1037TIP3    H2 3055   7.598   7.178   2.416
 1038TIP3   OH2 3056   3.857   3.241   2.067
 1038TIP3    H1 3057   3.904   3.305   2.119
 1038TIP3    H2 3058   3.901   3.158   2.086
 1039TIP3   OH2 3059   0.970   6.669   4.125
 1039TIP3    H1 3060   1.060   6.692   4.146
 1039TIP3    H2 3061   0.926   6.753   4.109
 1040TIP3   OH2 3062   1.607  -0.032   6.097
 1040TIP3    H1 3063   1.657   0.007   6.169
 1040TIP3    H2 3064   1.671  -0.041   6.026
 1041TIP3   OH2 3065   8.102   2.274   1.498
 1041TIP3    H1 3066   8.173   2.215   1.473
 1041TIP3    H2 3067   8.147   2.352   1.531
 1042TIP3   OH2 3068   0.373   6.977   5.165
 1042TIP3    H1 3069   0.457   7.020   5.148
 1042TIP3    H2 3070   0.349   7.008   5.253
 1043TIP3   OH2 3071   3.643   1.003   1.969
 1043TIP3    H1 3072   3.560   0.983   1.926
 1043TIP3    H2 3073   3.644   0.945   2.046
 1044TIP3   OH2 3074   4.636   4.281   3.084
 1044TIP3    H1 3075   4.567   4.346   3.069
 1044TIP3    H2 3076   4.697   4.324   3.145
 1045TIP3   OH2 3077   4.167   3.329   4.746
 1045TIP3    H1 3078   4.224   3.253   4.744
 1045TIP3    H2 3079   4.225   3.404   4.736
 1046TIP3   OH2 3080   1.442   3.994   2.124
 1046TIP3    H1 3081   1.374   4.056   2.151
 1046TIP3    H2 3082   1.518   4.048   2.103
 1047TIP3   OH2 3083   4.814   2.902   0.236
 1047TIP3    H1 3084   4.900   2.861   0.237
 1047TIP3    H2 3085   4.817   2.967   0.307
 1048TIP3   OH2 3086   4.266   2.648   4.534
 1048TIP3    H1 3087   4.283   2.574   4.476
 1048TIP3    H2 3088   4.174   2.638   4.559
 1049TIP3   OH2 3089   6.344   7.085   0.044
 1049TIP3    H1 3090   6.378   7.001   0.077
 1049TIP3    H2 3091   6.261   7.097   0.090
 1050TIP3   OH2 3092   3.677   1.397   6.050
 1050TIP3    H1 3093   3.687   1.410   5.956
 1050TIP3    H2 3094   3.742   1.456   6.089
 1051TIP3   OH2 3095   8.032   2.592   1.764
 1051TIP3    H1 3096   8.095   2.573   1.695
 1051TIP3    H2 3097   7.997   2.507   1.789
 1052TIP3   OH2 3098   0.375   7.248   1.202
 1052TIP3    H1 3099   0.354   7.330   1.245
 1052TIP3    H2 3100   0.418   7.195   1.269
 1053TIP3   OH2 3101   2.858   2.732   4.170
 1053TIP3    H1 3102   2.844   2.777   4.087
 1053TIP3    H2 3103   2.895   2.798   4.228
 1054TIP3   OH2 3104   0.937   1.203   4.056
 1054TIP3    H1 3105   1.016   1.160   4.089
 1054TIP3    H2 3106   0.870   1.134   4.057
 1055TIP3   OH2 3107   2.501   4.627   0.623
 1055TIP3    H1 3108   2.548   4.568   0.565
 1055TIP3    H2 3109   2.471   4.571   0.695
 1056TIP3   OH2 3110   2.264   0.798   2.708
 1056TIP3    H1 3111   2.197   0.751   2.758
 1056TIP3    H2 3112   2.338   0.806   2.769
 1057TIP3   OH2 3113   3.246   0.954   4.373
 1057TIP3    H1 3114   3.311   0.912   4.317
 1057TIP3    H2 3115   3.292   0.967   4.456
 1058TIP3   OH2 3116   3.368   2.549   6.169
 1058TIP3    H1 3117   3.452   2.594   6.160
 1058TIP3    H2 3118   3.371   2.480   6.102
 1059TIP3   OH2 3119   1.133   5.053   3.441
 1059TIP3    H1 3120   1.203   5.119   3.435
 1059TIP3    H2 3121   1.108   5.037   3.350
 1060TIP3   OH2 3122   6.292   0.409   0.231
 1060TIP3    H1 3123   6.289   0.367   0.318
 1060TIP3    H2 3124   6.278   0.502   0.249
 1061TIP3   OH2 3125   6.927   3.267   0.635
 1061TIP3    H1 3126   6.935   3.172   0.631
 1061TIP3    H2 3127   6.975   3.298   0.558
 1062TIP3   OH2 3128   5.945   5.697   1.027
 1062TIP3    H1 3129   5.877   5.764   1.018
 1062TIP3    H2 3130   5.920   5.629   0.964
 1063TIP3   OH2 3131   6.609   7.119   6.152
 1063TIP3    H1 3132   6.535   7.146   6.205
 1063TIP3    H2 3133   6.648   7.201   6.122
 1064TIP3   OH2 3134   3.061   5.206   5.141
 1064TIP3    H1 3135   2.993   5.210   5.074
 1064TIP3    H2 3136   3.124   5.143   5.108
 1065TIP3   OH2 3137   3.965   1.742   6.714
 1065TIP3    H1 3138   3.955   1.660   6.666
 1065TIP3    H2 3139   3.878   1.781   6.713
 1066TIP3   OH2 3140   5.217   0.985   2.634
 1066TIP3    H1 3141   5.160   0.912   2.612
 1066TIP3    H2 3142   5.160   1.048   2.677
 1067TIP3   OH2 3143   7.145   7.833   0.185
 1067TIP3    H1 3144   7.053   7.814   0.204
 1067TIP3    H2 3145   7.173   7.761   0.129
 1068TIP3   OH2 3146   3.030   0.845   2.794
 1068TIP3    H1 3147   3.085   0.791   2.738
 1068TIP3    H2 3148   3.090   0.910   2.831
 1069TIP3   OH2 3149   7.324   6.618   3.687
 1069TIP3    H1 3150   7.352   6.708   3.704
 1069TIP3    H2 3151   7.364   6.595   3.603
 1070TIP3   OH2 3152   5.738   2.536   6.262
 1070TIP3    H1 3153   5.788   2.521   6.343
 1070TIP3    H2 3154   5.721   2.630   6.261
 1071TIP3   OH2 3155   6.988   4.173   1.539
 1071TIP3    H1 3156   6.970   4.223   1.619
 1071TIP3    H2 3157   6.979   4.082   1.564
 1072TIP3   OH2 3158   0.137   1.921   3.296
 1072TIP3    H1 3159   0.051   1.930   3.255
 1072TIP3    H2 3160   0.147   1.999   3.349
 1073TIP3   OH2 3161   3.603   5.753   2.168
 1073TIP3    H1 3162   3.541   5.750   2.240
 1073TIP3    H2 3163   3.683   5.713   2.203
 1074TIP3   OH2 3164   7.376   1.292   1.954
 1074TIP3    H1 3165   7.389   1.230   2.026
 1074TIP3    H2 3166   7.360   1.238   1.878
 1075TIP3   OH2 3167   3.984   6.107   1.705
 1075TIP3    H1 3168   3.898   6.073   1.729
 1075TIP3    H2 3169   4.045   6.061   1.762
 1076TIP3   OH2 3170   8.011   1.918   4.324
 1076TIP3    H1 3171   8.079   1.866   4.366
 1076TIP3    H2 3172   7.940   1.857   4.307
 1077TIP3   OH2 3173   4.252   0.218   1.345
 1077TIP3    H1 3174   4.311   0.186   1.277
 1077TIP3    H2 3175   4.281   0.173   1.425
 1078TIP3   OH2 3176   2.329   0.994   0.518
 1078TIP3    H1 3177   2.275   1.021   0.592
 1078TIP3    H2 3178   2.396   0.938   0.557
 1079TIP3   OH2 3179   3.847   7.110   1.852
 1079TIP3    H1 3180   3.770   7.124   1.908
 1079TIP3    H2 3181   3.879   7.023   1.876
 1080TIP3   OH2 3182   8.123   0.283   5.233
 1080TIP3    H1 3183   8.123   0.331   5.317
 1080TIP3    H2 3184   8.049   0.320   5.185
 1081TIP3   OH2 3185   2.512   0.581   5.738
 1081TIP3    H1 3186   2.499   0.629   5.820
 1081TIP3    H2 3187   2.598   0.611   5.707
 1082TIP3   OH2 3188   2.720   2.149   2.761
 1082TIP3    H1 3189   2.678   2.098   2.691
 1082TIP3    H2 3190   2.801   2.102   2.780
 1083TIP3   OH2 3191   3.461   3.550   1.459
 1083TIP3    H1 3192   3.390   3.554   1.395
 1083TIP3    H2 3193   3.481   3.641   1.480
 1084TIP3   OH2 3194   7.170   1.456   3.596
 1084TIP3    H1 3195   7.103   1.467   3.528
 1084TIP3    H2 3196   7.191   1.546   3.622
 1085TIP3   OH2 3197   0.840   6.447   3.033
 1085TIP3    H1 3198   0.766   6.490   3.077
 1085TIP3    H2 3199   0.829   6.354   3.053
 1086TIP3   OH2 3200   6.685   0.959   5.588
 1086TIP3    H1 3201   6.736   1.023   5.539
 1086TIP3    H2 3202   6.606   0.945   5.536
 1087TIP3   OH2 3203   6.683   6.322   5.475
 1087TIP3    H1 3204   6.605   6.307   5.527
 1087TIP3    H2 3205   6.717   6.235   5.454
 1088TIP3   OH2 3206   5.362   3.155   4.743
 1088TIP3    H1 3207   5.384   3.103   4.820
 1088TIP3    H2 3208   5.430   3.223   4.740
 1089TIP3   OH2 3209   7.164   0.381   2.893
 1089TIP3    H1 3210   7.203   0.305   2.848
 1089TIP3    H2 3211   7.207   0.456   2.853
 1090TIP3   OH2 3212   7.828   5.192   0.438
 1090TIP3    H1 3213   7.916   5.222   0.461
 1090TIP3    H2 3214   7.770   5.241   0.496
 1091TIP3   OH2 3215   4.603   0.561   4.383
 1091TIP3    H1 3216   4.654   0.505   4.325
 1091TIP3    H2 3217   4.526   0.509   4.405
 1092TIP3   OH2 3218   0.056   3.011   4.377
 1092TIP3    H1 3219   0.011   3.084   4.335
 1092TIP3    H2 3220  -0.009   2.973   4.437
 1093TIP3   OH2 3221   1.097   7.483   2.021
 1093TIP3    H1 3222   1.038   7.440   2.083
 1093TIP3    H2 3223   1.084   7.577   2.038
 1094TIP3   OH2 3224   1.444   0.674   3.730
 1094TIP3    H1 3225   1.476   0.663   3.820
 1094TIP3    H2 3226   1.517   0.645   3.675
 1095TIP3   OH2 3227   4.318   4.314   3.284
 1095TIP3    H1 3228   4.340   4.407   3.289
 1095TIP3    H2 3229   4.242   4.311   3.227
 1096TIP3   OH2 3230   0.584   3.932   3.721
 1096TIP3    H1 3231   0.565   3.963   3.633
 1096TIP3    H2 3232   0.667   3.885   3.712
 1097TIP3   OH2 3233   0.600   6.704   0.747
 1097TIP3    H1 3234   0.626   6.620   0.709
 1097TIP3    H2 3235   0.525   6.683   0.802
 1098TIP3   OH2 3236   6.320   7.388   0.168
 1098TIP3    H1 3237   6.306   7.308   0.218
 1098TIP3    H2 3238   6.400   7.371   0.117
 1099TIP3   OH2 3239   4.292   5.168   0.664
 1099TIP3    H1 3240   4.273   5.200   0.576
 1099TIP3    H2 3241   4.217   5.198   0.716
 1100TIP3   OH2 3242   4.908   1.783   2.731
 1100TIP3    H1 3243   4.822   1.789   2.688
 1100TIP3    H2 3244   4.957   1.858   2.696
 1101TIP3   OH2 3245   2.115   2.345   3.985
 1101TIP3    H1 3246   2.026   2.358   3.952
 1101TIP3    H2 3247   2.150   2.274   3.932
 1102TIP3   OH2 3248   4.170   4.980   0.473
 1102TIP3    H1 3249   4.258   4.959   0.505
 1102TIP3    H2 3250   4.176   4.969   0.378
 1103TIP3   OH2 3251   4.476   4.815   2.372
 1103TIP3    H1 3252   4.414   4.811   2.299
 1103TIP3    H2 3253   4.495   4.908   2.382
 1104TIP3   OH2 3254   5.832   4.968   3.555
 1104TIP3    H1 3255   5.861   4.981   3.645
 1104TIP3    H2 3256   5.913   4.964   3.504
 1105TIP3   OH2 3257   1.764   1.561   4.448
 1105TIP3    H1 3258   1.846   1.593   4.485
 1105TIP3    H2 3259   1.791   1.511   4.371
 1106TIP3   OH2 3260   4.352   7.204   2.015
 1106TIP3    H1 3261   4.367   7.297   2.001
 1106TIP3    H2 3262   4.426   7.175   2.068
 1107TIP3   OH2 3263   6.873   1.376   1.985
 1107TIP3    H1 3264   6.922   1.298   1.959
 1107TIP3    H2 3265   6.792   1.342   2.023
 1108TIP3   OH2 3266   3.846   6.364   1.461
 1108TIP3    H1 3267   3.911   6.384   1.528
 1108TIP3    H2 3268   3.795   6.292   1.498
 1109TIP3   OH2 3269   7.564   5.697   1.771
 1109TIP3    H1 3270   7.590   5.738   1.689
 1109TIP3    H2 3271   7.514   5.620   1.744
 1110TIP3   OH2 3272   5.278   5.026   0.883
 1110TIP3    H1 3273   5.350   5.012   0.822
 1110TIP3    H2 3274   5.222   5.091   0.840
 1111TIP3   OH2 3275   4.986   2.831   6.730
 1111TIP3    H1 3276   5.003   2.921   6.705
 1111TIP3    H2 3277   4.959   2.836   6.821
 1112TIP3   OH2 3278   5.758   7.505   0.425
 1112TIP3    H1 3279   5.777   7.411   0.419
 1112TIP3    H2 3280   5.757   7.535   0.334
 1113TIP3   OH2 3281   6.532   2.377   5.648
 1113TIP3    H1 3282   6.618   2.335   5.658
 1113TIP3    H2 3283   6.536   2.453   5.707
 1114TIP3   OH2 3284   5.033   5.159   6.739
 1114TIP3    H1 3285   5.058   5.070   6.716
 1114TIP3    H2 3286   4.942   5.167   6.708
 1115TIP3   OH2 3287   1.139   4.859   2.696
 1115TIP3    H1 3288   1.200   4.884   2.765
 1115TIP3    H2 3289   1.157   4.921   2.625
 1116TIP3   OH2 3290   8.120   4.517   5.653
 1116TIP3    H1 3291   8.167   4.598   5.670
 1116TIP3    H2 3292   8.135   4.462   5.730
 1117TIP3   OH2 3293   5.476   7.316   3.683
 1117TIP3    H1 3294   5.534   7.383   3.720
 1117TIP3    H2 3295   5.455   7.348   3.595
 1118TIP3   OH2 3296   5.162   1.228   5.499
 1118TIP3    H1 3297   5.186   1.265   5.585
 1118TIP3    H2 3298   5.066   1.222   5.502
 1119TIP3   OH2 3299   7.338   4.506   1.663
 1119TIP3    H1 3300   7.424   4.525   1.625
 1119TIP3    H2 3301   7.354   4.502   1.757
 1120TIP3   OH2 3302   0.807   1.017   6.046
 1120TIP3    H1 3303   0.857   1.008   5.965
 1120TIP3    H2 3304   0.800   0.928   6.080
 1121TIP3   OH2 3305   6.947   6.589   1.556
 1121TIP3    H1 3306   6.923   6.497   1.566
 1121TIP3    H2 3307   6.864   6.636   1.559
 1122TIP3   OH2 3308   4.073   0.795   4.519
 1122TIP3    H1 3309   4.165   0.769   4.522
 1122TIP3    H2 3310   4.032   0.734   4.457
 1123TIP3   OH2 3311   6.124   6.164   5.322
 1123TIP3    H1 3312   6.130   6.216   5.402
 1123TIP3    H2 3313   6.201   6.106   5.325
 1124TIP3   OH2 3314   1.072   5.113   4.590
 1124TIP3    H1 3315   0.988   5.158   4.595
 1124TIP3    H2 3316   1.050   5.021   4.601
 1125TIP3   OH2 3317   5.181   6.680   4.776
 1125TIP3    H1 3318   5.200   6.592   4.744
 1125TIP3    H2 3319   5.106   6.668   4.835
 1126TIP3   OH2 3320   2.825   7.055   3.073
 1126TIP3    H1 3321   2.810   7.099   2.989
 1126TIP3    H2 3322   2.739   7.022   3.099
 1127TIP3   OH2 3323   0.804   3.810   4.048
 1127TIP3    H1 3324   0.860   3.888   4.061
 1127TIP3    H2 3325   0.739   3.838   3.984
 1128TIP3   OH2 3326   6.408   3.757   1.547
 1128TIP3    H1 3327   6.320   3.786   1.571
 1128TIP3    H2 3328   6.406   3.662   1.562
 1129TIP3   OH2 3329   0.061   7.067   3.704
 1129TIP3    H1 3330   0.061   7.154   3.664
 1129TIP3    H2 3331  -0.032   7.045   3.714
 1130TIP3   OH2 3332   1.962   7.090   3.174
 1130TIP3    H1 3333   1.897   7.075   3.105
 1130TIP3    H2 3334   2.043   7.056   3.137
 1131TIP3   OH2 3335   7.220   1.814   5.406
 1131TIP3    H1 3336   7.206   1.902   5.441
 1131TIP3    H2 3337   7.310   1.815   5.374
 1132TIP3   OH2 3338   2.959   5.612   0.066
 1132TIP3    H1 3339   3.041   5.641   0.026
 1132TIP3    H2 3340   2.986   5.550   0.134
 1133TIP3   OH2 3341   0.656   4.428   0.724
 1133TIP3    H1 3342   0.594   4.497   0.751
 1133TIP3    H2 3343   0.716   4.473   0.664
 1134TIP3   OH2 3344   6.016   7.577   1.183
 1134TIP3    H1 3345   5.981   7.657   1.143
 1134TIP3    H2 3346   6.099   7.605   1.222
 1135TIP3   OH2 3347   7.765   1.970   5.060
 1135TIP3    H1 3348   7.687   1.916   5.049
 1135TIP3    H2 3349   7.758   2.036   4.991
 1136TIP3   OH2 3350   7.968   7.094   5.170
 1136TIP3    H1 3351   7.902   7.156   5.202
 1136TIP3    H2 3352   7.918   7.025   5.128
 1137TIP3   OH2 3353   3.434   0.147   3.441
 1137TIP3    H1 3354   3.505   0.212   3.436
 1137TIP3    H2 3355   3.411   0.145   3.534
 1138TIP3   OH2 3356   0.947   4.099   6.083
 1138TIP3    H1 3357   0.991   4.178   6.114
 1138TIP3    H2 3358   0.965   4.034   6.151
 1139TIP3   OH2 3359   3.189   6.497   0.819
 1139TIP3    H1 3360   3.246   6.486   0.895
 1139TIP3    H2 3361   3.182   6.592   0.807
 1140TIP3   OH2 3362   7.386   7.027   1.736
 1140TIP3    H1 3363   7.458   6.982   1.692
 1140TIP3    H2 3364   7.324   7.047   1.667
 1141TIP3   OH2 3365   0.437   5.047   5.723
 1141TIP3    H1 3366   0.346   5.040   5.694
 1141TIP3    H2 3367   0.434   5.114   5.791
 1142TIP3   OH2 3368   0.483   1.999   5.301
 1142TIP3    H1 3369   0.432   2.020   5.379
 1142TIP3    H2 3370   0.418   1.996   5.230
 1143TIP3   OH2 3371   5.120   4.604   2.050
 1143TIP3    H1 3372   5.086   4.659   1.980
 1143TIP3    H2 3373   5.087   4.645   2.131
 1144TIP3   OH2 3374   3.722   7.794   6.713
 1144TIP3    H1 3375   3.723   7.766   6.621
 1144TIP3    H2 3376   3.647   7.749   6.751
 1145TIP3   OH2 3377   6.531   0.623   3.578
 1145TIP3    H1 3378   6.552   0.606   3.670
 1145TIP3    H2 3379   6.549   0.717   3.567
 1146TIP3   OH2 3380   4.491   3.729   5.490
 1146TIP3    H1 3381   4.453   3.746   5.403
 1146TIP3    H2 3382   4.531   3.813   5.515
 1147TIP3   OH2 3383   2.150   4.478   1.278
 1147TIP3    H1 3384   2.132   4.571   1.268
 1147TIP3    H2 3385   2.204   4.473   1.357
 1148TIP3   OH2 3386   3.934   1.070   2.809
 1148TIP3    H1 3387   3.986   1.148   2.826
 1148TIP3    H2 3388   3.852   1.085   2.855
 1149TIP3   OH2 3389   4.197   3.218   6.352
 1149TIP3    H1 3390   4.265   3.248   6.293
 1149TIP3    H2 3391   4.137   3.293   6.360
 1150TIP3   OH2 3392   5.147   0.542   3.237
 1150TIP3    H1 3393   5.061   0.502   3.230
 1150TIP3    H2 3394   5.194   0.513   3.158
 1151TIP3   OH2 3395   3.251   5.344   4.720
 1151TIP3    H1 3396   3.197   5.392   4.658
 1151TIP3    H2 3397   3.262   5.403   4.794
 1152TIP3   OH2 3398   7.183   6.744   6.017
 1152TIP3    H1 3399   7.269   6.764   5.981
 1152TIP3    H2 3400   7.199   6.729   6.110
 1153TIP3   OH2 3401   3.462   5.164   3.216
 1153TIP3    H1 3402   3.508   5.167   3.132
 1153TIP3    H2 3403   3.531   5.151   3.281
 1154TIP3   OH2 3404   1.269   5.405   2.065
 1154TIP3    H1 3405   1.361   5.427   2.073
 1154TIP3    H2 3406   1.237   5.461   1.994
 1155TIP3   OH2 3407   5.340   4.035   5.543
 1155TIP3    H1 3408   5.387   3.953   5.531
 1155TIP3    H2 3409   5.371   4.068   5.628
 1156TIP3   OH2 3410   3.555   5.597   0.946
 1156TIP3    H1 3411   3.547   5.691   0.931
 1156TIP3    H2 3412   3.514   5.556   0.870
 1157TIP3   OH2 3413   7.582   3.777   5.431
 1157TIP3    H1 3414   7.676   3.792   5.444
 1157TIP3    H2 3415   7.577   3.696   5.380
 1158TIP3   OH2 3416   7.592   0.892   4.601
 1158TIP3    H1 3417   7.533   0.924   4.533
 1158TIP3    H2 3418   7.632   0.971   4.638
 1159TIP3   OH2 3419   1.903   3.316   5.866
 1159TIP3    H1 3420   1.892   3.404   5.831
 1159TIP3    H2 3421   1.835   3.264   5.821
 1160TIP3   OH2 3422   2.174   3.749   0.587
 1160TIP3    H1 3423   2.199   3.835   0.621
 1160TIP3    H2 3424   2.082   3.758   0.562
 1161TIP3   OH2 3425   0.071   2.267   4.819
 1161TIP3    H1 3426   0.067   2.224   4.904
 1161TIP3    H2 3427   0.164   2.286   4.806
 1162TIP3   OH2 3428   4.890   3.921   1.381
 1162TIP3    H1 3429   4.937   3.847   1.343
 1162TIP3    H2 3430   4.808   3.884   1.413
 1163TIP3   OH2 3431   5.201   1.384   3.734
 1163TIP3    H1 3432   5.142   1.360   3.806
 1163TIP3    H2 3433   5.150   1.369   3.655
 1164TIP3   OH2 3434   6.794   6.038   1.872
 1164TIP3    H1 3435   6.883   6.023   1.839
 1164TIP3    H2 3436   6.750   6.085   1.801
 1165TIP3   OH2 3437   7.741   6.541   2.625
 1165TIP3    H1 3438   7.706   6.455   2.647
 1165TIP3    H2 3439   7.664   6.597   2.617
 1166TIP3   OH2 3440   6.237   1.248   2.322
 1166TIP3    H1 3441   6.254   1.273   2.413
 1166TIP3    H2 3442   6.300   1.299   2.271
 1167TIP3   OH2 3443   3.882   5.862   5.911
 1167TIP3    H1 3444   3.833   5.858   5.994
 1167TIP3    H2 3445   3.844   5.937   5.865
 1168TIP3   OH2 3446   5.732   2.755   0.985
 1168TIP3    H1 3447   5.697   2.680   1.033
 1168TIP3    H2 3448   5.662   2.819   0.986
 1169TIP3   OH2 3449   1.224   3.138   0.870
 1169TIP3    H1 3450   1.312   3.100   0.869
 1169TIP3    H2 3451   1.169   3.072   0.828
 1170TIP3   OH2 3452   5.941   6.620   5.995
 1170TIP3    H1 3453   5.958   6.714   5.986
 1170TIP3    H2 3454   6.026   6.579   5.980
 1171TIP3   OH2 3455   3.068   4.508   0.634
 1171TIP3    H1 3456   3.044   4.431   0.685
 1171TIP3    H2 3457   3.139   4.548   0.683
 1172TIP3   OH2 3458   1.893   1.237   0.119
 1172TIP3    H1 3459   1.815   1.211   0.069
 1172TIP3    H2 3460   1.929   1.155   0.151
 1173TIP3   OH2 3461   0.576   5.758   3.089
 1173TIP3    H1 3462   0.542   5.837   3.131
 1173TIP3    H2 3463   0.653   5.788   3.041
 1174TIP3   OH2 3464   6.099   2.367   5.961
 1174TIP3    H1 3465   6.039   2.431   5.922
 1174TIP3    H2 3466   6.111   2.302   5.892
 1175TIP3   OH2 3467   5.268   0.642   4.798
 1175TIP3    H1 3468   5.334   0.588   4.841
 1175TIP3    H2 3469   5.206   0.664   4.868
 1176TIP3   OH2 3470   5.192   6.487   1.213
 1176TIP3    H1 3471   5.253   6.463   1.143
 1176TIP3    H2 3472   5.247   6.504   1.289
 1177TIP3   OH2 3473   4.791   1.504   0.469
 1177TIP3    H1 3474   4.837   1.456   0.400
 1177TIP3    H2 3475   4.774   1.590   0.430
 1178TIP3   OH2 3476   1.413   6.060   2.856
 1178TIP3    H1 3477   1.450   6.023   2.775
 1178TIP3    H2 3478   1.489   6.079   2.911
 1179TIP3   OH2 3479   4.547   1.859   4.681
 1179TIP3    H1 3480   4.559   1.770   4.715
 1179TIP3    H2 3481   4.636   1.891   4.667
 1180TIP3   OH2 3482   7.940   6.446   3.122
 1180TIP3    H1 3483   7.965   6.509   3.054
 1180TIP3    H2 3484   8.019   6.437   3.177
 1181TIP3   OH2 3485   6.506   4.460   4.080
 1181TIP3    H1 3486   6.576   4.441   4.016
 1181TIP3    H2 3487   6.425   4.444   4.032
 1182TIP3   OH2 3488   1.618   4.030   3.383
 1182TIP3    H1 3489   1.712   4.013   3.389
 1182TIP3    H2 3490   1.588   3.973   3.312
 1183TIP3   OH2 3491   4.759   1.778   5.092
 1183TIP3    H1 3492   4.673   1.771   5.133
 1183TIP3    H2 3493   4.802   1.694   5.111
 1184TIP3   OH2 3494   4.698   3.328   6.765
 1184TIP3    H1 3495   4.727   3.346   6.854
 1184TIP3    H2 3496   4.730   3.240   6.747
 1185TIP3   OH2 3497   1.095   7.615   0.961
 1185TIP3    H1 3498   1.067   7.705   0.979
 1185TIP3    H2 3499   1.018   7.571   0.927
 1186TIP3   OH2 3500   1.470   4.402   5.268
 1186TIP3    H1 3501   1.493   4.389   5.360
 1186TIP3    H2 3502   1.515   4.483   5.243
 1187TIP3   OH2 3503   6.046   3.034   0.061
 1187TIP3    H1 3504   5.968   3.018   0.007
 1187TIP3    H2 3505   6.011   3.064   0.145
 1188TIP3   OH2 3506   5.394   0.309   2.354
 1188TIP3    H1 3507   5.456   0.378   2.378
 1188TIP3    H2 3508   5.396   0.249   2.429
 1189TIP3   OH2 3509   5.591   2.399   2.743
 1189TIP3    H1 3510   5.685   2.413   2.752
 1189TIP3    H2 3511   5.553   2.438   2.821
 1190TIP3   OH2 3512   2.714   5.371   6.164
 1190TIP3    H1 3513   2.631   5.413   6.186
 1190TIP3    H2 3514   2.733   5.402   6.075
 1191TIP3   OH2 3515   0.259   5.042   4.140
 1191TIP3    H1 3516   0.324   5.027   4.208
 1191TIP3    H2 3517   0.244   5.136   4.141
 1192TIP3   OH2 3518   5.660   3.965   0.987
 1192TIP3    H1 3519   5.722   4.006   0.927
 1192TIP3    H2 3520   5.701   3.883   1.013
 1193TIP3   OH2 3521   4.297   1.347   4.422
 1193TIP3    H1 3522   4.214   1.316   4.458
 1193TIP3    H2 3523   4.349   1.267   4.411
 1194TIP3   OH2 3524   5.800   7.568   5.930
 1194TIP3    H1 3525   5.782   7.659   5.955
 1194TIP3    H2 3526   5.776   7.517   6.008
 1195TIP3   OH2 3527   1.989   2.060   3.871
 1195TIP3    H1 3528   2.079   2.088   3.853
 1195TIP3    H2 3529   1.996   2.006   3.949
 1196TIP3   OH2 3530   1.604   1.879   2.963
 1196TIP3    H1 3531   1.634   1.876   3.053
 1196TIP3    H2 3532   1.604   1.787   2.935
 1197TIP3   OH2 3533   7.825   1.615   1.486
 1197TIP3    H1 3534   7.781   1.547   1.536
 1197TIP3    H2 3535   7.909   1.627   1.531
 1198TIP3   OH2 3536   0.042   3.466   1.332
 1198TIP3    H1 3537   0.137   3.456   1.337
 1198TIP3    H2 3538   0.012   3.454   1.422
 1199TIP3   OH2 3539   0.160   1.865   6.418
 1199TIP3    H1 3540   0.250   1.889   6.400
 1199TIP3    H2 3541   0.145   1.890   6.509
 1200TIP3   OH2 3542   6.752   6.913   4.174
 1200TIP3    H1 3543   6.797   6.848   4.120
 1200TIP3    H2 3544   6.686   6.951   4.115
 1201TIP3   OH2 3545   6.827   3.366   1.466
 1201TIP3    H1 3546   6.887   3.291   1.461
 1201TIP3    H2 3547   6.837   3.398   1.555
 1202TIP3   OH2 3548   7.058   1.017   6.389
 1202TIP3    H1 3549   7.016   1.022   6.304
 1202TIP3    H2 3550   7.051   0.925   6.415
 1203TIP3   OH2 3551   6.093   7.810   5.608
 1203TIP3    H1 3552   6.084   7.826   5.514
 1203TIP3    H2 3553   6.016   7.758   5.631
 1204TIP3   OH2 3554   5.327   1.464   0.196
 1204TIP3    H1 3555   5.234   1.486   0.205
 1204TIP3    H2 3556   5.353   1.434   0.283
 1205TIP3   OH2 3557   5.523   4.916   2.747
 1205TIP3    H1 3558   5.556   5.004   2.734
 1205TIP3    H2 3559   5.570   4.862   2.684
 1206TIP3   OH2 3560   0.602   5.800   1.847
 1206TIP3    H1 3561   0.683   5.797   1.898
 1206TIP3    H2 3562   0.570   5.890   1.859
 1207TIP3   OH2 3563   4.098   5.569   5.502
 1207TIP3    H1 3564   4.066   5.635   5.564
 1207TIP3    H2 3565   4.028   5.504   5.497
 1208TIP3   OH2 3566   3.639   3.762   4.619
 1208TIP3    H1 3567   3.608   3.852   4.605
 1208TIP3    H2 3568   3.717   3.772   4.673
 1209TIP3   OH2 3569   5.461   7.035   4.355
 1209TIP3    H1 3570   5.404   7.112   4.348
 1209TIP3    H2 3571   5.509   7.033   4.272
 1210TIP3   OH2 3572   3.816   6.192   6.708
 1210TIP3    H1 3573   3.819   6.185   6.804
 1210TIP3    H2 3574   3.730   6.157   6.684
 1211TIP3   OH2 3575   4.279   5.263   3.707
 1211TIP3    H1 3576   4.339   5.189   3.700
 1211TIP3    H2 3577   4.311   5.326   3.642
 1212TIP3   OH2 3578   1.541   5.470   1.970
 1212TIP3    H1 3579   1.538   5.448   1.877
 1212TIP3    H2 3580   1.609   5.537   1.976
 1213TIP3   OH2 3581   4.610   5.383   1.528
 1213TIP3    H1 3582   4.634   5.296   1.561
 1213TIP3    H2 3583   4.685   5.438   1.553
 1214TIP3   OH2 3584   7.664   5.277   6.388
 1214TIP3    H1 3585   7.740   5.267   6.331
 1214TIP3    H2 3586   7.643   5.188   6.417
 1215TIP3   OH2 3587   0.382   2.384   1.995
 1215TIP3    H1 3588   0.464   2.337   1.983
 1215TIP3    H2 3589   0.314   2.318   1.978
 1216TIP3   OH2 3590   2.825   5.197   0.404
 1216TIP3    H1 3591   2.733   5.199   0.428
 1216TIP3    H2 3592   2.869   5.157   0.479
 1217TIP3   OH2 3593   3.532   7.482   5.117
 1217TIP3    H1 3594   3.579   7.399   5.116
 1217TIP3    H2 3595   3.529   7.509   5.025
 1218TIP3   OH2 3596   4.011   3.152   4.899
 1218TIP3    H1 3597   4.065   3.227   4.875
 1218TIP3    H2 3598   4.007   3.154   4.995
 1219TIP3   OH2 3599   3.642   2.507   4.829
 1219TIP3    H1 3600   3.576   2.453   4.873
 1219TIP3    H2 3601   3.673   2.452   4.757
 1220TIP3   OH2 3602   5.517   2.188   5.840
 1220TIP3    H1 3603   5.501   2.150   5.927
 1220TIP3    H2 3604   5.434   2.175   5.793
 1221TIP3   OH2 3605   3.199   7.617   0.457
 1221TIP3    H1 3606   3.178   7.527   0.432
 1221TIP3    H2 3607   3.253   7.649   0.385
 1222TIP3   OH2 3608   1.630   5.423   0.176
 1222TIP3    H1 3609   1.568   5.352   0.159
 1222TIP3    H2 3610   1.632   5.472   0.093
 1223TIP3   OH2 3611   6.199   5.022   4.422
 1223TIP3    H1 3612   6.264   4.970   4.375
 1223TIP3    H2 3613   6.165   4.963   4.489
 1224TIP3   OH2 3614   4.165   4.172   5.548
 1224TIP3    H1 3615   4.156   4.206   5.459
 1224TIP3    H2 3616   4.219   4.238   5.593
 1225TIP3   OH2 3617   7.502   6.594   1.957
 1225TIP3    H1 3618   7.406   6.598   1.961
 1225TIP3    H2 3619   7.529   6.585   2.048
 1226TIP3   OH2 3620   4.981   4.356   2.618
 1226TIP3    H1 3621   5.024   4.339   2.535
 1226TIP3    H2 3622   4.961   4.450   2.615
 1227TIP3   OH2 3623   7.181   7.290   2.510
 1227TIP3    H1 3624   7.267   7.263   2.543
 1227TIP3    H2 3625   7.188   7.279   2.415
 1228TIP3   OH2 3626   2.006   4.947   4.843
 1228TIP3    H1 3627   2.042   4.963   4.756
 1228TIP3    H2 3628   1.915   4.922   4.827
 1229TIP3   OH2 3629   1.690   6.669   1.557
 1229TIP3    H1 3630   1.715   6.738   1.618
 1229TIP3    H2 3631   1.771   6.648   1.510
 1230TIP3   OH2 3632   0.463   3.316   1.839
 1230TIP3    H1 3633   0.428   3.402   1.814
 1230TIP3    H2 3634   0.513   3.333   1.919
 1231TIP3   OH2 3635   4.031   5.233   2.414
 1231TIP3    H1 3636   4.089   5.176   2.464
 1231TIP3    H2 3637   4.088   5.301   2.379
 1232TIP3   OH2 3638   3.281   1.970   1.058
 1232TIP3    H1 3639   3.240   1.901   1.005
 1232TIP3    H2 3640   3.208   2.011   1.104
 1233TIP3   OH2 3641   2.316   2.275   5.679
 1233TIP3    H1 3642   2.405   2.281   5.716
 1233TIP3    H2 3643   2.318   2.332   5.602
 1234TIP3   OH2 3644   6.207   5.255   1.553
 1234TIP3    H1 3645   6.293   5.295   1.538
 1234TIP3    H2 3646   6.203   5.241   1.648
 1235TIP3   OH2 3647   7.025   0.213   4.783
 1235TIP3    H1 3648   7.046   0.167   4.702
 1235TIP3    H2 3649   7.049   0.152   4.852
 1236TIP3   OH2 3650   2.586   6.022   6.705
 1236TIP3    H1 3651   2.496   6.037   6.733
 1236TIP3    H2 3652   2.594   6.071   6.623
 1237TIP3   OH2 3653   4.793   5.905   3.852
 1237TIP3    H1 3654   4.788   5.838   3.784
 1237TIP3    H2 3655   4.702   5.922   3.875
 1238TIP3   OH2 3656   2.650   4.395   4.098
 1238TIP3    H1 3657   2.638   4.345   4.179
 1238TIP3    H2 3658   2.740   4.378   4.072
 1239TIP3   OH2 3659   0.614   1.772   2.375
 1239TIP3    H1 3660   0.524   1.782   2.346
 1239TIP3    H2 3661   0.662   1.841   2.328
 1240TIP3   OH2 3662   0.017   7.114   5.145
 1240TIP3    H1 3663   0.055   7.084   5.063
 1240TIP3    H2 3664   0.022   7.209   5.141
 1241TIP3   OH2 3665   3.958   1.391   4.280
 1241TIP3    H1 3666   3.940   1.449   4.353
 1241TIP3    H2 3667   4.049   1.410   4.256
 1242TIP3   OH2 3668   0.407   4.254   4.723
 1242TIP3    H1 3669   0.455   4.334   4.746
 1242TIP3    H2 3670   0.324   4.262   4.771
 1243TIP3   OH2 3671   2.518   0.178   2.613
 1243TIP3    H1 3672   2.532   0.242   2.683
 1243TIP3    H2 3673   2.570   0.210   2.540
 1244TIP3   OH2 3674   5.718   2.486   1.336
 1244TIP3    H1 3675   5.781   2.555   1.317
 1244TIP3    H2 3676   5.751   2.445   1.416
 1245TIP3   OH2 3677   6.600   3.785   1.356
 1245TIP3    H1 3678   6.537   3.759   1.424
 1245TIP3    H2 3679   6.670   3.720   1.363
 1246TIP3   OH2 3680   3.317   0.501   1.989
 1246TIP3    H1 3681   3.398   0.540   2.021
 1246TIP3    H2 3682   3.305   0.539   1.902
 1247TIP3   OH2 3683   7.962   4.412   3.469
 1247TIP3    H1 3684   8.030   4.372   3.414
 1247TIP3    H2 3685   7.895   4.344   3.477
 1248TIP3   OH2 3686   0.942   3.861   3.483
 1248TIP3    H1 3687   1.020   3.808   3.464
 1248TIP3    H2 3688   0.893   3.861   3.401
 1249TIP3   OH2 3689   7.777   1.734   4.284
 1249TIP3    H1 3690   7.786   1.695   4.197
 1249TIP3    H2 3691   7.756   1.660   4.341
 1250TIP3   OH2 3692   0.648   0.437   6.381
 1250TIP3    H1 3693   0.588   0.367   6.407
 1250TIP3    H2 3694   0.710   0.394   6.322
 1251TIP3   OH2 3695   5.784   0.917  -0.006
 1251TIP3    H1 3696   5.808   0.996   0.043
 1251TIP3    H2 3697   5.748   0.857   0.059
 1252TIP3   OH2 3698   1.044   7.163   4.070
 1252TIP3    H1 3699   1.101   7.213   4.128
 1252TIP3    H2 3700   1.021   7.223   3.999
 1253TIP3   OH2 3701   0.753   1.545   3.961
 1253TIP3    H1 3702   0.786   1.575   4.045
 1253TIP3    H2 3703   0.826   1.499   3.921
 1254TIP3   OH2 3704   6.509   5.684   4.170
 1254TIP3    H1 3705   6.416   5.704   4.180
 1254TIP3    H2 3706   6.548   5.707   4.255
 1255TIP3   OH2 3707   1.142   5.125   2.498
 1255TIP3    H1 3708   1.173   5.201   2.450
 1255TIP3    H2 3709   1.073   5.088   2.443
 1256TIP3   OH2 3710   7.209   6.651   6.308
 1256TIP3    H1 3711   7.204   6.577   6.369
 1256TIP3    H2 3712   7.122   6.690   6.311
 1257TIP3   OH2 3713   5.249   7.430   4.547
 1257TIP3    H1 3714   5.186   7.492   4.512
 1257TIP3    H2 3715   5.197   7.356   4.577
 1258TIP3   OH2 3716   1.846   2.728   1.194
 1258TIP3    H1 3717   1.834   2.686   1.109
 1258TIP3    H2 3718   1.757   2.734   1.230
 1259TIP3   OH2 3719   7.876   7.602   5.112
 1259TIP3    H1 3720   7.913   7.518   5.138
 1259TIP3    H2 3721   7.836   7.585   5.027
 1260TIP3   OH2 3722   1.118   7.271   4.619
 1260TIP3    H1 3723   1.192   7.211   4.623
 1260TIP3    H2 3724   1.083   7.261   4.531
 1261TIP3   OH2 3725   2.511   6.350   6.289
 1261TIP3    H1 3726   2.443   6.361   6.224
 1261TIP3    H2 3727   2.492   6.416   6.356
 1262TIP3   OH2 3728   4.023   0.389   6.147
 1262TIP3    H1 3729   4.101   0.334   6.137
 1262TIP3    H2 3730   4.058   0.475   6.171
 1263TIP3   OH2 3731   5.583   5.168   1.607
 1263TIP3    H1 3732   5.585   5.123   1.522
 1263TIP3    H2 3733   5.674   5.190   1.625
 1264TIP3   OH2 3734   7.405   5.326   4.059
 1264TIP3    H1 3735   7.479   5.382   4.080
 1264TIP3    H2 3736   7.414   5.250   4.116
 1265TIP3   OH2 3737   6.249   5.120   1.120
 1265TIP3    H1 3738   6.228   5.036   1.081
 1265TIP3    H2 3739   6.235   5.108   1.214
 1266TIP3   OH2 3740   6.096   3.049   2.957
 1266TIP3    H1 3741   6.146   2.977   2.995
 1266TIP3    H2 3742   6.150   3.127   2.973
 1267TIP3   OH2 3743   5.912   2.931   3.909
 1267TIP3    H1 3744   5.985   2.987   3.937
 1267TIP3    H2 3745   5.870   2.904   3.991
 1268TIP3   OH2 3746   1.448   6.957   0.717
 1268TIP3    H1 3747   1.354   6.975   0.714
 1268TIP3    H2 3748   1.488   7.034   0.675
 1269TIP3   OH2 3749   0.625   4.898   1.662
 1269TIP3    H1 3750   0.666   4.818   1.628
 1269TIP3    H2 3751   0.680   4.968   1.627
 1270TIP3   OH2 3752   2.934   2.992   4.222
 1270TIP3    H1 3753   2.978   3.015   4.304
 1270TIP3    H2 3754   2.989   3.030   4.154
 1271TIP3   OH2 3755   4.889   2.411   1.429
 1271TIP3    H1 3756   4.838   2.379   1.503
 1271TIP3    H2 3757   4.829   2.402   1.354
 1272TIP3   OH2 3758   4.831   1.396   4.606
 1272TIP3    H1 3759   4.778   1.321   4.579
 1272TIP3    H2 3760   4.861   1.435   4.523
 1273TIP3   OH2 3761   6.094   1.262   3.550
 1273TIP3    H1 3762   6.183   1.231   3.532
 1273TIP3    H2 3763   6.086   1.343   3.499
 1274TIP3   OH2 3764   5.654   5.526   0.701
 1274TIP3    H1 3765   5.650   5.585   0.627
 1274TIP3    H2 3766   5.736   5.547   0.745
 1275TIP3   OH2 3767   6.705   5.452   2.939
 1275TIP3    H1 3768   6.618   5.413   2.932
 1275TIP3    H2 3769   6.719   5.495   2.854
 1276TIP3   OH2 3770   1.854   2.646   4.140
 1276TIP3    H1 3771   1.930   2.625   4.085
 1276TIP3    H2 3772   1.791   2.576   4.123
 1277TIP3   OH2 3773   7.351   0.549   2.082
 1277TIP3    H1 3774   7.347   0.454   2.098
 1277TIP3    H2 3775   7.262   0.573   2.059
 1278TIP3   OH2 3776   2.027   1.234   6.237
 1278TIP3    H1 3777   2.011   1.140   6.248
 1278TIP3    H2 3778   1.975   1.275   6.306
 1279TIP3   OH2 3779   3.694   7.609   0.368
 1279TIP3    H1 3780   3.655   7.617   0.281
 1279TIP3    H2 3781   3.788   7.612   0.352
 1280TIP3   OH2 3782   7.976   5.705   0.340
 1280TIP3    H1 3783   7.897   5.666   0.300
 1280TIP3    H2 3784   8.042   5.699   0.271
 1281TIP3   OH2 3785   2.602   1.820   1.295
 1281TIP3    H1 3786   2.569   1.894   1.243
 1281TIP3    H2 3787   2.666   1.778   1.238
 1282TIP3   OH2 3788   5.892   3.830   1.467
 1282TIP3    H1 3789   5.940   3.898   1.420
 1282TIP3    H2 3790   5.814   3.874   1.501
 1283TIP3   OH2 3791   5.276   0.448   3.452
 1283TIP3    H1 3792   5.237   0.488   3.375
 1283TIP3    H2 3793   5.316   0.521   3.500
 1284TIP3   OH2 3794   3.210   4.165   1.843
 1284TIP3    H1 3795   3.203   4.136   1.934
 1284TIP3    H2 3796   3.226   4.259   1.848
 1285TIP3   OH2 3797   5.077   3.323   5.053
 1285TIP3    H1 3798   5.056   3.232   5.073
 1285TIP3    H2 3799   5.047   3.372   5.130
 1286TIP3   OH2 3800   0.615   7.385   2.231
 1286TIP3    H1 3801   0.617   7.474   2.266
 1286TIP3    H2 3802   0.554   7.339   2.289
 1287TIP3   OH2 3803   6.433   5.154   2.123
 1287TIP3    H1 3804   6.441   5.133   2.030
 1287TIP3    H2 3805   6.407   5.072   2.164
 1288TIP3   OH2 3806   5.152   7.507   6.308
 1288TIP3    H1 3807   5.161   7.602   6.313
 1288TIP3    H2 3808   5.151   7.487   6.215
 1289TIP3   OH2 3809   4.498   3.426   4.128
 1289TIP3    H1 3810   4.488   3.468   4.043
 1289TIP3    H2 3811   4.486   3.332   4.110
 1290TIP3   OH2 3812   5.694   3.124   0.046
 1290TIP3    H1 3813   5.700   3.122   0.142
 1290TIP3    H2 3814   5.657   3.039   0.023
 1291TIP3   OH2 3815   7.720   0.203   3.271
 1291TIP3    H1 3816   7.650   0.212   3.206
 1291TIP3    H2 3817   7.778   0.277   3.252
 1292TIP3   OH2 3818   0.680   7.344   5.121
 1292TIP3    H1 3819   0.736   7.392   5.060
 1292TIP3    H2 3820   0.672   7.401   5.196
 1293TIP3   OH2 3821   5.683   5.727   0.502
 1293TIP3    H1 3822   5.642   5.748   0.418
 1293TIP3    H2 3823   5.776   5.720   0.483
 1294TIP3   OH2 3824   4.706   2.279   1.245
 1294TIP3    H1 3825   4.659   2.353   1.208
 1294TIP3    H2 3826   4.689   2.207   1.184
 1295TIP3   OH2 3827   5.873   3.394   4.430
 1295TIP3    H1 3828   5.915   3.407   4.345
 1295TIP3    H2 3829   5.854   3.300   4.432
 1296TIP3   OH2 3830   2.799   6.835   3.459
 1296TIP3    H1 3831   2.836   6.903   3.403
 1296TIP3    H2 3832   2.758   6.774   3.398
 1297TIP3   OH2 3833   6.577   7.213   0.232
 1297TIP3    H1 3834   6.572   7.231   0.138
 1297TIP3    H2 3835   6.671   7.215   0.251
 1298TIP3   OH2 3836   6.333   3.572   3.748
 1298TIP3    H1 3837   6.387   3.515   3.803
 1298TIP3    H2 3838   6.251   3.524   3.737
 1299TIP3   OH2 3839   2.452   4.364   5.840
 1299TIP3    H1 3840   2.459   4.300   5.911
 1299TIP3    H2 3841   2.359   4.366   5.818
 1300TIP3   OH2 3842   7.081   0.524   6.091
 1300TIP3    H1 3843   7.023   0.595   6.064
 1300TIP3    H2 3844   7.060   0.510   6.184
 1301TIP3   OH2 3845   1.405   1.703   5.286
 1301TIP3    H1 3846   1.438   1.736   5.369
 1301TIP3    H2 3847   1.390   1.780   5.232
 1302TIP3   OH2 3848   6.917   7.510   3.885
 1302TIP3    H1 3849   6.875   7.569   3.824
 1302TIP3    H2 3850   6.886   7.538   3.971
 1303TIP3   OH2 3851   6.491   3.332   2.140
 1303TIP3    H1 3852   6.515   3.252   2.093
 1303TIP3    H2 3853   6.396   3.330   2.143
 1304TIP3   OH2 3854   2.897   2.587   3.413
 1304TIP3    H1 3855   2.829   2.571   3.347
 1304TIP3    H2 3856   2.886   2.515   3.475
 1305TIP3   OH2 3857   7.937   7.035   6.590
 1305TIP3    H1 3858   7.864   6.973   6.594
 1305TIP3    H2 3859   7.984   7.023   6.672
 1306TIP3   OH2 3860   5.576   2.582   1.120
 1306TIP3    H1 3861   5.508   2.522   1.089
 1306TIP3    H2 3862   5.620   2.533   1.190
 1307TIP3   OH2 3863   4.442   3.942   2.686
 1307TIP3    H1 3864   4.417   3.862   2.641
 1307TIP3    H2 3865   4.363   3.967   2.735
 1308TIP3   OH2 3866   7.113   3.329   1.179
 1308TIP3    H1 3867   7.178   3.294   1.240
 1308TIP3    H2 3868   7.151   3.316   1.092
 1309TIP3   OH2 3869   2.075   2.187   4.254
 1309TIP3    H1 3870   2.038   2.235   4.180
 1309TIP3    H2 3871   2.148   2.137   4.217
 1310TIP3   OH2 3872   4.142   7.269   1.442
 1310TIP3    H1 3873   4.152   7.363   1.427
 1310TIP3    H2 3874   4.122   7.262   1.535
 1311TIP3   OH2 3875   0.917   2.554   0.571
 1311TIP3    H1 3876   0.988   2.490   0.583
 1311TIP3    H2 3877   0.950   2.634   0.611
 1312TIP3   OH2 3878   2.950   5.704   2.195
 1312TIP3    H1 3879   2.996   5.775   2.149
 1312TIP3    H2 3880   2.955   5.630   2.135
 1313TIP3   OH2 3881   7.731   2.295   1.658
 1313TIP3    H1 3882   7.753   2.286   1.751
 1313TIP3    H2 3883   7.651   2.243   1.647
 1314TIP3   OH2 3884   7.952   4.375   3.887
 1314TIP3    H1 3885   7.994   4.445   3.838
 1314TIP3    H2 3886   7.939   4.411   3.975
 1315TIP3   OH2 3887   6.618   5.618   5.401
 1315TIP3    H1 3888   6.705   5.580   5.409
 1315TIP3    H2 3889   6.622   5.671   5.322
 1316TIP3   OH2 3890   7.236   5.821   1.844
 1316TIP3    H1 3891   7.324   5.785   1.841
 1316TIP3    H2 3892   7.187   5.761   1.899
 1317TIP3   OH2 3893   2.080   1.036   2.916
 1317TIP3    H1 3894   2.074   1.112   2.974
 1317TIP3    H2 3895   2.172   1.032   2.891
 1318TIP3   OH2 3896   8.262   2.053   5.462
 1318TIP3    H1 3897   8.250   1.965   5.499
 1318TIP3    H2 3898   8.174   2.084   5.444
 1319TIP3   OH2 3899   2.117   7.199   4.811
 1319TIP3    H1 3900   2.052   7.231   4.874
 1319TIP3    H2 3901   2.194   7.180   4.865
 1320TIP3   OH2 3902   2.683   2.746   1.212
 1320TIP3    H1 3903   2.632   2.823   1.237
 1320TIP3    H2 3904   2.771   2.779   1.196
 1321TIP3   OH2 3905   2.927   5.480   4.483
 1321TIP3    H1 3906   2.976   5.404   4.516
 1321TIP3    H2 3907   2.909   5.459   4.392
 1322TIP3   OH2 3908   1.565   2.144   5.380
 1322TIP3    H1 3909   1.628   2.215   5.369
 1322TIP3    H2 3910   1.521   2.138   5.295
 1323TIP3   OH2 3911   2.523   4.841   2.348
 1323TIP3    H1 3912   2.464   4.798   2.287
 1323TIP3    H2 3913   2.518   4.934   2.323
 1324TIP3   OH2 3914   2.475   5.920   1.833
 1324TIP3    H1 3915   2.417   5.846   1.813
 1324TIP3    H2 3916   2.452   5.945   1.922
 1325TIP3   OH2 3917   4.544   6.186   6.409
 1325TIP3    H1 3918   4.492   6.196   6.330
 1325TIP3    H2 3919   4.616   6.128   6.384
 1326TIP3   OH2 3920   3.369   7.458   3.408
 1326TIP3    H1 3921   3.428   7.503   3.469
 1326TIP3    H2 3922   3.379   7.506   3.326
 1327TIP3   OH2 3923   2.012   5.554   3.679
 1327TIP3    H1 3924   1.998   5.499   3.602
 1327TIP3    H2 3925   2.105   5.544   3.699
 1328TIP3   OH2 3926   2.109   3.085   0.490
 1328TIP3    H1 3927   2.131   3.178   0.495
 1328TIP3    H2 3928   2.020   3.079   0.525
 1329TIP3   OH2 3929   2.780   3.963   0.991
 1329TIP3    H1 3930   2.869   3.939   0.967
 1329TIP3    H2 3931   2.783   3.975   1.086
 1330TIP3   OH2 3932   5.824   5.413   5.767
 1330TIP3    H1 3933   5.852   5.372   5.685
 1330TIP3    H2 3934   5.740   5.454   5.745
 1331TIP3   OH2 3935   0.987   5.724   2.365
 1331TIP3    H1 3936   0.916   5.770   2.321
 1331TIP3    H2 3937   0.943   5.665   2.426
 1332TIP3   OH2 3938   3.279   7.296   6.155
 1332TIP3    H1 3939   3.308   7.387   6.142
 1332TIP3    H2 3940   3.289   7.281   6.249
 1333TIP3   OH2 3941   6.611   7.295   1.470
 1333TIP3    H1 3942   6.643   7.261   1.387
 1333TIP3    H2 3943   6.540   7.237   1.495
 1334TIP3   OH2 3944   1.853   2.964   1.399
 1334TIP3    H1 3945   1.917   2.910   1.352
 1334TIP3    H2 3946   1.901   3.045   1.419
 1335TIP3   OH2 3947   5.625   2.403   6.694
 1335TIP3    H1 3948   5.644   2.360   6.777
 1335TIP3    H2 3949   5.539   2.369   6.668
 1336TIP3   OH2 3950   2.940   2.462   4.179
 1336TIP3    H1 3951   2.855   2.435   4.144
 1336TIP3    H2 3952   2.935   2.558   4.179
 1337TIP3   OH2 3953   2.512   1.969   5.218
 1337TIP3    H1 3954   2.451   2.039   5.244
 1337TIP3    H2 3955   2.552   1.940   5.300
 1338TIP3   OH2 3956   4.174   2.256   6.530
 1338TIP3    H1 3957   4.122   2.180   6.558
 1338TIP3    H2 3958   4.120   2.297   6.462
 1339TIP3   OH2 3959   3.531   2.305   4.469
 1339TIP3    H1 3960   3.542   2.224   4.419
 1339TIP3    H2 3961   3.566   2.284   4.556
 1340TIP3   OH2 3962   3.707   4.614   3.178
 1340TIP3    H1 3963   3.623   4.601   3.222
 1340TIP3    H2 3964   3.699   4.566   3.096
 1341TIP3   OH2 3965   5.139   6.318   0.909
 1341TIP3    H1 3966   5.058   6.370   0.911
 1341TIP3    H2 3967   5.108   6.228   0.910
 1342TIP3   OH2 3968   5.159   7.058   2.994
 1342TIP3    H1 3969   5.224   7.031   3.059
 1342TIP3    H2 3970   5.183   7.009   2.914
 1343TIP3   OH2 3971   1.236   7.877   2.741
 1343TIP3    H1 3972   1.296   7.805   2.761
 1343TIP3    H2 3973   1.155   7.855   2.787
 1344TIP3   OH2 3974   1.169   5.941   2.281
 1344TIP3    H1 3975   1.229   5.910   2.213
 1344TIP3    H2 3976   1.107   5.869   2.293
 1345TIP3   OH2 3977   1.123   5.651   5.757
 1345TIP3    H1 3978   1.197   5.635   5.816
 1345TIP3    H2 3979   1.157   5.632   5.670
 1346TIP3   OH2 3980   0.268   2.088   6.163
 1346TIP3    H1 3981   0.198   2.034   6.200
 1346TIP3    H2 3982   0.306   2.133   6.239
 1347TIP3   OH2 3983   7.695   6.723   0.957
 1347TIP3    H1 3984   7.668   6.806   0.996
 1347TIP3    H2 3985   7.653   6.722   0.871
 1348TIP3   OH2 3986   4.180   0.622   6.212
 1348TIP3    H1 3987   4.138   0.675   6.146
 1348TIP3    H2 3988   4.127   0.634   6.291
 1349TIP3   OH2 3989   1.152   4.120   3.411
 1349TIP3    H1 3990   1.176   4.119   3.504
 1349TIP3    H2 3991   1.061   4.149   3.410
 1350TIP3   OH2 3992   6.662   4.859   0.756
 1350TIP3    H1 3993   6.754   4.852   0.781
 1350TIP3    H2 3994   6.617   4.797   0.813
 1351TIP3   OH2 3995   4.194   3.248   4.185
 1351TIP3    H1 3996   4.144   3.185   4.237
 1351TIP3    H2 3997   4.200   3.326   4.241
 1352TIP3   OH2 3998   3.399   3.019   2.358
 1352TIP3    H1 3999   3.452   3.068   2.421
 1352TIP3    H2 4000   3.452   2.942   2.337
 1353TIP3   OH2 4001   0.157   2.965   0.608
 1353TIP3    H1 4002   0.179   3.041   0.661
 1353TIP3    H2 4003   0.217   2.969   0.534
 1354TIP3   OH2 4004   4.675   5.017   1.360
 1354TIP3    H1 4005   4.614   5.038   1.430
 1354TIP3    H2 4006   4.755   4.990   1.405
 1355TIP3   OH2 4007   0.088   7.419   5.782
 1355TIP3    H1 4008   0.034   7.496   5.762
 1355TIP3    H2 4009   0.045   7.379   5.858
 1356TIP3   OH2 4010   1.061   0.425   0.411
 1356TIP3    H1 4011   0.988   0.456   0.356
 1356TIP3    H2 4012   1.080   0.337   0.378
 1357TIP3   OH2 4013   0.561   4.506   4.799
 1357TIP3    H1 4014   0.512   4.501   4.881
 1357TIP3    H2 4015   0.539   4.592   4.763
 1358TIP3   OH2 4016   0.957   1.925   4.423
 1358TIP3    H1 4017   0.889   1.968   4.475
 1358TIP3    H2 4018   0.913   1.899   4.342
 1359TIP3   OH2 4019   4.585   0.449   0.139
 1359TIP3    H1 4020   4.555   0.442   0.230
 1359TIP3    H2 4021   4.532   0.519   0.102
 1360TIP3   OH2 4022   5.550   1.263   0.231
 1360TIP3    H1 4023   5.528   1.213   0.309
 1360TIP3    H2 4024   5.619   1.324   0.259
 1361TIP3   OH2 4025   2.056   1.566   2.215
 1361TIP3    H1 4026   2.100   1.508   2.277
 1361TIP3    H2 4027   2.044   1.512   2.137
 1362TIP3   OH2 4028   4.893   0.654   1.889
 1362TIP3    H1 4029   4.962   0.665   1.954
 1362TIP3    H2 4030   4.831   0.724   1.907
 1363TIP3   OH2 4031   2.617   1.207   0.499
 1363TIP3    H1 4032   2.674   1.280   0.474
 1363TIP3    H2 4033   2.596   1.164   0.417
 1364TIP3   OH2 4034   5.462   7.597   6.122
 1364TIP3    H1 4035   5.481   7.647   6.202
 1364TIP3    H2 4036   5.545   7.555   6.100
 1365TIP3   OH2 4037   5.216   2.335   2.907
 1365TIP3    H1 4038   5.279   2.263   2.915
 1365TIP3    H2 4039   5.220   2.360   2.815
 1366TIP3   OH2 4040   8.075   2.680   3.687
 1366TIP3    H1 4041   8.092   2.602   3.634
 1366TIP3    H2 4042   8.139   2.674   3.759
 1367TIP3   OH2 4043   6.374   6.021   5.384
 1367TIP3    H1 4044   6.463   6.045   5.356
 1367TIP3    H2 4045   6.363   5.931   5.354
 1368TIP3   OH2 4046   7.642   7.675   1.116
 1368TIP3    H1 4047   7.673   7.592   1.080
 1368TIP3    H2 4048   7.686   7.742   1.063
 1369TIP3   OH2 4049   8.042   1.686   2.294
 1369TIP3    H1 4050   7.951   1.697   2.324
 1369TIP3    H2 4051   8.077   1.775   2.294
 1370TIP3   OH2 4052   3.674   3.493   2.394
 1370TIP3    H1 4053   3.580   3.478   2.380
 1370TIP3    H2 4054   3.679   3.586   2.418
 1371TIP3   OH2 4055   0.188   2.148   1.909
 1371TIP3    H1 4056   0.254   2.081   1.891
 1371TIP3    H2 4057   0.114   2.126   1.852
 1372TIP3   OH2 4058   0.679   5.305   3.495
 1372TIP3    H1 4059   0.602   5.251   3.478
 1372TIP3    H2 4060   0.677   5.372   3.427
 1373TIP3   OH2 4061   2.035   6.220   1.663
 1373TIP3    H1 4062   2.110   6.245   1.717
 1373TIP3    H2 4063   1.963   6.211   1.726
 1374TIP3   OH2 4064   0.397   0.138   1.854
 1374TIP3    H1 4065   0.406   0.215   1.910
 1374TIP3    H2 4066   0.303   0.121   1.852
 1375TIP3   OH2 4067   2.312   4.478   2.149
 1375TIP3    H1 4068   2.403   4.497   2.127
 1375TIP3    H2 4069   2.300   4.515   2.237
 1376TIP3   OH2 4070   3.210   7.289   5.118
 1376TIP3    H1 4071   3.131   7.303   5.067
 1376TIP3    H2 4072   3.228   7.373   5.160
 1377TIP3   OH2 4073   7.460   1.728   0.097
 1377TIP3    H1 4074   7.369   1.712   0.121
 1377TIP3    H2 4075   7.456   1.763   0.008
 1378TIP3   OH2 4076   3.407   7.860   5.056
 1378TIP3    H1 4077   3.434   7.803   5.128
 1378TIP3    H2 4078   3.454   7.942   5.073
 1379TIP3   OH2 4079   7.761   4.005   0.650
 1379TIP3    H1 4080   7.781   3.985   0.741
 1379TIP3    H2 4081   7.845   3.996   0.604
 1380TIP3   OH2 4082   8.001   4.737   5.024
 1380TIP3    H1 4083   7.944   4.661   5.038
 1380TIP3    H2 4084   8.044   4.719   4.940
 1381TIP3   OH2 4085   8.321   6.877   6.395
 1381TIP3    H1 4086   8.233   6.911   6.381
 1381TIP3    H2 4087   8.341   6.826   6.317
 1382TIP3   OH2 4088   5.263   3.718   4.129
 1382TIP3    H1 4089   5.316   3.756   4.059
 1382TIP3    H2 4090   5.299   3.756   4.209
 1383TIP3   OH2 4091   7.122   4.365   5.759
 1383TIP3    H1 4092   7.134   4.400   5.847
 1383TIP3    H2 4093   7.143   4.272   5.767
 1384TIP3   OH2 4094   5.256   0.648   0.498
 1384TIP3    H1 4095   5.300   0.580   0.449
 1384TIP3    H2 4096   5.237   0.608   0.583
 1385TIP3   OH2 4097   6.372   0.331   5.067
 1385TIP3    H1 4098   6.286   0.363   5.039
 1385TIP3    H2 4099   6.414   0.302   4.986
 1386TIP3   OH2 4100   3.053   4.113   0.428
 1386TIP3    H1 4101   3.011   4.096   0.512
 1386TIP3    H2 4102   3.010   4.192   0.395
 1387TIP3   OH2 4103   6.766   4.051   6.317
 1387TIP3    H1 4104   6.733   4.020   6.401
 1387TIP3    H2 4105   6.861   4.059   6.330
 1388TIP3   OH2 4106   2.282   1.854   4.224
 1388TIP3    H1 4107   2.288   1.760   4.241
 1388TIP3    H2 4108   2.192   1.877   4.250
 1389TIP3   OH2 4109   5.148   3.087   4.047
 1389TIP3    H1 4110   5.110   3.175   4.055
 1389TIP3    H2 4111   5.149   3.053   4.137
 1390TIP3   OH2 4112   4.981   1.208   1.792
 1390TIP3    H1 4113   5.030   1.126   1.787
 1390TIP3    H2 4114   5.015   1.251   1.870
 1391TIP3   OH2 4115   1.438   6.650   5.834
 1391TIP3    H1 4116   1.349   6.632   5.803
 1391TIP3    H2 4117   1.494   6.602   5.774
 1392TIP3   OH2 4118   2.931   1.353   1.936
 1392TIP3    H1 4119   3.018   1.329   1.903
 1392TIP3    H2 4120   2.910   1.284   1.999
 1393TIP3   OH2 4121   3.841   2.129   4.357
 1393TIP3    H1 4122   3.776   2.196   4.379
 1393TIP3    H2 4123   3.833   2.118   4.262
 1394TIP3   OH2 4124   1.094   2.873   6.681
 1394TIP3    H1 4125   1.006   2.877   6.717
 1394TIP3    H2 4126   1.120   2.781   6.691
 1395TIP3   OH2 4127   4.488   4.354   2.595
 1395TIP3    H1 4128   4.395   4.368   2.614
 1395TIP3    H2 4129   4.534   4.405   2.662
 1396TIP3   OH2 4130   3.617   5.324   3.921
 1396TIP3    H1 4131   3.582   5.247   3.874
 1396TIP3    H2 4132   3.709   5.329   3.894
 1397TIP3   OH2 4133   2.582   3.303   1.901
 1397TIP3    H1 4134   2.636   3.297   1.822
 1397TIP3    H2 4135   2.631   3.362   1.959
 1398TIP3   OH2 4136   2.828   2.167   4.278
 1398TIP3    H1 4137   2.797   2.197   4.364
 1398TIP3    H2 4138   2.803   2.237   4.218
 1399TIP3   OH2 4139   3.773   1.665   5.538
 1399TIP3    H1 4140   3.811   1.753   5.545
 1399TIP3    H2 4141   3.684   1.680   5.506
 1400TIP3   OH2 4142   0.109   4.108   4.564
 1400TIP3    H1 4143   0.195   4.069   4.551
 1400TIP3    H2 4144   0.119   4.199   4.536
 1401TIP3   OH2 4145   0.556   6.915   2.451
 1401TIP3    H1 4146   0.585   6.832   2.489
 1401TIP3    H2 4147   0.636   6.957   2.421
 1402TIP3   OH2 4148   7.062   5.128   2.236
 1402TIP3    H1 4149   7.131   5.167   2.290
 1402TIP3    H2 4150   7.086   5.035   2.230
 1403TIP3   OH2 4151   5.698   5.311   6.440
 1403TIP3    H1 4152   5.723   5.399   6.412
 1403TIP3    H2 4153   5.624   5.324   6.499
 1404TIP3   OH2 4154   0.558   6.811   3.891
 1404TIP3    H1 4155   0.624   6.767   3.837
 1404TIP3    H2 4156   0.561   6.902   3.863
 1405TIP3   OH2 4157   3.293   6.556   1.268
 1405TIP3    H1 4158   3.340   6.492   1.321
 1405TIP3    H2 4159   3.296   6.522   1.179
 1406TIP3   OH2 4160   3.192   3.612   5.839
 1406TIP3    H1 4161   3.125   3.652   5.894
 1406TIP3    H2 4162   3.179   3.518   5.851
 1407TIP3   OH2 4163   1.181   5.274   0.128
 1407TIP3    H1 4164   1.126   5.351   0.138
 1407TIP3    H2 4165   1.180   5.231   0.213
 1408TIP3   OH2 4166   8.297   7.346   6.036
 1408TIP3    H1 4167   8.377   7.391   6.062
 1408TIP3    H2 4168   8.269   7.299   6.115
 1409TIP3   OH2 4169   7.806   4.320   0.549
 1409TIP3    H1 4170   7.898   4.295   0.554
 1409TIP3    H2 4171   7.768   4.289   0.631
 1410TIP3   OH2 4172   7.128   2.711   5.666
 1410TIP3    H1 4173   7.101   2.766   5.593
 1410TIP3    H2 4174   7.209   2.751   5.698
 1411TIP3   OH2 4175   7.575   6.869   1.633
 1411TIP3    H1 4176   7.623   6.847   1.713
 1411TIP3    H2 4177   7.640   6.910   1.576
 1412TIP3   OH2 4178   7.375   0.395   0.482
 1412TIP3    H1 4179   7.345   0.418   0.394
 1412TIP3    H2 4180   7.445   0.458   0.501
 1413TIP3   OH2 4181   0.315   3.798   3.891
 1413TIP3    H1 4182   0.229   3.801   3.934
 1413TIP3    H2 4183   0.377   3.820   3.960
 1414TIP3   OH2 4184   1.221   4.188   2.737
 1414TIP3    H1 4185   1.231   4.103   2.695
 1414TIP3    H2 4186   1.130   4.189   2.768
 1415TIP3   OH2 4187   4.359   3.541   4.685
 1415TIP3    H1 4188   4.437   3.572   4.731
 1415TIP3    H2 4189   4.393   3.500   4.606
 1416TIP3   OH2 4190   7.348   3.118   4.621
 1416TIP3    H1 4191   7.428   3.113   4.568
 1416TIP3    H2 4192   7.374   3.167   4.699
 1417TIP3   OH2 4193   2.702   6.744   5.855
 1417TIP3    H1 4194   2.673   6.705   5.938
 1417TIP3    H2 4195   2.692   6.673   5.791
 1418TIP3   OH2 4196   2.662   7.632   1.315
 1418TIP3    H1 4197   2.630   7.689   1.385
 1418TIP3    H2 4198   2.585   7.579   1.291
 1419TIP3   OH2 4199   6.854   3.379   1.142
 1419TIP3    H1 4200   6.857   3.428   1.060
 1419TIP3    H2 4201   6.945   3.354   1.159
 1420TIP3   OH2 4202   7.271   5.754   2.858
 1420TIP3    H1 4203   7.221   5.680   2.823
 1420TIP3    H2 4204   7.301   5.802   2.781
 1421TIP3   OH2 4205   4.663   5.221   6.426
 1421TIP3    H1 4206   4.627   5.170   6.353
 1421TIP3    H2 4207   4.706   5.155   6.481
 1422TIP3   OH2 4208   8.108   5.722   0.812
 1422TIP3    H1 4209   8.068   5.697   0.729
 1422TIP3    H2 4210   8.199   5.693   0.804
 1423TIP3   OH2 4211   4.390   6.595   0.266
 1423TIP3    H1 4212   4.320   6.564   0.209
 1423TIP3    H2 4213   4.375   6.689   0.273
 1424TIP3   OH2 4214   6.958   2.516   6.692
 1424TIP3    H1 4215   6.955   2.601   6.736
 1424TIP3    H2 4216   6.907   2.458   6.748
 1425TIP3   OH2 4217   2.990   2.586   0.412
 1425TIP3    H1 4218   2.995   2.496   0.379
 1425TIP3    H2 4219   2.966   2.576   0.505
 1426TIP3   OH2 4220   7.029   1.051   3.985
 1426TIP3    H1 4221   6.939   1.076   4.008
 1426TIP3    H2 4222   7.029   1.050   3.889
 1427TIP3   OH2 4223   6.973   4.063   1.243
 1427TIP3    H1 4224   6.971   3.970   1.268
 1427TIP3    H2 4225   6.986   4.109   1.326
 1428TIP3   OH2 4226   7.581   6.607   3.064
 1428TIP3    H1 4227   7.519   6.576   2.999
 1428TIP3    H2 4228   7.541   6.686   3.100
 1429TIP3   OH2 4229   0.061   2.324   4.268
 1429TIP3    H1 4230   0.016   2.248   4.232
 1429TIP3    H2 4231   0.021   2.337   4.354
 1430TIP3   OH2 4232   1.394   6.704   0.009
 1430TIP3    H1 4233   1.415   6.752   0.089
 1430TIP3    H2 4234   1.357   6.770  -0.049
 1431TIP3   OH2 4235   2.435   1.520   2.496
 1431TIP3    H1 4236   2.426   1.549   2.406
 1431TIP3    H2 4237   2.521   1.554   2.523
 1432TIP3   OH2 4238   0.322   7.764   5.796
 1432TIP3    H1 4239   0.280   7.847   5.771
 1432TIP3    H2 4240   0.306   7.706   5.722
 1433TIP3   OH2 4241   3.192   1.304   1.800
 1433TIP3    H1 4242   3.238   1.292   1.717
 1433TIP3    H2 4243   3.258   1.340   1.859
 1434TIP3   OH2 4244   4.317   0.343   2.975
 1434TIP3    H1 4245   4.309   0.435   2.952
 1434TIP3    H2 4246   4.232   0.305   2.956
 1435TIP3   OH2 4247   4.744   3.885   2.520
 1435TIP3    H1 4248   4.657   3.914   2.549
 1435TIP3    H2 4249   4.788   3.965   2.493
 1436TIP3   OH2 4250   1.191   0.657   2.236
 1436TIP3    H1 4251   1.277   0.662   2.279
 1436TIP3    H2 4252   1.129   0.682   2.304
 1437TIP3   OH2 4253   1.629   1.164   0.265
 1437TIP3    H1 4254   1.661   1.247   0.299
 1437TIP3    H2 4255   1.614   1.180   0.172
 1438TIP3   OH2 4256   0.293   5.727   4.838
 1438TIP3    H1 4257   0.265   5.638   4.817
 1438TIP3    H2 4258   0.349   5.752   4.764
 1439TIP3   OH2 4259   7.434   3.334   1.153
 1439TIP3    H1 4260   7.417   3.405   1.090
 1439TIP3    H2 4261   7.463   3.261   1.098
 1440TIP3   OH2 4262   7.277   4.622   1.076
 1440TIP3    H1 4263   7.207   4.686   1.070
 1440TIP3    H2 4264   7.233   4.537   1.071
 1441TIP3   OH2 4265   0.124   3.896   6.507
 1441TIP3    H1 4266   0.113   3.807   6.473
 1441TIP3    H2 4267   0.116   3.886   6.602
 1442TIP3   OH2 4268   6.065   3.488   1.773
 1442TIP3    H1 4269   6.043   3.457   1.685
 1442TIP3    H2 4270   6.117   3.417   1.811
 1443TIP3   OH2 4271   4.549   1.783   1.044
 1443TIP3    H1 4272   4.465   1.764   1.086
 1443TIP3    H2 4273   4.552   1.724   0.969
 1444TIP3   OH2 4274   6.122   0.596   2.593
 1444TIP3    H1 4275   6.162   0.671   2.639
 1444TIP3    H2 4276   6.084   0.543   2.663
 1445TIP3   OH2 4277   6.789   6.039   3.504
 1445TIP3    H1 4278   6.784   6.041   3.599
 1445TIP3    H2 4279   6.882   6.054   3.484
 1446TIP3   OH2 4280   6.925   4.274   0.818
 1446TIP3    H1 4281   6.874   4.219   0.879
 1446TIP3    H2 4282   6.902   4.363   0.843
 1447TIP3   OH2 4283   4.280   7.678   5.401
 1447TIP3    H1 4284   4.316   7.766   5.414
 1447TIP3    H2 4285   4.218   7.666   5.473
 1448TIP3   OH2 4286   6.285   7.605   0.002
 1448TIP3    H1 4287   6.272   7.521   0.046
 1448TIP3    H2 4288   6.197   7.632  -0.025
 1449TIP3   OH2 4289   2.882   4.561   2.633
 1449TIP3    H1 4290   2.846   4.636   2.585
 1449TIP3    H2 4291   2.914   4.502   2.565
 1450TIP3   OH2 4292   2.116   5.621   1.411
 1450TIP3    H1 4293   2.092   5.528   1.409
 1450TIP3    H2 4294   2.104   5.646   1.503
 1451TIP3   OH2 4295   1.617   2.974   5.158
 1451TIP3    H1 4296   1.689   3.022   5.200
 1451TIP3    H2 4297   1.656   2.938   5.078
 1452TIP3   OH2 4298   7.034   1.037   5.614
 1452TIP3    H1 4299   7.016   0.944   5.630
 1452TIP3    H2 4300   7.050   1.042   5.520
 1453TIP3   OH2 4301   7.785   0.479   6.278
 1453TIP3    H1 4302   7.809   0.570   6.259
 1453TIP3    H2 4303   7.690   0.482   6.290
 1454TIP3   OH2 4304   8.265   6.105   0.387
 1454TIP3    H1 4305   8.298   6.023   0.351
 1454TIP3    H2 4306   8.262   6.091   0.481
 1455TIP3   OH2 4307   3.843   0.739   1.174
 1455TIP3    H1 4308   3.752   0.736   1.146
 1455TIP3    H2 4309   3.867   0.831   1.169
 1456TIP3   OH2 4310   2.153   4.023   1.878
 1456TIP3    H1 4311   2.182   4.100   1.926
 1456TIP3    H2 4312   2.198   3.950   1.921
 1457TIP3   OH2 4313   0.309   3.555   4.798
 1457TIP3    H1 4314   0.324   3.581   4.707
 1457TIP3    H2 4315   0.341   3.628   4.849
 1458TIP3   OH2 4316   1.412   1.706   1.185
 1458TIP3    H1 4317   1.401   1.763   1.109
 1458TIP3    H2 4318   1.470   1.636   1.155
 1459TIP3   OH2 4319   6.216   7.701   1.287
 1459TIP3    H1 4320   6.239   7.611   1.308
 1459TIP3    H2 4321   6.247   7.753   1.361
 1460TIP3   OH2 4322   1.796   5.293   3.142
 1460TIP3    H1 4323   1.878   5.335   3.167
 1460TIP3    H2 4324   1.791   5.303   3.047
 1461TIP3   OH2 4325   4.970   4.078   1.161
 1461TIP3    H1 4326   4.954   4.031   1.243
 1461TIP3    H2 4327   5.065   4.085   1.155
 1462TIP3   OH2 4328   4.553   5.798   2.868
 1462TIP3    H1 4329   4.575   5.705   2.876
 1462TIP3    H2 4330   4.508   5.819   2.950
 1463TIP3   OH2 4331   1.733   1.347   3.728
 1463TIP3    H1 4332   1.765   1.265   3.766
 1463TIP3    H2 4333   1.813   1.392   3.699
 1464TIP3   OH2 4334   7.601   6.381   3.957
 1464TIP3    H1 4335   7.683   6.332   3.947
 1464TIP3    H2 4336   7.584   6.417   3.870
 1465TIP3   OH2 4337   7.586   2.445   3.545
 1465TIP3    H1 4338   7.647   2.443   3.472
 1465TIP3    H2 4339   7.640   2.468   3.621
 1466TIP3   OH2 4340   8.231   3.562   5.816
 1466TIP3    H1 4341   8.196   3.575   5.728
 1466TIP3    H2 4342   8.300   3.628   5.824
 1467TIP3   OH2 4343   6.112   6.828   2.582
 1467TIP3    H1 4344   6.115   6.821   2.487
 1467TIP3    H2 4345   6.172   6.899   2.603
 1468TIP3   OH2 4346   7.031   5.013   6.014
 1468TIP3    H1 4347   7.062   5.058   6.093
 1468TIP3    H2 4348   7.006   5.083   5.955
 1469TIP3   OH2 4349   1.794   7.488   5.499
 1469TIP3    H1 4350   1.767   7.400   5.475
 1469TIP3    H2 4351   1.884   7.495   5.469
 1470TIP3   OH2 4352   6.082   3.509   3.433
 1470TIP3    H1 4353   6.086   3.492   3.527
 1470TIP3    H2 4354   6.156   3.459   3.397
 1471TIP3   OH2 4355   6.018   7.409   0.222
 1471TIP3    H1 4356   6.082   7.370   0.163
 1471TIP3    H2 4357   5.935   7.369   0.197
 1472TIP3   OH2 4358   4.629   2.367   0.071
 1472TIP3    H1 4359   4.594   2.431   0.010
 1472TIP3    H2 4360   4.556   2.345   0.128
 1473TIP3   OH2 4361   3.890   7.185   1.340
 1473TIP3    H1 4362   3.839   7.263   1.363
 1473TIP3    H2 4363   3.980   7.206   1.364
 1474TIP3   OH2 4364   6.817   6.479   6.543
 1474TIP3    H1 4365   6.837   6.564   6.583
 1474TIP3    H2 4366   6.796   6.422   6.617
 1475TIP3   OH2 4367   3.486   5.736   1.766
 1475TIP3    H1 4368   3.543   5.661   1.749
 1475TIP3    H2 4369   3.524   5.807   1.715
 1476TIP3   OH2 4370   3.888   0.303   5.438
 1476TIP3    H1 4371   3.809   0.277   5.486
 1476TIP3    H2 4372   3.856   0.328   5.351
 1477TIP3   OH2 4373   3.274   7.445   4.871
 1477TIP3    H1 4374   3.291   7.395   4.950
 1477TIP3    H2 4375   3.360   7.469   4.837
 1478TIP3   OH2 4376   4.552   0.164   0.629
 1478TIP3    H1 4377   4.591   0.116   0.701
 1478TIP3    H2 4378   4.518   0.244   0.668
 1479TIP3   OH2 4379   5.301   5.422   0.046
 1479TIP3    H1 4380   5.305   5.438   0.140
 1479TIP3    H2 4381   5.359   5.488   0.008
 1480TIP3   OH2 4382   5.635   4.992   2.407
 1480TIP3    H1 4383   5.722   5.017   2.375
 1480TIP3    H2 4384   5.581   5.070   2.392
 1481TIP3   OH2 4385   4.899   3.567   5.575
 1481TIP3    H1 4386   4.957   3.614   5.635
 1481TIP3    H2 4387   4.811   3.596   5.598
 1482TIP3   OH2 4388   1.772   0.790   4.673
 1482TIP3    H1 4389   1.688   0.830   4.697
 1482TIP3    H2 4390   1.766   0.700   4.705
 1483TIP3   OH2 4391   3.385   4.620   1.401
 1483TIP3    H1 4392   3.409   4.555   1.467
 1483TIP3    H2 4393   3.318   4.674   1.444
 1484TIP3   OH2 4394   0.680   2.235   1.376
 1484TIP3    H1 4395   0.660   2.260   1.466
 1484TIP3    H2 4396   0.720   2.313   1.338
 1485TIP3   OH2 4397   4.966   4.806   1.279
 1485TIP3    H1 4398   5.055   4.841   1.275
 1485TIP3    H2 4399   4.929   4.841   1.360
 1486TIP3   OH2 4400   0.311   2.174   5.011
 1486TIP3    H1 4401   0.327   2.165   5.105
 1486TIP3    H2 4402   0.306   2.268   4.996
 1487TIP3   OH2 4403   4.954   5.367   1.219
 1487TIP3    H1 4404   4.983   5.418   1.143
 1487TIP3    H2 4405   4.931   5.281   1.183
 1488TIP3   OH2 4406   4.896   6.603   3.813
 1488TIP3    H1 4407   4.962   6.574   3.876
 1488TIP3    H2 4408   4.907   6.698   3.808
 1489TIP3   OH2 4409   3.589   0.977   4.490
 1489TIP3    H1 4410   3.678   0.952   4.514
 1489TIP3    H2 4411   3.558   1.030   4.564
 1490TIP3   OH2 4412   3.302   1.071   0.391
 1490TIP3    H1 4413   3.392   1.069   0.359
 1490TIP3    H2 4414   3.289   1.162   0.420
 1491TIP3   OH2 4415   2.013   2.890   1.910
 1491TIP3    H1 4416   2.008   2.926   1.822
 1491TIP3    H2 4417   2.035   2.797   1.897
 1492TIP3   OH2 4418   7.375   4.297   3.500
 1492TIP3    H1 4419   7.412   4.237   3.435
 1492TIP3    H2 4420   7.438   4.295   3.572
 1493TIP3   OH2 4421   6.035   3.935   2.265
 1493TIP3    H1 4422   6.000   4.019   2.294
 1493TIP3    H2 4423   6.024   3.936   2.170
 1494TIP3   OH2 4424   2.776   4.010   5.209
 1494TIP3    H1 4425   2.869   3.990   5.218
 1494TIP3    H2 4426   2.769   4.104   5.221
 1495TIP3   OH2 4427   7.310   4.692   5.697
 1495TIP3    H1 4428   7.214   4.695   5.688
 1495TIP3    H2 4429   7.328   4.612   5.745
 1496TIP3   OH2 4430   6.277   1.431   5.898
 1496TIP3    H1 4431   6.372   1.430   5.911
 1496TIP3    H2 4432   6.256   1.344   5.864
 1497TIP3   OH2 4433   0.107   2.526   3.511
 1497TIP3    H1 4434   0.086   2.553   3.600
 1497TIP3    H2 4435   0.056   2.446   3.497
 1498TIP3   OH2 4436   0.173   4.187   6.502
 1498TIP3    H1 4437   0.254   4.217   6.543
 1498TIP3    H2 4438   0.129   4.137   6.571
 1499TIP3   OH2 4439   8.193   7.726   6.480
 1499TIP3    H1 4440   8.223   7.635   6.473
 1499TIP3    H2 4441   8.266   7.771   6.523
 1500TIP3   OH2 4442   3.628   2.265   1.800
 1500TIP3    H1 4443   3.690   2.193   1.811
 1500TIP3    H2 4444   3.668   2.321   1.734
 1501TIP3   OH2 4445   6.707   4.005   6.590
 1501TIP3    H1 4446   6.648   4.051   6.651
 1501TIP3    H2 4447   6.779   3.975   6.646
 1502TIP3   OH2 4448   0.520   2.385   1.020
 1502TIP3    H1 4449   0.457   2.455   1.038
 1502TIP3    H2 4450   0.601   2.431   1.001
 1503TIP3   OH2 4451   1.758   7.101   3.350
 1503TIP3    H1 4452   1.771   7.109   3.444
 1503TIP3    H2 4453   1.847   7.100   3.313
 1504TIP3   OH2 4454   2.061   7.145   1.952
 1504TIP3    H1 4455   2.149   7.108   1.952
 1504TIP3    H2 4456   2.035   7.147   1.860
 1505TIP3   OH2 4457   5.922   6.816   4.865
 1505TIP3    H1 4458   5.907   6.753   4.936
 1505TIP3    H2 4459   5.958   6.763   4.793
 1506TIP3   OH2 4460   5.127   7.344   3.205
 1506TIP3    H1 4461   5.097   7.390   3.284
 1506TIP3    H2 4462   5.049   7.299   3.173
 1507TIP3   OH2 4463   3.927   6.827   5.530
 1507TIP3    H1 4464   3.957   6.852   5.617
 1507TIP3    H2 4465   3.920   6.731   5.534
 1508TIP3   OH2 4466   3.237   1.983   2.873
 1508TIP3    H1 4467   3.282   2.019   2.950
 1508TIP3    H2 4468   3.262   1.891   2.872
 1509TIP3   OH2 4469   0.137   4.489   3.219
 1509TIP3    H1 4470   0.178   4.415   3.263
 1509TIP3    H2 4471   0.190   4.504   3.141
 1510TIP3   OH2 4472   4.704   6.424   6.382
 1510TIP3    H1 4473   4.633   6.361   6.397
 1510TIP3    H2 4474   4.660   6.508   6.375
 1511TIP3   OH2 4475   4.956   7.835   6.127
 1511TIP3    H1 4476   4.982   7.788   6.048
 1511TIP3    H2 4477   5.020   7.905   6.135
 1512TIP3   OH2 4478   0.865   7.334   5.440
 1512TIP3    H1 4479   0.770   7.339   5.429
 1512TIP3    H2 4480   0.882   7.380   5.522
 1513TIP3   OH2 4481   1.237   3.401   4.741
 1513TIP3    H1 4482   1.222   3.320   4.693
 1513TIP3    H2 4483   1.181   3.466   4.698
 1514TIP3   OH2 4484   7.353   5.435   3.051
 1514TIP3    H1 4485   7.265   5.452   3.087
 1514TIP3    H2 4486   7.412   5.477   3.114
 1515TIP3   OH2 4487   6.830   0.857   6.692
 1515TIP3    H1 4488   6.747   0.818   6.665
 1515TIP3    H2 4489   6.875   0.788   6.741
 1516TIP3   OH2 4490   1.560   2.207   3.700
 1516TIP3    H1 4491   1.614   2.133   3.728
 1516TIP3    H2 4492   1.590   2.227   3.611
 1517TIP3   OH2 4493   3.603   4.786   6.178
 1517TIP3    H1 4494   3.694   4.776   6.151
 1517TIP3    H2 4495   3.595   4.729   6.255
 1518TIP3   OH2 4496   3.571   6.849   6.756
 1518TIP3    H1 4497   3.634   6.844   6.829
 1518TIP3    H2 4498   3.615   6.804   6.684
 1519TIP3   OH2 4499   3.800   4.548   5.317
 1519TIP3    H1 4500   3.864   4.481   5.340
 1519TIP3    H2 4501   3.847   4.606   5.258
 1520TIP3   OH2 4502   7.337   3.317   5.708
 1520TIP3    H1 4503   7.256   3.330   5.757
 1520TIP3    H2 4504   7.315   3.341   5.618
 1521TIP3   OH2 4505   7.846   1.310   2.451
 1521TIP3    H1 4506   7.761   1.354   2.454
 1521TIP3    H2 4507   7.909   1.378   2.476
 1522TIP3   OH2 4508   7.523   5.033   6.776
 1522TIP3    H1 4509   7.461   5.080   6.720
 1522TIP3    H2 4510   7.471   4.999   6.848
 1523TIP3   OH2 4511   7.059   3.795   5.618
 1523TIP3    H1 4512   7.073   3.760   5.530
 1523TIP3    H2 4513   6.984   3.855   5.609
 1524TIP3   OH2 4514   1.040   7.177   4.378
 1524TIP3    H1 4515   1.113   7.206   4.322
 1524TIP3    H2 4516   0.980   7.251   4.379
 1525TIP3   OH2 4517   4.207   6.967   6.489
 1525TIP3    H1 4518   4.298   6.983   6.467
 1525TIP3    H2 4519   4.158   7.033   6.441
 1526TIP3   OH2 4520   1.431   0.694   2.579
 1526TIP3    H1 4521   1.414   0.664   2.490
 1526TIP3    H2 4522   1.477   0.621   2.620
 1527TIP3   OH2 4523   0.384   4.546   4.060
 1527TIP3    H1 4524   0.342   4.575   3.979
 1527TIP3    H2 4525   0.459   4.494   4.031
 1528TIP3   OH2 4526   8.225   4.302   3.839
 1528TIP3    H1 4527   8.253   4.372   3.898
 1528TIP3    H2 4528   8.131   4.296   3.850
 1529TIP3   OH2 4529   4.820   5.065   6.585
 1529TIP3    H1 4530   4.885   5.019   6.530
 1529TIP3    H2 4531   4.761   4.996   6.614
 1530TIP3   OH2 4532   4.491   0.200   0.055
 1530TIP3    H1 4533   4.407   0.177   0.094
 1530TIP3    H2 4534   4.509   0.289   0.086
 1531TIP3   OH2 4535   5.678   5.688   1.831
 1531TIP3    H1 4536   5.605   5.749   1.817
 1531TIP3    H2 4537   5.695   5.652   1.744
 1532TIP3   OH2 4538   8.079   5.384   3.350
 1532TIP3    H1 4539   8.170   5.387   3.321
 1532TIP3    H2 4540   8.030   5.430   3.282
 1533TIP3   OH2 4541   1.477   0.623   6.305
 1533TIP3    H1 4542   1.400   0.669   6.339
 1533TIP3    H2 4543   1.498   0.558   6.371
 1534TIP3   OH2 4544   2.699   1.578   2.562
 1534TIP3    H1 4545   2.719   1.543   2.475
 1534TIP3    H2 4546   2.783   1.580   2.607
 1535TIP3   OH2 4547   2.184   7.648   0.594
 1535TIP3    H1 4548   2.219   7.604   0.516
 1535TIP3    H2 4549   2.090   7.630   0.591
 1536TIP3   OH2 4550   1.486   3.655   3.743
 1536TIP3    H1 4551   1.440   3.609   3.672
 1536TIP3    H2 4552   1.547   3.713   3.697
 1537TIP3   OH2 4553   8.159   5.975   0.917
 1537TIP3    H1 4554   8.162   5.886   0.882
 1537TIP3    H2 4555   8.068   6.002   0.905
 1538TIP3   OH2 4556   4.690   1.356   1.079
 1538TIP3    H1 4557   4.619   1.402   1.034
 1538TIP3    H2 4558   4.769   1.403   1.054
 1539TIP3   OH2 4559   4.940   7.533   0.235
 1539TIP3    H1 4560   4.865   7.591   0.222
 1539TIP3    H2 4561   5.016   7.588   0.215
 1540TIP3   OH2 4562   0.192   2.466   1.487
 1540TIP3    H1 4563   0.196   2.530   1.558
 1540TIP3    H2 4564   0.182   2.381   1.531
 1541TIP3   OH2 4565   6.068   7.070   0.842
 1541TIP3    H1 4566   6.156   7.109   0.844
 1541TIP3    H2 4567   6.035   7.084   0.931
 1542TIP3   OH2 4568   3.240   2.328   5.719
 1542TIP3    H1 4569   3.153   2.313   5.683
 1542TIP3    H2 4570   3.246   2.270   5.795
 1543TIP3   OH2 4571   7.734   2.181   4.905
 1543TIP3    H1 4572   7.698   2.155   4.820
 1543TIP3    H2 4573   7.748   2.275   4.898
 1544TIP3   OH2 4574   5.906   6.273   2.095
 1544TIP3    H1 4575   5.980   6.279   2.155
 1544TIP3    H2 4576   5.840   6.223   2.143
 1545TIP3   OH2 4577   6.757   4.059   4.809
 1545TIP3    H1 4578   6.752   4.135   4.750
 1545TIP3    H2 4579   6.687   4.073   4.872
 1546TIP3   OH2 4580   3.630   4.309   4.329
 1546TIP3    H1 4581   3.696   4.264   4.277
 1546TIP3    H2 4582   3.559   4.245   4.338
 1547TIP3   OH2 4583   7.486   1.359   1.281
 1547TIP3    H1 4584   7.553   1.418   1.247
 1547TIP3    H2 4585   7.404   1.391   1.241
 1548TIP3   OH2 4586   6.550   1.811   6.516
 1548TIP3    H1 4587   6.615   1.806   6.587
 1548TIP3    H2 4588   6.468   1.832   6.561
 1549TIP3   OH2 4589   5.360   0.734   5.143
 1549TIP3    H1 4590   5.270   0.764   5.158
 1549TIP3    H2 4591   5.404   0.744   5.227
 1550TIP3   OH2 4592   2.159   4.564   5.236
 1550TIP3    H1 4593   2.149   4.658   5.249
 1550TIP3    H2 4594   2.235   4.541   5.290
 1551TIP3   OH2 4595   0.327   5.443   0.520
 1551TIP3    H1 4596   0.398   5.453   0.584
 1551TIP3    H2 4597   0.247   5.458   0.570
 1552TIP3   OH2 4598   8.245   7.874   5.632
 1552TIP3    H1 4599   8.320   7.932   5.637
 1552TIP3    H2 4600   8.237   7.837   5.720
 1553TIP3   OH2 4601   5.577   5.374   3.286
 1553TIP3    H1 4602   5.653   5.418   3.325
 1553TIP3    H2 4603   5.614   5.312   3.224
 1554TIP3   OH2 4604   7.142   6.572   2.597
 1554TIP3    H1 4605   7.152   6.637   2.667
 1554TIP3    H2 4606   7.060   6.527   2.617
 1555TIP3   OH2 4607   0.072   6.369   4.448
 1555TIP3    H1 4608   0.109   6.424   4.380
 1555TIP3    H2 4609   0.141   6.305   4.467
 1556TIP3   OH2 4610   0.024   3.077   3.563
 1556TIP3    H1 4611   0.107   3.061   3.609
 1556TIP3    H2 4612  -0.002   3.165   3.591
 1557TIP3   OH2 4613   0.629   0.263   6.058
 1557TIP3    H1 4614   0.721   0.275   6.035
 1557TIP3    H2 4615   0.604   0.182   6.014
 1558TIP3   OH2 4616   5.769   7.215   0.396
 1558TIP3    H1 4617   5.847   7.176   0.435
 1558TIP3    H2 4618   5.697   7.160   0.425
 1559TIP3   OH2 4619   3.685   7.362   1.388
 1559TIP3    H1 4620   3.652   7.345   1.300
 1559TIP3    H2 4621   3.607   7.359   1.444
 1560TIP3   OH2 4622   5.616   5.552   3.934
 1560TIP3    H1 4623   5.616   5.604   4.014
 1560TIP3    H2 4624   5.576   5.468   3.960
 1561TIP3   OH2 4625   1.709   7.747   5.465
 1561TIP3    H1 4626   1.731   7.657   5.488
 1561TIP3    H2 4627   1.727   7.753   5.371
 1562TIP3   OH2 4628   6.402   6.240   5.879
 1562TIP3    H1 4629   6.367   6.254   5.967
 1562TIP3    H2 4630   6.405   6.145   5.869
 1563TIP3   OH2 4631   6.274   5.341   0.681
 1563TIP3    H1 4632   6.369   5.350   0.669
 1563TIP3    H2 4633   6.261   5.342   0.775
 1564TIP3   OH2 4634   6.541   5.979   0.903
 1564TIP3    H1 4635   6.472   6.041   0.876
 1564TIP3    H2 4636   6.619   6.034   0.913
 1565TIP3   OH2 4637   1.870   5.154   5.849
 1565TIP3    H1 4638   1.943   5.099   5.879
 1565TIP3    H2 4639   1.802   5.141   5.916
 1566TIP3   OH2 4640   1.399   6.725   6.333
 1566TIP3    H1 4641   1.390   6.693   6.244
 1566TIP3    H2 4642   1.486   6.766   6.335
 1567TIP3   OH2 4643   2.731   6.510   5.705
 1567TIP3    H1 4644   2.700   6.425   5.737
 1567TIP3    H2 4645   2.797   6.487   5.639
 1568TIP3   OH2 4646   2.427   7.324   3.345
 1568TIP3    H1 4647   2.434   7.339   3.439
 1568TIP3    H2 4648   2.338   7.291   3.333
 1569TIP3   OH2 4649   6.332   3.965   6.336
 1569TIP3    H1 4650   6.310   4.038   6.393
 1569TIP3    H2 4651   6.362   3.896   6.395
 1570TIP3   OH2 4652   0.714   4.416   2.764
 1570TIP3    H1 4653   0.634   4.412   2.711
 1570TIP3    H2 4654   0.777   4.362   2.716
 1571TIP3   OH2 4655   5.924   0.659   5.753
 1571TIP3    H1 4656   5.992   0.609   5.798
 1571TIP3    H2 4657   5.843   0.612   5.772
 1572TIP3   OH2 4658   0.085   7.111   2.082
 1572TIP3    H1 4659  -0.002   7.138   2.112
 1572TIP3    H2 4660   0.070   7.026   2.041
 1573TIP3   OH2 4661   2.455   5.348   1.578
 1573TIP3    H1 4662   2.432   5.332   1.670
 1573TIP3    H2 4663   2.532   5.405   1.582
 1574TIP3   OH2 4664   1.439   7.639   3.193
 1574TIP3    H1 4665   1.508   7.591   3.239
 1574TIP3    H2 4666   1.470   7.647   3.103
 1575TIP3   OH2 4667   4.382   3.502   5.234
 1575TIP3    H1 4668   4.426   3.580   5.202
 1575TIP3    H2 4669   4.403   3.434   5.170
 1576TIP3   OH2 4670   1.655   1.369   2.722
 1576TIP3    H1 4671   1.725   1.338   2.664
 1576TIP3    H2 4672   1.575   1.357   2.671
 1577TIP3   OH2 4673   6.545   7.001   1.477
 1577TIP3    H1 4674   6.451   7.015   1.473
 1577TIP3    H2 4675   6.556   6.908   1.459
 1578TIP3   OH2 4676   0.519   3.579   3.254
 1578TIP3    H1 4677   0.528   3.592   3.160
 1578TIP3    H2 4678   0.434   3.536   3.264
 1579TIP3   OH2 4679   6.658   3.155   0.743
 1579TIP3    H1 4680   6.747   3.119   0.742
 1579TIP3    H2 4681   6.651   3.203   0.660
 1580TIP3   OH2 4682   7.866   1.671   4.039
 1580TIP3    H1 4683   7.811   1.657   3.962
 1580TIP3    H2 4684   7.942   1.614   4.025
 1581TIP3   OH2 4685   6.730   0.244   1.750
 1581TIP3    H1 4686   6.650   0.203   1.716
 1581TIP3    H2 4687   6.770   0.285   1.674
 1582TIP3   OH2 4688   1.991   1.331   5.199
 1582TIP3    H1 4689   2.067   1.277   5.182
 1582TIP3    H2 4690   1.963   1.362   5.112
 1583TIP3   OH2 4691   1.555   7.219   3.925
 1583TIP3    H1 4692   1.592   7.228   3.837
 1583TIP3    H2 4693   1.463   7.196   3.909
 1584TIP3   OH2 4694   3.811   0.203   0.011
 1584TIP3    H1 4695   3.856   0.263   0.070
 1584TIP3    H2 4696   3.786   0.128   0.066
 1585TIP3   OH2 4697   0.978   3.586   3.225
 1585TIP3    H1 4698   0.895   3.543   3.244
 1585TIP3    H2 4699   0.975   3.602   3.130
 1586TIP3   OH2 4700   7.945   0.149   0.721
 1586TIP3    H1 4701   7.993   0.103   0.652
 1586TIP3    H2 4702   7.879   0.200   0.674
 1587TIP3   OH2 4703   3.932   4.117   2.554
 1587TIP3    H1 4704   3.880   4.040   2.578
 1587TIP3    H2 4705   3.912   4.182   2.622
 1588TIP3   OH2 4706   7.730   7.622   2.807
 1588TIP3    H1 4707   7.651   7.631   2.859
 1588TIP3    H2 4708   7.801   7.647   2.867
 1589TIP3   OH2 4709   6.310   1.996   2.812
 1589TIP3    H1 4710   6.339   2.013   2.901
 1589TIP3    H2 4711   6.330   2.077   2.764
 1590TIP3   OH2 4712   4.081   6.773   3.164
 1590TIP3    H1 4713   4.132   6.695   3.186
 1590TIP3    H2 4714   3.990   6.747   3.180
 1591TIP3   OH2 4715   2.387   3.755   5.729
 1591TIP3    H1 4716   2.387   3.823   5.795
 1591TIP3    H2 4717   2.420   3.798   5.650
 1592TIP3   OH2 4718   4.838   6.955   6.043
 1592TIP3    H1 4719   4.776   6.984   5.977
 1592TIP3    H2 4720   4.921   6.994   6.017
 1593TIP3   OH2 4721   1.754   2.313   4.691
 1593TIP3    H1 4722   1.683   2.374   4.675
 1593TIP3    H2 4723   1.794   2.299   4.605
 1594TIP3   OH2 4724   3.671   7.742   4.419
 1594TIP3    H1 4725   3.656   7.806   4.489
 1594TIP3    H2 4726   3.738   7.781   4.364
 1595TIP3   OH2 4727   5.058   1.739   0.986
 1595TIP3    H1 4728   5.082   1.726   1.078
 1595TIP3    H2 4729   5.037   1.832   0.979
 1596TIP3   OH2 4730   6.483   3.520   4.453
 1596TIP3    H1 4731   6.527   3.588   4.403
 1596TIP3    H2 4732   6.546   3.493   4.519
 1597TIP3   OH2 4733   1.383   5.995   6.291
 1597TIP3    H1 4734   1.312   6.058   6.280
 1597TIP3    H2 4735   1.386   5.948   6.207
 1598TIP3   OH2 4736   2.273   2.438   4.440
 1598TIP3    H1 4737   2.337   2.368   4.453
 1598TIP3    H2 4738   2.267   2.447   4.344
 1599TIP3   OH2 4739   4.287   4.986   4.097
 1599TIP3    H1 4740   4.381   4.989   4.077
 1599TIP3    H2 4741   4.252   5.067   4.058
 1600TIP3   OH2 4742   1.210   0.641   3.071
 1600TIP3    H1 4743   1.159   0.716   3.099
 1600TIP3    H2 4744   1.166   0.566   3.111
 1601TIP3   OH2 4745   5.066   0.396   1.221
 1601TIP3    H1 4746   5.132   0.331   1.248
 1601TIP3    H2 4747   4.995   0.385   1.284
 1602TIP3   OH2 4748   7.149   5.580   6.652
 1602TIP3    H1 4749   7.061   5.584   6.690
 1602TIP3    H2 4750   7.208   5.575   6.727
 1603TIP3   OH2 4751   2.970   7.265   1.389
 1603TIP3    H1 4752   2.895   7.287   1.333
 1603TIP3    H2 4753   2.952   7.309   1.472
 1604TIP3   OH2 4754   6.532   5.392   5.601
 1604TIP3    H1 4755   6.445   5.407   5.639
 1604TIP3    H2 4756   6.533   5.445   5.522
 1605TIP3   OH2 4757   4.144   6.658   1.510
 1605TIP3    H1 4758   4.071   6.715   1.534
 1605TIP3    H2 4759   4.195   6.649   1.591
 1606TIP3   OH2 4760   6.185   5.862   1.067
 1606TIP3    H1 4761   6.277   5.862   1.092
 1606TIP3    H2 4762   6.179   5.798   0.996
 1607TIP3   OH2 4763   6.179   2.106   2.325
 1607TIP3    H1 4764   6.241   2.086   2.255
 1607TIP3    H2 4765   6.163   2.021   2.367
 1608TIP3   OH2 4766   5.879   6.179   5.829
 1608TIP3    H1 4767   5.868   6.149   5.919
 1608TIP3    H2 4768   5.969   6.212   5.826
 1609TIP3   OH2 4769   7.337   7.457   4.716
 1609TIP3    H1 4770   7.353   7.373   4.671
 1609TIP3    H2 4771   7.343   7.522   4.647
 1610TIP3   OH2 4772   5.895   7.419   2.603
 1610TIP3    H1 4773   5.983   7.455   2.616
 1610TIP3    H2 4774   5.839   7.474   2.658
 1611TIP3   OH2 4775   7.053   7.278   6.147
 1611TIP3    H1 4776   7.055   7.374   6.144
 1611TIP3    H2 4777   7.055   7.257   6.240
 1612TIP3   OH2 4778   2.256   5.090   4.889
 1612TIP3    H1 4779   2.173   5.043   4.884
 1612TIP3    H2 4780   2.306   5.057   4.814
 1613TIP3   OH2 4781   5.657   5.840   6.408
 1613TIP3    H1 4782   5.632   5.797   6.326
 1613TIP3    H2 4783   5.584   5.899   6.427
 1614TIP3   OH2 4784   3.013   7.453   5.479
 1614TIP3    H1 4785   2.932   7.492   5.445
 1614TIP3    H2 4786   2.995   7.360   5.484
 1615TIP3   OH2 4787   7.671   0.800   1.469
 1615TIP3    H1 4788   7.738   0.733   1.485
 1615TIP3    H2 4789   7.717   0.883   1.482
 1616TIP3   OH2 4790   7.441   4.716   5.465
 1616TIP3    H1 4791   7.376   4.685   5.402
 1616TIP3    H2 4792   7.397   4.707   5.550
 1617TIP3   OH2 4793   2.858   6.678   6.191
 1617TIP3    H1 4794   2.849   6.588   6.222
 1617TIP3    H2 4795   2.924   6.716   6.249
 1618TIP3   OH2 4796   5.356   6.472   1.016
 1618TIP3    H1 4797   5.325   6.558   0.986
 1618TIP3    H2 4798   5.295   6.410   0.976
 1619TIP3   OH2 4799   0.529   0.857   1.707
 1619TIP3    H1 4800   0.564   0.803   1.636
 1619TIP3    H2 4801   0.590   0.930   1.714
 1620TIP3   OH2 4802   0.773   0.911   1.967
 1620TIP3    H1 4803   0.730   0.950   1.891
 1620TIP3    H2 4804   0.714   0.930   2.040
 1621TIP3   OH2 4805   4.996   1.073   2.811
 1621TIP3    H1 4806   5.037   1.157   2.792
 1621TIP3    H2 4807   4.903   1.092   2.818
 1622TIP3   OH2 4808   5.374   5.611   6.604
 1622TIP3    H1 4809   5.324   5.685   6.570
 1622TIP3    H2 4810   5.411   5.569   6.527
 1623TIP3   OH2 4811   7.079   3.100   3.248
 1623TIP3    H1 4812   7.030   3.136   3.174
 1623TIP3    H2 4813   7.153   3.161   3.260
 1624TIP3   OH2 4814   7.259   2.186   1.781
 1624TIP3    H1 4815   7.251   2.115   1.716
 1624TIP3    H2 4816   7.351   2.183   1.807
 1625TIP3   OH2 4817   4.202   3.656   1.998
 1625TIP3    H1 4818   4.237   3.734   2.042
 1625TIP3    H2 4819   4.107   3.663   2.008
 1626TIP3   OH2 4820   7.841   4.941   5.098
 1626TIP3    H1 4821   7.899   4.881   5.050
 1626TIP3    H2 4822   7.898   4.982   5.164
 1627TIP3   OH2 4823   7.996   3.771   2.471
 1627TIP3    H1 4824   8.026   3.770   2.562
 1627TIP3    H2 4825   8.076   3.765   2.419
 1628TIP3   OH2 4826   6.334   6.577   2.644
 1628TIP3    H1 4827   6.344   6.665   2.681
 1628TIP3    H2 4828   6.376   6.519   2.708
 1629TIP3   OH2 4829   5.950   7.665   3.652
 1629TIP3    H1 4830   5.928   7.580   3.692
 1629TIP3    H2 4831   6.035   7.651   3.611
 1630TIP3   OH2 4832   4.592   5.887   5.800
 1630TIP3    H1 4833   4.519   5.905   5.740
 1630TIP3    H2 4834   4.581   5.795   5.823
 1631TIP3   OH2 4835   6.842   4.428   5.063
 1631TIP3    H1 4836   6.746   4.421   5.065
 1631TIP3    H2 4837   6.859   4.521   5.079
 1632TIP3   OH2 4838   4.843   2.220   2.546
 1632TIP3    H1 4839   4.912   2.272   2.587
 1632TIP3    H2 4840   4.884   2.185   2.467
 1633TIP3   OH2 4841   1.863   5.006   0.989
 1633TIP3    H1 4842   1.823   5.093   0.980
 1633TIP3    H2 4843   1.856   4.987   1.083
 1634TIP3   OH2 4844   7.097   5.879   0.659
 1634TIP3    H1 4845   7.154   5.848   0.588
 1634TIP3    H2 4846   7.155   5.930   0.715
 1635TIP3   OH2 4847   7.182   3.710   4.849
 1635TIP3    H1 4848   7.259   3.746   4.806
 1635TIP3    H2 4849   7.130   3.787   4.873
 1636TIP3   OH2 4850   2.416   2.410   6.029
 1636TIP3    H1 4851   2.480   2.454   6.084
 1636TIP3    H2 4852   2.380   2.480   5.974
 1637TIP3   OH2 4853   1.759   3.187   2.293
 1637TIP3    H1 4854   1.697   3.114   2.285
 1637TIP3    H2 4855   1.778   3.212   2.202
 1638TIP3   OH2 4856   5.243   4.121   1.180
 1638TIP3    H1 4857   5.235   4.181   1.107
 1638TIP3    H2 4858   5.335   4.096   1.182
 1639TIP3   OH2 4859   1.148   0.545   3.349
 1639TIP3    H1 4860   1.155   0.613   3.416
 1639TIP3    H2 4861   1.234   0.504   3.348
 1640TIP3   OH2 4862   1.693   4.448   3.265
 1640TIP3    H1 4863   1.765   4.389   3.285
 1640TIP3    H2 4864   1.734   4.533   3.250
 1641TIP3   OH2 4865   5.874   3.382   5.318
 1641TIP3    H1 4866   5.914   3.469   5.312
 1641TIP3    H2 4867   5.855   3.371   5.411
 1642TIP3   OH2 4868   0.432   1.771   6.420
 1642TIP3    H1 4869   0.423   1.695   6.363
 1642TIP3    H2 4870   0.511   1.815   6.388
 1643TIP3   OH2 4871   1.543   5.782   1.873
 1643TIP3    H1 4872   1.515   5.874   1.871
 1643TIP3    H2 4873   1.575   5.769   1.963
 1644TIP3   OH2 4874   6.747   1.581   5.820
 1644TIP3    H1 4875   6.815   1.526   5.781
 1644TIP3    H2 4876   6.790   1.626   5.892
 1645TIP3   OH2 4877   3.464   2.061   5.651
 1645TIP3    H1 4878   3.514   2.074   5.570
 1645TIP3    H2 4879   3.400   1.994   5.629
 1646TIP3   OH2 4880   0.693   6.824   5.546
 1646TIP3    H1 4881   0.716   6.823   5.453
 1646TIP3    H2 4882   0.601   6.851   5.547
 1647TIP3   OH2 4883   5.207   0.458   3.779
 1647TIP3    H1 4884   5.203   0.410   3.862
 1647TIP3    H2 4885   5.127   0.512   3.779
 1648TIP3   OH2 4886   3.687   3.549   1.160
 1648TIP3    H1 4887   3.689   3.605   1.083
 1648TIP3    H2 4888   3.659   3.606   1.231
 1649TIP3   OH2 4889   0.150   0.853   3.727
 1649TIP3    H1 4890   0.104   0.797   3.665
 1649TIP3    H2 4891   0.199   0.792   3.783
 1650TIP3   OH2 4892   7.799   7.708   1.439
 1650TIP3    H1 4893   7.705   7.712   1.420
 1650TIP3    H2 4894   7.841   7.708   1.353
 1651TIP3   OH2 4895   0.269   0.607   4.233
 1651TIP3    H1 4896   0.216   0.579   4.158
 1651TIP3    H2 4897   0.332   0.669   4.196
 1652TIP3   OH2 4898   7.962   7.480   6.200
 1652TIP3    H1 4899   7.905   7.492   6.275
 1652TIP3    H2 4900   8.050   7.502   6.232
 1653TIP3   OH2 4901   3.649   4.490   2.189
 1653TIP3    H1 4902   3.561   4.462   2.166
 1653TIP3    H2 4903   3.684   4.419   2.243
 1654TIP3   OH2 4904   8.118   5.682   6.555
 1654TIP3    H1 4905   8.210   5.690   6.527
 1654TIP3    H2 4906   8.115   5.727   6.640
 1655TIP3   OH2 4907   5.697   4.779   5.656
 1655TIP3    H1 4908   5.662   4.799   5.743
 1655TIP3    H2 4909   5.628   4.807   5.596
 1656TIP3   OH2 4910   4.075   3.854   2.606
 1656TIP3    H1 4911   4.095   3.887   2.518
 1656TIP3    H2 4912   3.979   3.856   2.611
 1657TIP3   OH2 4913   0.185   6.327   4.072
 1657TIP3    H1 4914   0.089   6.336   4.071
 1657TIP3    H2 4915   0.202   6.244   4.028
 1658TIP3   OH2 4916   1.865   5.851   1.909
 1658TIP3    H1 4917   1.812   5.913   1.858
 1658TIP3    H2 4918   1.927   5.906   1.957
 1659TIP3   OH2 4919   6.473   5.248   2.473
 1659TIP3    H1 4920   6.502   5.318   2.415
 1659TIP3    H2 4921   6.379   5.261   2.480
 1660TIP3   OH2 4922   8.105   6.598   4.789
 1660TIP3    H1 4923   8.175   6.658   4.763
 1660TIP3    H2 4924   8.103   6.533   4.718
 1661TIP3   OH2 4925   5.573   3.340   2.728
 1661TIP3    H1 4926   5.531   3.412   2.775
 1661TIP3    H2 4927   5.551   3.354   2.636
 1662TIP3   OH2 4928   5.023   2.344   6.562
 1662TIP3    H1 4929   4.928   2.341   6.574
 1662TIP3    H2 4930   5.053   2.255   6.580
 1663TIP3   OH2 4931   4.864   4.053   5.348
 1663TIP3    H1 4932   4.809   4.132   5.351
 1663TIP3    H2 4933   4.865   4.022   5.439
 1664TIP3   OH2 4934  -0.023   7.791   0.717
 1664TIP3    H1 4935   0.036   7.822   0.786
 1664TIP3    H2 4936   0.025   7.806   0.636
 1665TIP3   OH2 4937   2.574   3.549   6.625
 1665TIP3    H1 4938   2.620   3.632   6.634
 1665TIP3    H2 4939   2.491   3.561   6.672
 1666TIP3   OH2 4940   3.662   3.469   4.936
 1666TIP3    H1 4941   3.694   3.392   4.890
 1666TIP3    H2 4942   3.740   3.509   4.975
 1667TIP3   OH2 4943   0.776   1.941   0.046
 1667TIP3    H1 4944   0.838   1.962  -0.024
 1667TIP3    H2 4945   0.764   2.023   0.093
 1668TIP3   OH2 4946   2.320   0.690   0.806
 1668TIP3    H1 4947   2.267   0.669   0.883
 1668TIP3    H2 4948   2.376   0.763   0.834
 1669TIP3   OH2 4949   1.338   4.397   1.190
 1669TIP3    H1 4950   1.312   4.373   1.101
 1669TIP3    H2 4951   1.415   4.453   1.178
 1670TIP3   OH2 4952   0.081   2.331   2.138
 1670TIP3    H1 4953   0.132   2.282   2.202
 1670TIP3    H2 4954   0.102   2.290   2.054
 1671TIP3   OH2 4955   2.087   1.027   1.541
 1671TIP3    H1 4956   2.030   1.099   1.512
 1671TIP3    H2 4957   2.067   0.955   1.482
 1672TIP3   OH2 4958   3.647   7.094   5.836
 1672TIP3    H1 4959   3.624   7.099   5.743
 1672TIP3    H2 4960   3.572   7.132   5.881
 1673TIP3   OH2 4961   1.771   3.149   4.782
 1673TIP3    H1 4962   1.792   3.214   4.716
 1673TIP3    H2 4963   1.846   3.150   4.842
 1674TIP3   OH2 4964   5.318   3.052   1.021
 1674TIP3    H1 4965   5.354   3.021   0.938
 1674TIP3    H2 4966   5.342   2.984   1.085
 1675TIP3   OH2 4967   3.575   7.120   5.560
 1675TIP3    H1 4968   3.639   7.083   5.499
 1675TIP3    H2 4969   3.502   7.059   5.558
 1676TIP3   OH2 4970   4.742   2.763   2.025
 1676TIP3    H1 4971   4.833   2.763   2.054
 1676TIP3    H2 4972   4.746   2.791   1.933
 1677TIP3   OH2 4973   1.373   7.560   5.809
 1677TIP3    H1 4974   1.430   7.483   5.802
 1677TIP3    H2 4975   1.408   7.620   5.743
 1678TIP3   OH2 4976   2.850   0.027   3.812
 1678TIP3    H1 4977   2.915   0.035   3.742
 1678TIP3    H2 4978   2.824   0.117   3.831
 1679TIP3   OH2 4979   7.126   2.699   0.937
 1679TIP3    H1 4980   7.120   2.744   0.853
 1679TIP3    H2 4981   7.173   2.760   0.994
 1680TIP3   OH2 4982   7.971   1.553   3.250
 1680TIP3    H1 4983   7.924   1.496   3.311
 1680TIP3    H2 4984   8.029   1.494   3.201
 1681TIP3   OH2 4985   1.069   3.806   4.436
 1681TIP3    H1 4986   1.028   3.892   4.451
 1681TIP3    H2 4987   1.157   3.826   4.406
 1682TIP3   OH2 4988   0.113   3.451   1.605
 1682TIP3    H1 4989   0.139   3.521   1.545
 1682TIP3    H2 4990   0.195   3.426   1.649
 1683TIP3   OH2 4991   7.893   2.390   3.592
 1683TIP3    H1 4992   7.931   2.427   3.513
 1683TIP3    H2 4993   7.942   2.310   3.608
 1684TIP3   OH2 4994   3.587   4.409   4.963
 1684TIP3    H1 4995   3.681   4.420   4.953
 1684TIP3    H2 4996   3.576   4.381   5.054
 1685TIP3   OH2 4997   3.042   7.547   6.455
 1685TIP3    H1 4998   3.005   7.460   6.444
 1685TIP3    H2 4999   3.134   7.537   6.432
 1686TIP3   OH2 5000   4.220   5.610   1.077
 1686TIP3    H1 5001   4.299   5.662   1.090
 1686TIP3    H2 5002   4.154   5.652   1.131
 1687TIP3   OH2 5003   1.580   3.235   5.934
 1687TIP3    H1 5004   1.547   3.325   5.929
 1687TIP3    H2 5005   1.600   3.222   6.027
 1688TIP3   OH2 5006   0.697   4.669   1.508
 1688TIP3    H1 5007   0.765   4.707   1.453
 1688TIP3    H2 5008   0.740   4.597   1.554
 1689TIP3   OH2 5009   2.882   5.192   4.887
 1689TIP3    H1 5010   2.916   5.121   4.832
 1689TIP3    H2 5011   2.788   5.175   4.894
 1690TIP3   OH2 5012   0.432   0.240   4.807
 1690TIP3    H1 5013   0.517   0.198   4.797
 1690TIP3    H2 5014   0.375   0.195   4.745
 1691TIP3   OH2 5015   1.791   5.787   0.045
 1691TIP3    H1 5016   1.818   5.846  -0.025
 1691TIP3    H2 5017   1.828   5.826   0.125
 1692TIP3   OH2 5018   0.288   4.028   3.741
 1692TIP3    H1 5019   0.293   3.938   3.775
 1692TIP3    H2 5020   0.377   4.061   3.748
 1693TIP3   OH2 5021   1.929   1.770   5.575
 1693TIP3    H1 5022   2.010   1.806   5.610
 1693TIP3    H2 5023   1.898   1.835   5.513
 1694TIP3   OH2 5024   7.567   7.644   6.284
 1694TIP3    H1 5025   7.561   7.548   6.289
 1694TIP3    H2 5026   7.478   7.674   6.305
 1695TIP3   OH2 5027   2.900   5.412   4.227
 1695TIP3    H1 5028   2.985   5.369   4.217
 1695TIP3    H2 5029   2.868   5.423   4.137
 1696TIP3   OH2 5030   1.663   1.592   1.734
 1696TIP3    H1 5031   1.689   1.543   1.656
 1696TIP3    H2 5032   1.631   1.676   1.701
 1697TIP3   OH2 5033   0.608   7.651   0.729
 1697TIP3    H1 5034   0.602   7.718   0.798
 1697TIP3    H2 5035   0.521   7.651   0.689
 1698TIP3   OH2 5036   6.326   3.530   2.324
 1698TIP3    H1 5037   6.282   3.603   2.280
 1698TIP3    H2 5038   6.273   3.453   2.303
 1699TIP3   OH2 5039   7.750   2.681   0.963
 1699TIP3    H1 5040   7.801   2.737   0.904
 1699TIP3    H2 5041   7.787   2.594   0.952
 1700TIP3   OH2 5042   5.835   5.899   1.357
 1700TIP3    H1 5043   5.777   5.832   1.320
 1700TIP3    H2 5044   5.799   5.917   1.444
 1701TIP3   OH2 5045   0.419   3.111   2.767
 1701TIP3    H1 5046   0.350   3.128   2.703
 1701TIP3    H2 5047   0.487   3.175   2.747
 1702TIP3   OH2 5048   7.491   2.490   4.537
 1702TIP3    H1 5049   7.511   2.583   4.528
 1702TIP3    H2 5050   7.574   2.446   4.520
 1703TIP3   OH2 5051   5.237   0.461   2.641
 1703TIP3    H1 5052   5.264   0.380   2.686
 1703TIP3    H2 5053   5.146   0.446   2.618
 1704TIP3   OH2 5054   0.489   1.100   2.659
 1704TIP3    H1 5055   0.496   1.173   2.597
 1704TIP3    H2 5056   0.466   1.141   2.742
 1705TIP3   OH2 5057   8.263   1.503   6.506
 1705TIP3    H1 5058   8.326   1.510   6.434
 1705TIP3    H2 5059   8.243   1.594   6.529
 1706TIP3   OH2 5060   6.175   1.944   1.774
 1706TIP3    H1 5061   6.204   1.915   1.860
 1706TIP3    H2 5062   6.228   2.021   1.756
 1707TIP3   OH2 5063   6.735   5.783   1.970
 1707TIP3    H1 5064   6.709   5.875   1.964
 1707TIP3    H2 5065   6.797   5.780   2.043
 1708TIP3   OH2 5066   7.218   1.253   5.560
 1708TIP3    H1 5067   7.153   1.262   5.630
 1708TIP3    H2 5068   7.173   1.287   5.482
 1709TIP3   OH2 5069   0.678   2.983   2.450
 1709TIP3    H1 5070   0.713   3.002   2.537
 1709TIP3    H2 5071   0.634   2.898   2.461
 1710TIP3   OH2 5072   5.875   6.920   0.066
 1710TIP3    H1 5073   5.956   6.964   0.040
 1710TIP3    H2 5074   5.879   6.834   0.026
 1711TIP3   OH2 5075   6.951   6.580   5.982
 1711TIP3    H1 5076   6.924   6.537   6.063
 1711TIP3    H2 5077   7.023   6.637   6.009
 1712TIP3   OH2 5078   4.597   5.168   6.086
 1712TIP3    H1 5079   4.560   5.092   6.130
 1712TIP3    H2 5080   4.533   5.238   6.101
 1713TIP3   OH2 5081   5.777   3.592   1.612
 1713TIP3    H1 5082   5.825   3.633   1.540
 1713TIP3    H2 5083   5.737   3.515   1.574
 1714TIP3   OH2 5084   7.849   0.659   4.939
 1714TIP3    H1 5085   7.883   0.655   5.029
 1714TIP3    H2 5086   7.769   0.606   4.942
 1715TIP3   OH2 5087   6.997   5.287   0.815
 1715TIP3    H1 5088   6.963   5.369   0.852
 1715TIP3    H2 5089   6.961   5.218   0.871
 1716TIP3   OH2 5090   5.379   0.126   1.270
 1716TIP3    H1 5091   5.373   0.041   1.315
 1716TIP3    H2 5092   5.452   0.170   1.313
 1717TIP3   OH2 5093   0.881   7.712   1.824
 1717TIP3    H1 5094   0.894   7.712   1.919
 1717TIP3    H2 5095   0.799   7.664   1.811
 1718TIP3   OH2 5096   2.890   3.682   2.333
 1718TIP3    H1 5097   2.914   3.590   2.345
 1718TIP3    H2 5098   2.949   3.731   2.391
 1719TIP3   OH2 5099   1.626   2.312   0.569
 1719TIP3    H1 5100   1.672   2.233   0.597
 1719TIP3    H2 5101   1.657   2.327   0.480
 1720TIP3   OH2 5102   7.829   2.886   3.979
 1720TIP3    H1 5103   7.771   2.823   3.937
 1720TIP3    H2 5104   7.837   2.854   4.069
 1721TIP3   OH2 5105   0.242   7.041   5.431
 1721TIP3    H1 5106   0.175   6.988   5.388
 1721TIP3    H2 5107   0.199   7.075   5.510
 1722TIP3   OH2 5108   6.521   4.754   2.393
 1722TIP3    H1 5109   6.534   4.760   2.487
 1722TIP3    H2 5110   6.606   4.725   2.359
 1723TIP3   OH2 5111   2.688   5.391   6.621
 1723TIP3    H1 5112   2.724   5.385   6.710
 1723TIP3    H2 5113   2.668   5.484   6.610
 1724TIP3   OH2 5114   8.220   6.498   3.190
 1724TIP3    H1 5115   8.300   6.478   3.238
 1724TIP3    H2 5116   8.241   6.576   3.139
 1725TIP3   OH2 5117   6.079   2.166   3.242
 1725TIP3    H1 5118   6.086   2.192   3.151
 1725TIP3    H2 5119   6.131   2.231   3.290
 1726TIP3   OH2 5120   0.876   6.432   1.369
 1726TIP3    H1 5121   0.861   6.378   1.446
 1726TIP3    H2 5122   0.789   6.453   1.336
 1727TIP3   OH2 5123   7.333   0.989   2.704
 1727TIP3    H1 5124   7.391   0.914   2.719
 1727TIP3    H2 5125   7.245   0.955   2.722
 1728TIP3   OH2 5126   5.674   6.163   2.911
 1728TIP3    H1 5127   5.590   6.117   2.919
 1728TIP3    H2 5128   5.736   6.096   2.884
 1729TIP3   OH2 5129   7.267   4.466   3.848
 1729TIP3    H1 5130   7.248   4.491   3.939
 1729TIP3    H2 5131   7.300   4.376   3.854
 1730TIP3   OH2 5132   2.026   2.189   4.874
 1730TIP3    H1 5133   2.073   2.144   4.803
 1730TIP3    H2 5134   2.015   2.279   4.842
 1731TIP3   OH2 5135   7.477   7.272   2.635
 1731TIP3    H1 5136   7.567   7.299   2.657
 1731TIP3    H2 5137   7.422   7.321   2.696
 1732TIP3   OH2 5138   2.787   5.243   1.826
 1732TIP3    H1 5139   2.811   5.334   1.812
 1732TIP3    H2 5140   2.763   5.211   1.740
 1733TIP3   OH2 5141   0.288   0.905   5.697
 1733TIP3    H1 5142   0.362   0.936   5.750
 1733TIP3    H2 5143   0.323   0.831   5.648
 1734TIP3   OH2 5144   0.897   2.717   2.746
 1734TIP3    H1 5145   0.818   2.680   2.787
 1734TIP3    H2 5146   0.969   2.673   2.791
 1735TIP3   OH2 5147   6.298   2.979   1.235
 1735TIP3    H1 5148   6.334   2.973   1.323
 1735TIP3    H2 5149   6.361   2.935   1.179
 1736TIP3   OH2 5150   5.599   4.681   6.073
 1736TIP3    H1 5151   5.677   4.638   6.109
 1736TIP3    H2 5152   5.631   4.764   6.039
 1737TIP3   OH2 5153   4.165   6.130   2.444
 1737TIP3    H1 5154   4.205   6.102   2.527
 1737TIP3    H2 5155   4.130   6.217   2.463
 1738TIP3   OH2 5156   4.928   6.152   4.743
 1738TIP3    H1 5157   4.861   6.155   4.674
 1738TIP3    H2 5158   4.879   6.148   4.825
 1739TIP3   OH2 5159   3.890   3.787   4.732
 1739TIP3    H1 5160   3.949   3.860   4.745
 1739TIP3    H2 5161   3.945   3.718   4.694
 1740TIP3   OH2 5162   6.376   7.523   1.020
 1740TIP3    H1 5163   6.326   7.582   0.963
 1740TIP3    H2 5164   6.315   7.453   1.041
 1741TIP3   OH2 5165   0.711   6.539   3.344
 1741TIP3    H1 5166   0.753   6.606   3.291
 1741TIP3    H2 5167   0.724   6.567   3.434
 1742TIP3   OH2 5168   1.547   7.713   0.734
 1742TIP3    H1 5169   1.503   7.797   0.737
 1742TIP3    H2 5170   1.579   7.699   0.823
 1743TIP3   OH2 5171   2.026   5.648   3.961
 1743TIP3    H1 5172   1.939   5.608   3.970
 1743TIP3    H2 5173   2.034   5.707   4.036
 1744TIP3   OH2 5174   4.374   5.360   6.194
 1744TIP3    H1 5175   4.293   5.338   6.239
 1744TIP3    H2 5176   4.347   5.380   6.104
 1745TIP3   OH2 5177   6.360   5.487   1.280
 1745TIP3    H1 5178   6.366   5.440   1.363
 1745TIP3    H2 5179   6.279   5.456   1.240
 1746TIP3   OH2 5180   4.554   7.606   5.554
 1746TIP3    H1 5181   4.517   7.528   5.514
 1746TIP3    H2 5182   4.533   7.598   5.647
 1747TIP3   OH2 5183   3.116   1.439   0.018
 1747TIP3    H1 5184   3.153   1.524   0.043
 1747TIP3    H2 5185   3.024   1.444   0.043
 1748TIP3   OH2 5186   0.572   7.643   2.552
 1748TIP3    H1 5187   0.594   7.703   2.624
 1748TIP3    H2 5188   0.506   7.691   2.501
 1749TIP3   OH2 5189   0.993   0.083   2.638
 1749TIP3    H1 5190   0.939   0.125   2.705
 1749TIP3    H2 5191   0.932   0.068   2.565
 1750TIP3   OH2 5192   1.428   6.202   5.455
 1750TIP3    H1 5193   1.360   6.218   5.389
 1750TIP3    H2 5194   1.511   6.211   5.407
 1751TIP3   OH2 5195   1.723   0.217   0.362
 1751TIP3    H1 5196   1.670   0.142   0.334
 1751TIP3    H2 5197   1.667   0.264   0.423
 1752TIP3   OH2 5198   4.481   1.376   4.180
 1752TIP3    H1 5199   4.505   1.469   4.184
 1752TIP3    H2 5200   4.562   1.329   4.197
 1753TIP3   OH2 5201   0.382   3.985   4.825
 1753TIP3    H1 5202   0.470   3.968   4.792
 1753TIP3    H2 5203   0.364   4.075   4.800
 1754TIP3   OH2 5204   1.429   0.475   3.287
 1754TIP3    H1 5205   1.436   0.562   3.249
 1754TIP3    H2 5206   1.516   0.437   3.277
 1755TIP3   OH2 5207   7.756   1.720   5.270
 1755TIP3    H1 5208   7.835   1.739   5.321
 1755TIP3    H2 5209   7.692   1.785   5.299
 1756TIP3   OH2 5210   3.442   4.239   1.114
 1756TIP3    H1 5211   3.404   4.164   1.159
 1756TIP3    H2 5212   3.370   4.274   1.061
 1757TIP3   OH2 5213   5.294   5.732   1.148
 1757TIP3    H1 5214   5.346   5.762   1.074
 1757TIP3    H2 5215   5.304   5.800   1.214
 1758TIP3   OH2 5216   6.783   1.744   4.216
 1758TIP3    H1 5217   6.697   1.722   4.253
 1758TIP3    H2 5218   6.780   1.839   4.203
 1759TIP3   OH2 5219   2.213   2.698   3.366
 1759TIP3    H1 5220   2.288   2.675   3.311
 1759TIP3    H2 5221   2.140   2.704   3.306
 1760TIP3   OH2 5222   2.650   5.304   2.089
 1760TIP3    H1 5223   2.566   5.323   2.130
 1760TIP3    H2 5224   2.640   5.217   2.051
 1761TIP3   OH2 5225   1.364   7.140   0.165
 1761TIP3    H1 5226   1.385   7.216   0.218
 1761TIP3    H2 5227   1.376   7.065   0.224
 1762TIP3   OH2 5228   2.543   3.826   4.292
 1762TIP3    H1 5229   2.575   3.748   4.339
 1762TIP3    H2 5230   2.484   3.868   4.354
 1763TIP3   OH2 5231   1.806   7.815   5.837
 1763TIP3    H1 5232   1.807   7.723   5.812
 1763TIP3    H2 5233   1.732   7.823   5.898
 1764TIP3   OH2 5234   3.258   4.828   5.423
 1764TIP3    H1 5235   3.170   4.797   5.400
 1764TIP3    H2 5236   3.257   4.921   5.398
 1765TIP3   OH2 5237   0.838   7.266   0.882
 1765TIP3    H1 5238   0.768   7.290   0.944
 1765TIP3    H2 5239   0.892   7.204   0.931
 1766TIP3   OH2 5240   4.674   4.682   3.141
 1766TIP3    H1 5241   4.673   4.772   3.108
 1766TIP3    H2 5242   4.764   4.653   3.127
 1767TIP3   OH2 5243   2.593   6.197   5.411
 1767TIP3    H1 5244   2.560   6.239   5.490
 1767TIP3    H2 5245   2.519   6.146   5.377
 1768TIP3   OH2 5246   4.121   1.854   4.833
 1768TIP3    H1 5247   4.112   1.796   4.757
 1768TIP3    H2 5248   4.208   1.835   4.867
 1769TIP3   OH2 5249   3.518   5.394   6.560
 1769TIP3    H1 5250   3.502   5.306   6.594
 1769TIP3    H2 5251   3.434   5.438   6.566
 1770TIP3   OH2 5252   1.289   2.127   6.604
 1770TIP3    H1 5253   1.236   2.074   6.545
 1770TIP3    H2 5254   1.234   2.139   6.682
 1771TIP3   OH2 5255   8.173   6.705   4.205
 1771TIP3    H1 5256   8.205   6.733   4.120
 1771TIP3    H2 5257   8.248   6.662   4.246
 1772TIP3   OH2 5258   5.410   5.563   2.513
 1772TIP3    H1 5259   5.386   5.516   2.593
 1772TIP3    H2 5260   5.394   5.655   2.534
 1773TIP3   OH2 5261   3.932   1.185   1.314
 1773TIP3    H1 5262   3.986   1.208   1.239
 1773TIP3    H2 5263   3.994   1.176   1.387
 1774TIP3   OH2 5264   5.367   7.160   5.254
 1774TIP3    H1 5265   5.274   7.139   5.256
 1774TIP3    H2 5266   5.387   7.174   5.161
 1775TIP3   OH2 5267   1.237   3.304   5.127
 1775TIP3    H1 5268   1.208   3.371   5.065
 1775TIP3    H2 5269   1.298   3.250   5.076
 1776TIP3   OH2 5270   6.386   1.181   5.423
 1776TIP3    H1 5271   6.436   1.178   5.342
 1776TIP3    H2 5272   6.431   1.245   5.477
 1777TIP3   OH2 5273   6.522   6.573   6.543
 1777TIP3    H1 5274   6.523   6.648   6.483
 1777TIP3    H2 5275   6.606   6.529   6.528
 1778TIP3   OH2 5276   2.032   0.470   5.328
 1778TIP3    H1 5277   2.031   0.507   5.240
 1778TIP3    H2 5278   1.953   0.415   5.331
 1779TIP3   OH2 5279   5.602   1.827   3.737
 1779TIP3    H1 5280   5.595   1.743   3.691
 1779TIP3    H2 5281   5.564   1.890   3.676
 1780TIP3   OH2 5282   4.865   6.403   6.611
 1780TIP3    H1 5283   4.811   6.402   6.532
 1780TIP3    H2 5284   4.951   6.434   6.581
 1781TIP3   OH2 5285   5.306   4.973   6.335
 1781TIP3    H1 5286   5.301   4.924   6.253
 1781TIP3    H2 5287   5.216   4.979   6.366
 1782TIP3   OH2 5288   1.302   7.488   1.064
 1782TIP3    H1 5289   1.240   7.537   1.010
 1782TIP3    H2 5290   1.282   7.516   1.153
 1783TIP3   OH2 5291   0.623   6.691   2.635
 1783TIP3    H1 5292   0.595   6.737   2.715
 1783TIP3    H2 5293   0.692   6.631   2.665
 1784TIP3   OH2 5294   2.202   5.087   1.229
 1784TIP3    H1 5295   2.200   5.037   1.148
 1784TIP3    H2 5296   2.266   5.156   1.213
 1785TIP3   OH2 5297   4.242   0.349   3.567
 1785TIP3    H1 5298   4.157   0.328   3.528
 1785TIP3    H2 5299   4.289   0.398   3.499
 1786TIP3   OH2 5300   0.838   0.331   5.691
 1786TIP3    H1 5301   0.851   0.242   5.659
 1786TIP3    H2 5302   0.906   0.383   5.647
 1787TIP3   OH2 5303   0.785   5.895   2.966
 1787TIP3    H1 5304   0.867   5.888   2.918
 1787TIP3    H2 5305   0.724   5.936   2.904
 1788TIP3   OH2 5306   3.350   2.517   2.039
 1788TIP3    H1 5307   3.282   2.463   1.998
 1788TIP3    H2 5308   3.425   2.459   2.048
 1789TIP3   OH2 5309   1.123   1.266   1.563
 1789TIP3    H1 5310   1.140   1.339   1.504
 1789TIP3    H2 5311   1.116   1.190   1.505
 1790TIP3   OH2 5312   1.964   7.141   4.171
 1790TIP3    H1 5313   1.911   7.167   4.247
 1790TIP3    H2 5314   2.048   7.184   4.185
 1791TIP3   OH2 5315   7.551   2.512   5.304
 1791TIP3    H1 5316   7.576   2.453   5.376
 1791TIP3    H2 5317   7.542   2.598   5.345
 1792TIP3   OH2 5318   7.906   3.127   0.763
 1792TIP3    H1 5319   7.883   3.197   0.824
 1792TIP3    H2 5320   7.919   3.171   0.679
 1793TIP3   OH2 5321   1.510   0.275   4.806
 1793TIP3    H1 5322   1.538   0.194   4.762
 1793TIP3    H2 5323   1.420   0.289   4.775
 1794TIP3   OH2 5324   4.528   4.663   0.946
 1794TIP3    H1 5325   4.489   4.731   1.000
 1794TIP3    H2 5326   4.564   4.709   0.871
 1795TIP3   OH2 5327   5.580   3.867   2.880
 1795TIP3    H1 5328   5.646   3.827   2.937
 1795TIP3    H2 5329   5.578   3.811   2.802
 1796TIP3   OH2 5330   3.162   3.374   3.659
 1796TIP3    H1 5331   3.216   3.419   3.724
 1796TIP3    H2 5332   3.200   3.286   3.653
 1797TIP3   OH2 5333   6.551   5.755   2.263
 1797TIP3    H1 5334   6.610   5.793   2.198
 1797TIP3    H2 5335   6.490   5.826   2.282
 1798TIP3   OH2 5336   2.156   1.291   6.801
 1798TIP3    H1 5337   2.172   1.204   6.764
 1798TIP3    H2 5338   2.219   1.348   6.757
 1799TIP3   OH2 5339   6.358   7.027   3.630
 1799TIP3    H1 5340   6.339   7.115   3.664
 1799TIP3    H2 5341   6.272   6.988   3.616
 1800TIP3   OH2 5342   2.287   6.996   1.903
 1800TIP3    H1 5343   2.316   7.025   1.989
 1800TIP3    H2 5344   2.339   6.917   1.886
 1801TIP3   OH2 5345   7.963   1.154   5.256
 1801TIP3    H1 5346   7.915   1.169   5.175
 1801TIP3    H2 5347   7.935   1.225   5.314
 1802TIP3   OH2 5348   0.680   0.719   5.473
 1802TIP3    H1 5349   0.665   0.733   5.567
 1802TIP3    H2 5350   0.760   0.769   5.454
 1803TIP3   OH2 5351   5.667   7.323   1.729
 1803TIP3    H1 5352   5.600   7.364   1.784
 1803TIP3    H2 5353   5.655   7.229   1.743
 1804TIP3   OH2 5354   5.376   3.239   5.742
 1804TIP3    H1 5355   5.434   3.288   5.800
 1804TIP3    H2 5356   5.297   3.224   5.794
 1805TIP3   OH2 5357   5.201   1.221   4.420
 1805TIP3    H1 5358   5.181   1.239   4.512
 1805TIP3    H2 5359   5.153   1.287   4.371
 1806TIP3   OH2 5360   5.781   3.146   2.668
 1806TIP3    H1 5361   5.828   3.146   2.752
 1806TIP3    H2 5362   5.727   3.225   2.670
 1807TIP3   OH2 5363   6.722   2.185   1.398
 1807TIP3    H1 5364   6.713   2.124   1.472
 1807TIP3    H2 5365   6.766   2.261   1.436
 1808TIP3   OH2 5366   6.643   7.716   1.707
 1808TIP3    H1 5367   6.578   7.676   1.764
 1808TIP3    H2 5368   6.604   7.712   1.619
 1809TIP3   OH2 5369   3.672   6.335   2.713
 1809TIP3    H1 5370   3.673   6.310   2.621
 1809TIP3    H2 5371   3.644   6.426   2.713
 1810TIP3   OH2 5372   0.835   5.187   0.608
 1810TIP3    H1 5373   0.814   5.231   0.526
 1810TIP3    H2 5374   0.769   5.118   0.616
 1811TIP3   OH2 5375   3.121   1.149   1.297
 1811TIP3    H1 5376   3.063   1.225   1.293
 1811TIP3    H2 5377   3.066   1.080   1.335
 1812TIP3   OH2 5378   7.630   3.156   1.082
 1812TIP3    H1 5379   7.618   3.074   1.033
 1812TIP3    H2 5380   7.636   3.128   1.173
 1813TIP3   OH2 5381   4.409   2.335   5.084
 1813TIP3    H1 5382   4.432   2.303   4.996
 1813TIP3    H2 5383   4.394   2.256   5.135
 1814TIP3   OH2 5384   6.852   0.409   4.925
 1814TIP3    H1 5385   6.893   0.336   4.879
 1814TIP3    H2 5386   6.787   0.369   4.982
 1815TIP3   OH2 5387   7.767   4.822   6.563
 1815TIP3    H1 5388   7.742   4.744   6.513
 1815TIP3    H2 5389   7.863   4.820   6.562
 1816TIP3   OH2 5390   1.036   0.784   4.891
 1816TIP3    H1 5391   0.955   0.742   4.918
 1816TIP3    H2 5392   1.009   0.850   4.827
 1817TIP3   OH2 5393   6.375   2.400   4.076
 1817TIP3    H1 5394   6.445   2.337   4.065
 1817TIP3    H2 5395   6.390   2.465   4.007
 1818TIP3   OH2 5396   4.345   2.068   4.685
 1818TIP3    H1 5397   4.399   2.000   4.644
 1818TIP3    H2 5398   4.308   2.025   4.762
 1819TIP3   OH2 5399   3.391   0.628   5.020
 1819TIP3    H1 5400   3.318   0.668   4.972
 1819TIP3    H2 5401   3.368   0.640   5.112
 1820TIP3   OH2 5402   4.614   1.025   6.114
 1820TIP3    H1 5403   4.525   1.018   6.147
 1820TIP3    H2 5404   4.605   1.066   6.028
 1821TIP3   OH2 5405   6.764   5.701   6.532
 1821TIP3    H1 5406   6.768   5.679   6.439
 1821TIP3    H2 5407   6.807   5.786   6.538
 1822TIP3   OH2 5408   1.731   3.807   5.575
 1822TIP3    H1 5409   1.713   3.714   5.559
 1822TIP3    H2 5410   1.746   3.843   5.487
 1823TIP3   OH2 5411   1.867   4.620   3.543
 1823TIP3    H1 5412   1.830   4.538   3.575
 1823TIP3    H2 5413   1.841   4.685   3.608
 1824TIP3   OH2 5414   0.575   5.944   0.623
 1824TIP3    H1 5415   0.633   5.926   0.696
 1824TIP3    H2 5416   0.556   5.859   0.584
 1825TIP3   OH2 5417   0.943   5.383   3.582
 1825TIP3    H1 5418   0.899   5.434   3.650
 1825TIP3    H2 5419   0.891   5.303   3.575
 1826TIP3   OH2 5420   1.133   4.445   3.397
 1826TIP3    H1 5421   1.195   4.453   3.325
 1826TIP3    H2 5422   1.074   4.375   3.370
 1827TIP3   OH2 5423   6.510   4.090   4.151
 1827TIP3    H1 5424   6.423   4.081   4.191
 1827TIP3    H2 5425   6.532   4.182   4.163
 1828TIP3   OH2 5426   2.697   5.969   4.740
 1828TIP3    H1 5427   2.638   5.910   4.695
 1828TIP3    H2 5428   2.784   5.946   4.707
 1829TIP3   OH2 5429   0.153   3.124   4.931
 1829TIP3    H1 5430   0.103   3.055   4.886
 1829TIP3    H2 5431   0.088   3.174   4.979
 1830TIP3   OH2 5432   1.642   4.666   5.950
 1830TIP3    H1 5433   1.604   4.744   5.908
 1830TIP3    H2 5434   1.703   4.632   5.885
 1831TIP3   OH2 5435   5.998   5.695   3.638
 1831TIP3    H1 5436   5.931   5.710   3.703
 1831TIP3    H2 5437   6.081   5.706   3.685
 1832TIP3   OH2 5438   5.460   1.989   0.369
 1832TIP3    H1 5439   5.554   1.980   0.382
 1832TIP3    H2 5440   5.438   1.917   0.309
 1833TIP3   OH2 5441   3.400   7.793   6.550
 1833TIP3    H1 5442   3.468   7.811   6.484
 1833TIP3    H2 5443   3.346   7.872   6.550
 1834TIP3   OH2 5444   6.568   0.885   5.825
 1834TIP3    H1 5445   6.614   0.919   5.748
 1834TIP3    H2 5446   6.590   0.792   5.827
 1835TIP3   OH2 5447   7.249   0.350   4.950
 1835TIP3    H1 5448   7.197   0.270   4.962
 1835TIP3    H2 5449   7.309   0.330   4.878
 1836TIP3   OH2 5450   3.603   1.059   5.611
 1836TIP3    H1 5451   3.511   1.081   5.595
 1836TIP3    H2 5452   3.623   0.994   5.544
 1837TIP3   OH2 5453   0.422   1.566   6.269
 1837TIP3    H1 5454   0.494   1.515   6.306
 1837TIP3    H2 5455   0.421   1.542   6.177
 1838TIP3   OH2 5456   8.200   4.527   1.009
 1838TIP3    H1 5457   8.220   4.616   1.038
 1838TIP3    H2 5458   8.228   4.472   1.082
 1839TIP3   OH2 5459   4.839   6.018   0.411
 1839TIP3    H1 5460   4.912   6.047   0.358
 1839TIP3    H2 5461   4.823   6.089   0.473
 1840TIP3   OH2 5462   6.138   2.097   5.513
 1840TIP3    H1 5463   6.210   2.036   5.530
 1840TIP3    H2 5464   6.181   2.174   5.476
 1841TIP3   OH2 5465   6.418   3.015   3.508
 1841TIP3    H1 5466   6.497   3.003   3.561
 1841TIP3    H2 5467   6.441   2.977   3.423
 1842TIP3   OH2 5468   3.455   3.818   4.426
 1842TIP3    H1 5469   3.515   3.764   4.375
 1842TIP3    H2 5470   3.511   3.880   4.472
 1843TIP3   OH2 5471   1.476   0.091   1.793
 1843TIP3    H1 5472   1.393   0.117   1.754
 1843TIP3    H2 5473   1.530   0.064   1.718
 1844TIP3   OH2 5474   5.309   0.402   0.150
 1844TIP3    H1 5475   5.238   0.397   0.214
 1844TIP3    H2 5476   5.268   0.374   0.068
 1845TIP3   OH2 5477   6.967   4.886   3.001
 1845TIP3    H1 5478   6.878   4.876   2.968
 1845TIP3    H2 5479   7.017   4.817   2.958
 1846TIP3   OH2 5480   3.782   3.093   4.061
 1846TIP3    H1 5481   3.779   3.147   4.140
 1846TIP3    H2 5482   3.737   3.012   4.085
 1847TIP3   OH2 5483   3.479   4.860   3.367
 1847TIP3    H1 5484   3.553   4.852   3.427
 1847TIP3    H2 5485   3.423   4.926   3.407
 1848TIP3   OH2 5486   6.317   5.805   5.208
 1848TIP3    H1 5487   6.323   5.718   5.167
 1848TIP3    H2 5488   6.223   5.815   5.227
 1849TIP3   OH2 5489   7.427   5.578   4.282
 1849TIP3    H1 5490   7.370   5.513   4.242
 1849TIP3    H2 5491   7.501   5.586   4.222
 1850TIP3   OH2 5492   5.033   7.681   3.877
 1850TIP3    H1 5493   4.963   7.743   3.896
 1850TIP3    H2 5494   5.114   7.731   3.890
 1851TIP3   OH2 5495   0.092   0.312   6.709
 1851TIP3    H1 5496   0.136   0.246   6.656
 1851TIP3    H2 5497   0.121   0.396   6.672
 1852TIP3   OH2 5498   2.397   0.963   2.217
 1852TIP3    H1 5499   2.373   0.935   2.306
 1852TIP3    H2 5500   2.401   0.882   2.167
 1853TIP3   OH2 5501   6.152   3.057   6.148
 1853TIP3    H1 5502   6.102   3.080   6.226
 1853TIP3    H2 5503   6.139   3.131   6.088
 1854TIP3   OH2 5504   7.812   3.999   1.998
 1854TIP3    H1 5505   7.749   3.969   1.932
 1854TIP3    H2 5506   7.833   4.089   1.970
 1855TIP3   OH2 5507   1.492   1.165   2.832
 1855TIP3    H1 5508   1.413   1.217   2.819
 1855TIP3    H2 5509   1.562   1.230   2.842
 1856TIP3   OH2 5510   4.592   3.387   0.127
 1856TIP3    H1 5511   4.639   3.360   0.206
 1856TIP3    H2 5512   4.520   3.441   0.159
 1857TIP3   OH2 5513   3.883   1.482   5.356
 1857TIP3    H1 5514   3.837   1.549   5.406
 1857TIP3    H2 5515   3.957   1.527   5.316
 1858TIP3   OH2 5516   4.830   6.466   4.902
 1858TIP3    H1 5517   4.866   6.467   4.813
 1858TIP3    H2 5518   4.768   6.392   4.902
 1859TIP3   OH2 5519   3.367   2.108   5.139
 1859TIP3    H1 5520   3.409   2.032   5.179
 1859TIP3    H2 5521   3.410   2.183   5.180
 1860TIP3   OH2 5522   5.312   1.824   0.879
 1860TIP3    H1 5523   5.367   1.839   0.802
 1860TIP3    H2 5524   5.334   1.895   0.939
 1861TIP3   OH2 5525   1.553   3.512   3.035
 1861TIP3    H1 5526   1.569   3.472   2.950
 1861TIP3    H2 5527   1.460   3.494   3.053
 1862TIP3   OH2 5528   0.221   2.648   6.284
 1862TIP3    H1 5529   0.292   2.693   6.238
 1862TIP3    H2 5530   0.231   2.676   6.375
 1863TIP3   OH2 5531   7.832   2.718   5.593
 1863TIP3    H1 5532   7.778   2.781   5.547
 1863TIP3    H2 5533   7.771   2.670   5.649
 1864TIP3   OH2 5534   3.005   3.772   6.628
 1864TIP3    H1 5535   2.973   3.702   6.571
 1864TIP3    H2 5536   2.991   3.852   6.578
 1865TIP3   OH2 5537   2.405   7.172   3.029
 1865TIP3    H1 5538   2.487   7.149   3.074
 1865TIP3    H2 5539   2.420   7.260   2.995
 1866TIP3   OH2 5540   6.576   1.342   0.280
 1866TIP3    H1 5541   6.541   1.263   0.238
 1866TIP3    H2 5542   6.504   1.376   0.333
 1867TIP3   OH2 5543   4.633   1.296   5.280
 1867TIP3    H1 5544   4.556   1.314   5.228
 1867TIP3    H2 5545   4.599   1.269   5.366
 1868TIP3   OH2 5546   5.120   2.725   1.109
 1868TIP3    H1 5547   5.123   2.781   1.031
 1868TIP3    H2 5548   5.108   2.785   1.182
 1869TIP3   OH2 5549   0.652   3.853   2.995
 1869TIP3    H1 5550   0.641   3.758   2.994
 1869TIP3    H2 5551   0.566   3.887   2.971
 1870TIP3   OH2 5552   3.976   4.328   0.399
 1870TIP3    H1 5553   4.032   4.405   0.394
 1870TIP3    H2 5554   3.906   4.345   0.336
 1871TIP3   OH2 5555   6.862   2.971   0.724
 1871TIP3    H1 5556   6.910   2.968   0.807
 1871TIP3    H2 5557   6.828   2.882   0.714
 1872TIP3   OH2 5558   1.158   0.126   1.872
 1872TIP3    H1 5559   1.156   0.054   1.935
 1872TIP3    H2 5560   1.141   0.084   1.787
 1873TIP3   OH2 5561   8.194   0.519   6.090
 1873TIP3    H1 5562   8.209   0.555   6.002
 1873TIP3    H2 5563   8.266   0.554   6.143
 1874TIP3   OH2 5564   6.883   6.866   0.562
 1874TIP3    H1 5565   6.910   6.802   0.628
 1874TIP3    H2 5566   6.938   6.847   0.486
 1875TIP3   OH2 5567   4.436   2.271   2.265
 1875TIP3    H1 5568   4.357   2.276   2.320
 1875TIP3    H2 5569   4.409   2.308   2.181
 1876TIP3   OH2 5570   1.860   2.767   5.908
 1876TIP3    H1 5571   1.846   2.743   5.999
 1876TIP3    H2 5572   1.772   2.779   5.872
 1877TIP3   OH2 5573   2.852   0.112   4.265
 1877TIP3    H1 5574   2.844   0.167   4.343
 1877TIP3    H2 5575   2.945   0.088   4.262
 1878TIP3   OH2 5576   2.945   1.418   0.798
 1878TIP3    H1 5577   2.864   1.450   0.760
 1878TIP3    H2 5578   2.957   1.331   0.759
 1879TIP3   OH2 5579   3.198   0.165   3.263
 1879TIP3    H1 5580   3.249   0.165   3.344
 1879TIP3    H2 5581   3.146   0.084   3.267
 1880TIP3   OH2 5582   0.830   5.027   6.667
 1880TIP3    H1 5583   0.753   5.078   6.691
 1880TIP3    H2 5584   0.798   4.966   6.599
 1881TIP3   OH2 5585   2.192   6.233   0.619
 1881TIP3    H1 5586   2.117   6.228   0.559
 1881TIP3    H2 5587   2.183   6.155   0.674
 1882TIP3   OH2 5588   0.479   3.853   2.523
 1882TIP3    H1 5589   0.519   3.933   2.559
 1882TIP3    H2 5590   0.491   3.861   2.429
 1883TIP3   OH2 5591   3.604   1.777   4.352
 1883TIP3    H1 5592   3.518   1.734   4.359
 1883TIP3    H2 5593   3.650   1.728   4.284
 1884TIP3   OH2 5594   6.035   5.456   1.762
 1884TIP3    H1 5595   5.967   5.485   1.822
 1884TIP3    H2 5596   6.059   5.534   1.712
 1885TIP3   OH2 5597   4.767   7.025   0.712
 1885TIP3    H1 5598   4.673   7.009   0.722
 1885TIP3    H2 5599   4.806   6.992   0.792
 1886TIP3   OH2 5600   0.551   3.399   4.216
 1886TIP3    H1 5601   0.490   3.421   4.146
 1886TIP3    H2 5602   0.538   3.468   4.282
 1887TIP3   OH2 5603   5.460   1.342   2.622
 1887TIP3    H1 5604   5.420   1.380   2.700
 1887TIP3    H2 5605   5.522   1.277   2.655
 1888TIP3   OH2 5606   2.784   3.824   0.744
 1888TIP3    H1 5607   2.764   3.856   0.832
 1888TIP3    H2 5608   2.771   3.729   0.749
 1889TIP3   OH2 5609   0.228   0.890   0.283
 1889TIP3    H1 5610   0.230   0.832   0.207
 1889TIP3    H2 5611   0.320   0.905   0.304
 1890TIP3   OH2 5612   4.251   4.314   0.798
 1890TIP3    H1 5613   4.338   4.289   0.766
 1890TIP3    H2 5614   4.266   4.396   0.845
 1891TIP3   OH2 5615   2.305   5.828   2.970
 1891TIP3    H1 5616   2.262   5.844   3.054
 1891TIP3    H2 5617   2.234   5.819   2.907
 1892TIP3   OH2 5618   7.830   6.410   3.377
 1892TIP3    H1 5619   7.843   6.421   3.283
 1892TIP3    H2 5620   7.904   6.455   3.418
 1893TIP3   OH2 5621   6.946   0.335   6.299
 1893TIP3    H1 5622   6.948   0.346   6.394
 1893TIP3    H2 5623   6.858   0.303   6.280
 1894TIP3   OH2 5624   8.163   1.406   4.221
 1894TIP3    H1 5625   8.186   1.315   4.237
 1894TIP3    H2 5626   8.238   1.456   4.253
 1895TIP3   OH2 5627   3.406   2.380   2.925
 1895TIP3    H1 5628   3.369   2.441   2.861
 1895TIP3    H2 5629   3.469   2.328   2.875
 1896TIP3   OH2 5630   3.208   5.283   4.190
 1896TIP3    H1 5631   3.298   5.253   4.181
 1896TIP3    H2 5632   3.159   5.232   4.125
 1897TIP3   OH2 5633   0.780   2.900   4.715
 1897TIP3    H1 5634   0.786   2.893   4.620
 1897TIP3    H2 5635   0.726   2.977   4.731
 1898TIP3   OH2 5636   1.100   7.588   5.813
 1898TIP3    H1 5637   1.193   7.569   5.817
 1898TIP3    H2 5638   1.068   7.573   5.903
 1899TIP3   OH2 5639   3.003   3.547   0.159
 1899TIP3    H1 5640   2.944   3.524   0.231
 1899TIP3    H2 5641   3.038   3.633   0.184
 1900TIP3   OH2 5642   0.789   4.494   0.478
 1900TIP3    H1 5643   0.713   4.462   0.429
 1900TIP3    H2 5644   0.778   4.589   0.479
 1901TIP3   OH2 5645   7.023   5.510   4.794
 1901TIP3    H1 5646   7.097   5.556   4.753
 1901TIP3    H2 5647   6.969   5.481   4.721
 1902TIP3   OH2 5648   4.995   6.085   0.873
 1902TIP3    H1 5649   5.057   6.027   0.830
 1902TIP3    H2 5650   4.909   6.050   0.851
 1903TIP3   OH2 5651   5.433   0.696   6.360
 1903TIP3    H1 5652   5.448   0.626   6.423
 1903TIP3    H2 5653   5.343   0.725   6.378
 1904TIP3   OH2 5654   5.749   5.866   0.947
 1904TIP3    H1 5655   5.690   5.873   0.872
 1904TIP3    H2 5656   5.695   5.890   1.022
 1905TIP3   OH2 5657   5.765   3.235   1.560
 1905TIP3    H1 5658   5.713   3.282   1.625
 1905TIP3    H2 5659   5.847   3.284   1.555
 1906TIP3   OH2 5660   2.319   0.148   5.396
 1906TIP3    H1 5661   2.275   0.216   5.345
 1906TIP3    H2 5662   2.412   0.160   5.378
 1907TIP3   OH2 5663  -0.005   6.743   3.930
 1907TIP3    H1 5664   0.082   6.770   3.899
 1907TIP3    H2 5665  -0.023   6.662   3.883
 1908TIP3   OH2 5666   2.319   0.398   3.433
 1908TIP3    H1 5667   2.329   0.492   3.445
 1908TIP3    H2 5668   2.329   0.385   3.339
 1909TIP3   OH2 5669   7.201   2.892   6.309
 1909TIP3    H1 5670   7.135   2.828   6.283
 1909TIP3    H2 5671   7.178   2.972   6.261
 1910TIP3   OH2 5672   5.242   0.333   6.562
 1910TIP3    H1 5673   5.176   0.375   6.506
 1910TIP3    H2 5674   5.237   0.240   6.539
 1911TIP3   OH2 5675   0.735   1.852   1.437
 1911TIP3    H1 5676   0.748   1.758   1.428
 1911TIP3    H2 5677   0.728   1.866   1.532
 1912TIP3   OH2 5678   4.296   4.193   6.726
 1912TIP3    H1 5679   4.254   4.261   6.778
 1912TIP3    H2 5680   4.260   4.111   6.760
 1913TIP3   OH2 5681   7.902   6.555   4.558
 1913TIP3    H1 5682   7.880   6.552   4.651
 1913TIP3    H2 5683   7.966   6.485   4.547
 1914TIP3   OH2 5684   7.039   5.092   6.277
 1914TIP3    H1 5685   7.103   5.077   6.347
 1914TIP3    H2 5686   6.968   5.031   6.296
 1915TIP3   OH2 5687   1.459   0.661   2.078
 1915TIP3    H1 5688   1.434   0.635   2.167
 1915TIP3    H2 5689   1.453   0.757   2.079
 1916TIP3   OH2 5690   3.268   4.353   3.384
 1916TIP3    H1 5691   3.212   4.385   3.455
 1916TIP3    H2 5692   3.356   4.355   3.421
 1917TIP3   OH2 5693   0.629   6.976   4.128
 1917TIP3    H1 5694   0.595   6.890   4.105
 1917TIP3    H2 5695   0.648   6.970   4.221
 1918TIP3   OH2 5696   5.072   3.700   1.320
 1918TIP3    H1 5697   5.160   3.727   1.293
 1918TIP3    H2 5698   5.079   3.687   1.414
 1919TIP3   OH2 5699   1.721   2.697   6.151
 1919TIP3    H1 5700   1.663   2.650   6.211
 1919TIP3    H2 5701   1.688   2.787   6.153
 1920TIP3   OH2 5702   4.106   6.387   2.507
 1920TIP3    H1 5703   4.194   6.399   2.472
 1920TIP3    H2 5704   4.070   6.476   2.513
 1921TIP3   OH2 5705   6.376   5.516   3.994
 1921TIP3    H1 5706   6.375   5.572   3.917
 1921TIP3    H2 5707   6.439   5.447   3.973
 1922TIP3   OH2 5708   3.309   2.313   4.626
 1922TIP3    H1 5709   3.312   2.218   4.613
 1922TIP3    H2 5710   3.350   2.350   4.548
 1923TIP3   OH2 5711   1.612   6.680   1.095
 1923TIP3    H1 5712   1.567   6.748   1.145
 1923TIP3    H2 5713   1.604   6.709   1.004
 1924TIP3   OH2 5714   4.404   4.123   2.265
 1924TIP3    H1 5715   4.450   4.092   2.343
 1924TIP3    H2 5716   4.427   4.216   2.259
 1925TIP3   OH2 5717   2.110   7.737   3.293
 1925TIP3    H1 5718   2.123   7.830   3.315
 1925TIP3    H2 5719   2.198   7.704   3.274
 1926TIP3   OH2 5720   7.615   2.506   6.765
 1926TIP3    H1 5721   7.646   2.584   6.810
 1926TIP3    H2 5722   7.695   2.464   6.731
 1927TIP3   OH2 5723   8.073   2.481   3.405
 1927TIP3    H1 5724   8.137   2.410   3.420
 1927TIP3    H2 5725   8.110   2.531   3.332
 1928TIP3   OH2 5726   1.550   1.523   1.027
 1928TIP3    H1 5727   1.602   1.460   1.076
 1928TIP3    H2 5728   1.586   1.521   0.938
 1929TIP3   OH2 5729   6.966   5.514   3.022
 1929TIP3    H1 5730   6.998   5.492   2.934
 1929TIP3    H2 5731   6.871   5.509   3.015
 1930TIP3   OH2 5732   4.641   4.230   0.300
 1930TIP3    H1 5733   4.687   4.297   0.249
 1930TIP3    H2 5734   4.567   4.204   0.244
 1931TIP3   OH2 5735   0.705   3.597   0.387
 1931TIP3    H1 5736   0.679   3.684   0.356
 1931TIP3    H2 5737   0.635   3.571   0.447
 1932TIP3   OH2 5738   0.293   6.061   1.015
 1932TIP3    H1 5739   0.341   6.142   1.032
 1932TIP3    H2 5740   0.204   6.078   1.046
 1933TIP3   OH2 5741   6.924   1.609   0.192
 1933TIP3    H1 5742   6.997   1.548   0.201
 1933TIP3    H2 5743   6.875   1.576   0.117
 1934TIP3   OH2 5744   7.854   7.277   4.953
 1934TIP3    H1 5745   7.872   7.191   4.991
 1934TIP3    H2 5746   7.791   7.317   5.013
 1935TIP3   OH2 5747   0.835   0.419   3.389
 1935TIP3    H1 5748   0.872   0.436   3.476
 1935TIP3    H2 5749   0.837   0.324   3.381
 1936TIP3   OH2 5750   3.861   2.626   4.904
 1936TIP3    H1 5751   3.838   2.684   4.976
 1936TIP3    H2 5752   3.777   2.590   4.875
 1937TIP3   OH2 5753   6.893   6.410   2.632
 1937TIP3    H1 5754   6.947   6.366   2.567
 1937TIP3    H2 5755   6.847   6.339   2.677
 1938TIP3   OH2 5756   6.118   1.149   2.973
 1938TIP3    H1 5757   6.180   1.083   3.003
 1938TIP3    H2 5758   6.035   1.124   3.013
 1939TIP3   OH2 5759   0.259   4.024   0.856
 1939TIP3    H1 5760   0.208   4.061   0.784
 1939TIP3    H2 5761   0.298   4.100   0.899
 1940TIP3   OH2 5762   2.008   6.441   5.194
 1940TIP3    H1 5763   1.995   6.350   5.168
 1940TIP3    H2 5764   2.010   6.438   5.290
 1941TIP3   OH2 5765   0.660   7.825   6.526
 1941TIP3    H1 5766   0.601   7.820   6.451
 1941TIP3    H2 5767   0.729   7.885   6.499
 1942TIP3   OH2 5768   3.190   4.875   2.093
 1942TIP3    H1 5769   3.274   4.864   2.049
 1942TIP3    H2 5770   3.125   4.872   2.023
 1943TIP3   OH2 5771   6.135   6.196   3.776
 1943TIP3    H1 5772   6.050   6.222   3.811
 1943TIP3    H2 5773   6.115   6.131   3.709
 1944TIP3   OH2 5774   3.777   4.764   2.561
 1944TIP3    H1 5775   3.705   4.821   2.587
 1944TIP3    H2 5776   3.856   4.811   2.590
 1945TIP3   OH2 5777   1.790   7.144   2.497
 1945TIP3    H1 5778   1.744   7.200   2.434
 1945TIP3    H2 5779   1.741   7.154   2.579
 1946TIP3   OH2 5780   5.170   6.438   6.093
 1946TIP3    H1 5781   5.173   6.378   6.019
 1946TIP3    H2 5782   5.252   6.488   6.087
 1947TIP3   OH2 5783   7.331   0.197   0.651
 1947TIP3    H1 5784   7.383   0.227   0.726
 1947TIP3    H2 5785   7.351   0.259   0.581
 1948TIP3   OH2 5786   3.400   1.708   1.980
 1948TIP3    H1 5787   3.375   1.764   1.907
 1948TIP3    H2 5788   3.370   1.621   1.954
 1949TIP3   OH2 5789   7.818   1.480   4.408
 1949TIP3    H1 5790   7.863   1.413   4.458
 1949TIP3    H2 5791   7.821   1.450   4.318
 1950TIP3   OH2 5792   0.605   0.040   5.910
 1950TIP3    H1 5793   0.581  -0.042   5.954
 1950TIP3    H2 5794   0.599   0.020   5.817
 1951TIP3   OH2 5795   8.063   0.142   5.674
 1951TIP3    H1 5796   7.986   0.144   5.617
 1951TIP3    H2 5797   8.084   0.049   5.682
 1952TIP3   OH2 5798   1.489   2.489   4.861
 1952TIP3    H1 5799   1.398   2.482   4.891
 1952TIP3    H2 5800   1.483   2.496   4.766
 1953TIP3   OH2 5801   6.314   7.257   3.803
 1953TIP3    H1 5802   6.346   7.343   3.776
 1953TIP3    H2 5803   6.225   7.273   3.834
 1954TIP3   OH2 5804   7.333   3.005   5.432
 1954TIP3    H1 5805   7.294   2.975   5.514
 1954TIP3    H2 5806   7.303   3.095   5.422
 1955TIP3   OH2 5807   8.054   0.804   5.707
 1955TIP3    H1 5808   8.081   0.746   5.636
 1955TIP3    H2 5809   8.037   0.888   5.665
 1956TIP3   OH2 5810   4.844   0.762   1.320
 1956TIP3    H1 5811   4.917   0.815   1.287
 1956TIP3    H2 5812   4.844   0.777   1.414
 1957TIP3   OH2 5813   3.412   5.452   0.761
 1957TIP3    H1 5814   3.335   5.481   0.811
 1957TIP3    H2 5815   3.425   5.361   0.789
 1958TIP3   OH2 5816   2.423   0.395   4.775
 1958TIP3    H1 5817   2.384   0.458   4.835
 1958TIP3    H2 5818   2.428   0.441   4.691
 1959TIP3   OH2 5819   2.788   3.019   2.028
 1959TIP3    H1 5820   2.798   3.080   2.101
 1959TIP3    H2 5821   2.849   3.051   1.962
 1960TIP3   OH2 5822   5.825   4.508   6.323
 1960TIP3    H1 5823   5.787   4.563   6.392
 1960TIP3    H2 5824   5.900   4.465   6.366
 1961TIP3   OH2 5825   5.010   0.554   2.429
 1961TIP3    H1 5826   4.945   0.623   2.419
 1961TIP3    H2 5827   4.964   0.474   2.404
 1962TIP3   OH2 5828   5.895   3.554   5.766
 1962TIP3    H1 5829   5.979   3.517   5.793
 1962TIP3    H2 5830   5.858   3.590   5.847
 1963TIP3   OH2 5831   6.692   6.645   1.946
 1963TIP3    H1 5832   6.676   6.708   2.017
 1963TIP3    H2 5833   6.680   6.559   1.988
 1964TIP3   OH2 5834   3.994   6.767   2.350
 1964TIP3    H1 5835   3.953   6.837   2.402
 1964TIP3    H2 5836   3.935   6.692   2.361
 1965TIP3   OH2 5837   3.345   5.164   4.539
 1965TIP3    H1 5838   3.320   5.234   4.600
 1965TIP3    H2 5839   3.294   5.088   4.568
 1966TIP3   OH2 5840   1.503   4.177   6.738
 1966TIP3    H1 5841   1.519   4.134   6.654
 1966TIP3    H2 5842   1.578   4.152   6.792
 1967TIP3   OH2 5843   3.601   4.344   3.336
 1967TIP3    H1 5844   3.606   4.377   3.426
 1967TIP3    H2 5845   3.532   4.396   3.295
 1968TIP3   OH2 5846   4.145   7.784   2.138
 1968TIP3    H1 5847   4.081   7.744   2.196
 1968TIP3    H2 5848   4.098   7.796   2.055
 1969TIP3   OH2 5849   2.146   0.459   3.691
 1969TIP3    H1 5850   2.151   0.554   3.700
 1969TIP3    H2 5851   2.169   0.426   3.778
 1970TIP3   OH2 5852   6.952   7.400   2.265
 1970TIP3    H1 5853   6.995   7.359   2.190
 1970TIP3    H2 5854   6.901   7.472   2.227
 1971TIP3   OH2 5855   0.102   0.594   3.975
 1971TIP3    H1 5856   0.048   0.571   3.899
 1971TIP3    H2 5857   0.053   0.663   4.019
 1972TIP3   OH2 5858   5.276   7.202   0.297
 1972TIP3    H1 5859   5.182   7.192   0.279
 1972TIP3    H2 5860   5.282   7.202   0.393
 1973TIP3   OH2 5861   5.781   2.410   3.101
 1973TIP3    H1 5862   5.867   2.405   3.142
 1973TIP3    H2 5863   5.750   2.498   3.120
 1974TIP3   OH2 5864   2.447   3.166   0.206
 1974TIP3    H1 5865   2.467   3.240   0.263
 1974TIP3    H2 5866   2.359   3.185   0.173
 1975TIP3   OH2 5867   1.927   3.612   2.792
 1975TIP3    H1 5868   1.968   3.552   2.855
 1975TIP3    H2 5869   1.880   3.675   2.847
 1976TIP3   OH2 5870   0.356   6.260   0.530
 1976TIP3    H1 5871   0.436   6.221   0.495
 1976TIP3    H2 5872   0.369   6.259   0.625
 1977TIP3   OH2 5873   3.522   7.022   1.329
 1977TIP3    H1 5874   3.464   7.057   1.397
 1977TIP3    H2 5875   3.468   6.961   1.280
 1978TIP3   OH2 5876   3.337   6.993   5.485
 1978TIP3    H1 5877   3.296   6.926   5.429
 1978TIP3    H2 5878   3.269   7.015   5.549
 1979TIP3   OH2 5879   0.667   5.267   0.954
 1979TIP3    H1 5880   0.682   5.173   0.943
 1979TIP3    H2 5881   0.580   5.272   0.994
 1980TIP3   OH2 5882   5.047   1.983   5.599
 1980TIP3    H1 5883   5.100   2.050   5.555
 1980TIP3    H2 5884   5.078   1.984   5.690
 1981TIP3   OH2 5885   0.602   5.853   5.264
 1981TIP3    H1 5886   0.606   5.885   5.354
 1981TIP3    H2 5887   0.694   5.836   5.240
 1982TIP3   OH2 5888   3.148   6.114   3.510
 1982TIP3    H1 5889   3.156   6.062   3.590
 1982TIP3    H2 5890   3.237   6.138   3.489
 1983TIP3   OH2 5891   4.055   3.047   2.343
 1983TIP3    H1 5892   4.096   2.965   2.368
 1983TIP3    H2 5893   4.128   3.108   2.330
 1984TIP3   OH2 5894   6.129   2.321   4.802
 1984TIP3    H1 5895   6.106   2.231   4.779
 1984TIP3    H2 5896   6.104   2.330   4.894
 1985TIP3   OH2 5897   7.632   1.112   3.084
 1985TIP3    H1 5898   7.640   1.110   2.988
 1985TIP3    H2 5899   7.719   1.090   3.116
 1986TIP3   OH2 5900   0.055   6.713   2.581
 1986TIP3    H1 5901   0.008   6.715   2.664
 1986TIP3    H2 5902   0.146   6.731   2.605
 1987TIP3   OH2 5903   0.451   2.197   1.626
 1987TIP3    H1 5904   0.535   2.171   1.663
 1987TIP3    H2 5905   0.459   2.291   1.612
 1988TIP3   OH2 5906   1.102   6.597   1.321
 1988TIP3    H1 5907   1.151   6.522   1.287
 1988TIP3    H2 5908   1.013   6.565   1.332
 1989TIP3   OH2 5909   6.488   2.956   6.633
 1989TIP3    H1 5910   6.439   2.895   6.579
 1989TIP3    H2 5911   6.426   2.984   6.701
 1990TIP3   OH2 5912   8.216   0.872   1.969
 1990TIP3    H1 5913   8.261   0.956   1.983
 1990TIP3    H2 5914   8.173   0.854   2.052
 1991TIP3   OH2 5915   2.224   1.800   5.673
 1991TIP3    H1 5916   2.257   1.862   5.737
 1991TIP3    H2 5917   2.227   1.715   5.718
 1992TIP3   OH2 5918   6.502   2.000   1.161
 1992TIP3    H1 5919   6.456   2.057   1.222
 1992TIP3    H2 5920   6.586   2.044   1.145
 1993TIP3   OH2 5921   5.887   5.933   4.614
 1993TIP3    H1 5922   5.842   5.893   4.687
 1993TIP3    H2 5923   5.979   5.912   4.628
 1994TIP3   OH2 5924   2.439   3.871   2.677
 1994TIP3    H1 5925   2.359   3.879   2.729
 1994TIP3    H2 5926   2.450   3.777   2.664
 1995TIP3   OH2 5927   6.596   0.996   4.483
 1995TIP3    H1 5928   6.528   0.965   4.542
 1995TIP3    H2 5929   6.566   0.969   4.396
 1996TIP3   OH2 5930   3.207   6.380   2.227
 1996TIP3    H1 5931   3.238   6.362   2.139
 1996TIP3    H2 5932   3.113   6.362   2.223
 1997TIP3   OH2 5933   0.514   6.080   1.911
 1997TIP3    H1 5934   0.553   6.120   1.989
 1997TIP3    H2 5935   0.420   6.093   1.922
 1998TIP3   OH2 5936   5.274   4.195   2.355
 1998TIP3    H1 5937   5.316   4.127   2.408
 1998TIP3    H2 5938   5.312   4.277   2.387
 1999TIP3   OH2 5939   0.081   7.619   2.220
 1999TIP3    H1 5940   0.069   7.577   2.305
 1999TIP3    H2 5941   0.066   7.549   2.156
 2000TIP3   OH2 5942   8.229   0.902   6.046
 2000TIP3    H1 5943   8.298   0.872   5.986
 2000TIP3    H2 5944   8.175   0.824   6.060
 2001TIP3   OH2 5945   1.467   3.157   2.042
 2001TIP3    H1 5946   1.462   3.139   2.136
 2001TIP3    H2 5947   1.515   3.082   2.006
 2002TIP3   OH2 5948   4.619   1.919   0.404
 2002TIP3    H1 5949   4.548   1.862   0.431
 2002TIP3    H2 5950   4.699   1.868   0.420
 2003TIP3   OH2 5951   3.883   1.883   6.427
 2003TIP3    H1 5952   3.826   1.960   6.429
 2003TIP3    H2 5953   3.865   1.842   6.342
 2004TIP3   OH2 5954   6.027   2.772   5.359
 2004TIP3    H1 5955   6.025   2.677   5.372
 2004TIP3    H2 5956   6.114   2.798   5.390
 2005TIP3   OH2 5957   1.899   5.307   5.179
 2005TIP3    H1 5958   1.972   5.324   5.120
 2005TIP3    H2 5959   1.840   5.381   5.167
 2006TIP3   OH2 5960   3.510   1.165   5.060
 2006TIP3    H1 5961   3.557   1.158   5.143
 2006TIP3    H2 5962   3.520   1.079   5.020
 2007TIP3   OH2 5963   6.631   2.760   0.191
 2007TIP3    H1 5964   6.541   2.733   0.172
 2007TIP3    H2 5965   6.685   2.685   0.165
 2008TIP3   OH2 5966   6.560   7.020   2.350
 2008TIP3    H1 5967   6.626   7.052   2.412
 2008TIP3    H2 5968   6.478   7.022   2.400
 2009TIP3   OH2 5969   1.903   2.780   0.577
 2009TIP3    H1 5970   1.928   2.789   0.669
 2009TIP3    H2 5971   1.973   2.726   0.539
 2010TIP3   OH2 5972   0.550   3.845   5.697
 2010TIP3    H1 5973   0.509   3.908   5.756
 2010TIP3    H2 5974   0.550   3.763   5.747
 2011TIP3   OH2 5975   1.663   6.779   5.209
 2011TIP3    H1 5976   1.660   6.806   5.117
 2011TIP3    H2 5977   1.602   6.705   5.213
 2012TIP3   OH2 5978   2.076   4.135   5.394
 2012TIP3    H1 5979   2.113   4.123   5.306
 2012TIP3    H2 5980   2.056   4.046   5.424
 2013TIP3   OH2 5981   5.677   5.407   2.318
 2013TIP3    H1 5982   5.628   5.482   2.284
 2013TIP3    H2 5983   5.764   5.415   2.277
 2014TIP3   OH2 5984   5.409   1.127   2.974
 2014TIP3    H1 5985   5.425   1.044   2.928
 2014TIP3    H2 5986   5.367   1.101   3.056
 2015TIP3   OH2 5987   1.512   1.104   3.259
 2015TIP3    H1 5988   1.508   1.023   3.310
 2015TIP3    H2 5989   1.605   1.121   3.248
 2016TIP3   OH2 5990   2.775   0.832   0.465
 2016TIP3    H1 5991   2.799   0.763   0.402
 2016TIP3    H2 5992   2.856   0.848   0.514
 2017TIP3   OH2 5993   4.005   4.927   3.562
 2017TIP3    H1 5994   4.054   4.897   3.486
 2017TIP3    H2 5995   4.065   4.918   3.635
 2018TIP3   OH2 5996   4.953   0.400   3.593
 2018TIP3    H1 5997   4.881   0.341   3.616
 2018TIP3    H2 5998   5.032   0.352   3.618
 2019TIP3   OH2 5999   1.987   6.873   4.264
 2019TIP3    H1 6000   1.898   6.849   4.240
 2019TIP3    H2 6001   2.007   6.949   4.210
 2020TIP3   OH2 6002   1.009   7.544   6.062
 2020TIP3    H1 6003   1.028   7.477   6.127
 2020TIP3    H2 6004   0.915   7.561   6.071
 2021TIP3   OH2 6005   7.577   6.089   3.838
 2021TIP3    H1 6006   7.528   6.062   3.915
 2021TIP3    H2 6007   7.660   6.121   3.872
 2022TIP3   OH2 6008   1.729   1.954   3.764
 2022TIP3    H1 6009   1.824   1.969   3.766
 2022TIP3    H2 6010   1.720   1.860   3.754
 2023TIP3   OH2 6011   3.425   1.543   0.244
 2023TIP3    H1 6012   3.348   1.578   0.200
 2023TIP3    H2 6013   3.484   1.518   0.173
 2024TIP3   OH2 6014   3.256   6.059   2.180
 2024TIP3    H1 6015   3.173   6.015   2.162
 2024TIP3    H2 6016   3.255   6.076   2.274
 2025TIP3   OH2 6017   5.255   2.520   1.680
 2025TIP3    H1 6018   5.277   2.547   1.769
 2025TIP3    H2 6019   5.340   2.513   1.636
 2026TIP3   OH2 6020   4.879   3.311   5.671
 2026TIP3    H1 6021   4.788   3.323   5.698
 2026TIP3    H2 6022   4.903   3.393   5.629
 2027TIP3   OH2 6023   1.666   6.161   2.474
 2027TIP3    H1 6024   1.578   6.193   2.452
 2027TIP3    H2 6025   1.700   6.125   2.392
 2028TIP3   OH2 6026   7.496   6.549   6.260
 2028TIP3    H1 6027   7.403   6.571   6.261
 2028TIP3    H2 6028   7.499   6.456   6.282
 2029TIP3   OH2 6029   2.402   1.617   5.203
 2029TIP3    H1 6030   2.489   1.610   5.241
 2029TIP3    H2 6031   2.343   1.630   5.277
 2030TIP3   OH2 6032   1.974   3.022   6.637
 2030TIP3    H1 6033   1.985   3.018   6.732
 2030TIP3    H2 6034   2.048   3.076   6.606
 2031TIP3   OH2 6035   6.646   2.006   5.580
 2031TIP3    H1 6036   6.704   2.072   5.618
 2031TIP3    H2 6037   6.657   2.016   5.486
 2032TIP3   OH2 6038   1.931   2.482   1.312
 2032TIP3    H1 6039   1.920   2.575   1.296
 2032TIP3    H2 6040   1.911   2.471   1.405
 2033TIP3   OH2 6041   6.266   7.131   3.176
 2033TIP3    H1 6042   6.299   7.152   3.264
 2033TIP3    H2 6043   6.344   7.108   3.126
 2034TIP3   OH2 6044   0.978   4.857   4.491
 2034TIP3    H1 6045   0.973   4.846   4.396
 2034TIP3    H2 6046   0.907   4.803   4.525
 2035TIP3   OH2 6047   0.934   2.510   2.939
 2035TIP3    H1 6048   0.925   2.596   2.978
 2035TIP3    H2 6049   0.954   2.452   3.013
 2036TIP3   OH2 6050   0.635   3.814   5.334
 2036TIP3    H1 6051   0.603   3.818   5.244
 2036TIP3    H2 6052   0.644   3.720   5.352
 2037TIP3   OH2 6053   2.889   3.420   2.398
 2037TIP3    H1 6054   2.810   3.395   2.446
 2037TIP3    H2 6055   2.961   3.392   2.454
 2038TIP3   OH2 6056   5.511   4.457   3.743
 2038TIP3    H1 6057   5.566   4.532   3.766
 2038TIP3    H2 6058   5.555   4.382   3.783
 2039TIP3   OH2 6059   2.607   3.073   5.650
 2039TIP3    H1 6060   2.601   3.147   5.589
 2039TIP3    H2 6061   2.667   3.104   5.718
 2040TIP3   OH2 6062   6.588   6.426   3.053
 2040TIP3    H1 6063   6.624   6.463   3.134
 2040TIP3    H2 6064   6.618   6.335   3.052
 2041TIP3   OH2 6065   8.147   0.198   6.695
 2041TIP3    H1 6066   8.145   0.105   6.716
 2041TIP3    H2 6067   8.230   0.230   6.731
 2042TIP3   OH2 6068   5.302   2.201   0.206
 2042TIP3    H1 6069   5.384   2.190   0.254
 2042TIP3    H2 6070   5.236   2.219   0.273
 2043TIP3   OH2 6071   4.700   6.691   0.225
 2043TIP3    H1 6072   4.606   6.684   0.238
 2043TIP3    H2 6073   4.711   6.771   0.172
 2044TIP3   OH2 6074   2.462   6.581   4.859
 2044TIP3    H1 6075   2.474   6.660   4.912
 2044TIP3    H2 6076   2.501   6.603   4.775
 2045TIP3   OH2 6077   3.589   2.875   6.351
 2045TIP3    H1 6078   3.608   2.961   6.312
 2045TIP3    H2 6079   3.528   2.894   6.422
 2046TIP3   OH2 6080   3.004   0.936   1.408
 2046TIP3    H1 6081   2.924   0.883   1.402
 2046TIP3    H2 6082   3.004   0.970   1.497
 2047TIP3   OH2 6083   6.264   4.232   1.004
 2047TIP3    H1 6084   6.240   4.283   1.081
 2047TIP3    H2 6085   6.243   4.141   1.027
 2048TIP3   OH2 6086   6.585   1.894   1.454
 2048TIP3    H1 6087   6.582   1.950   1.376
 2048TIP3    H2 6088   6.543   1.812   1.425
 2049TIP3   OH2 6089   1.774   3.541   6.633
 2049TIP3    H1 6090   1.820   3.476   6.580
 2049TIP3    H2 6091   1.722   3.490   6.694
 2050TIP3   OH2 6092   6.562   5.444   2.649
 2050TIP3    H1 6093   6.550   5.354   2.619
 2050TIP3    H2 6094   6.642   5.473   2.606
 2051TIP3   OH2 6095   2.725   0.415   4.915
 2051TIP3    H1 6096   2.722   0.402   5.010
 2051TIP3    H2 6097   2.698   0.331   4.878
 2052TIP3   OH2 6098   3.310   4.634   0.734
 2052TIP3    H1 6099   3.354   4.578   0.670
 2052TIP3    H2 6100   3.380   4.690   0.768
 2053TIP3   OH2 6101   6.865   6.431   4.604
 2053TIP3    H1 6102   6.876   6.342   4.635
 2053TIP3    H2 6103   6.954   6.464   4.592
 2054TIP3   OH2 6104   0.032   3.827   0.894
 2054TIP3    H1 6105  -0.009   3.880   0.963
 2054TIP3    H2 6106   0.113   3.874   0.873
 2055TIP3   OH2 6107   6.954   1.084   3.055
 2055TIP3    H1 6108   6.940   1.118   3.143
 2055TIP3    H2 6109   7.008   1.006   3.068
 2056TIP3   OH2 6110   5.745   0.586   1.219
 2056TIP3    H1 6111   5.806   0.617   1.152
 2056TIP3    H2 6112   5.661   0.625   1.194
 2057TIP3   OH2 6113   6.201   1.905   4.501
 2057TIP3    H1 6114   6.212   1.812   4.484
 2057TIP3    H2 6115   6.151   1.938   4.426
 2058TIP3   OH2 6116   4.203   1.469   5.712
 2058TIP3    H1 6117   4.186   1.563   5.704
 2058TIP3    H2 6118   4.119   1.428   5.693
 2059TIP3   OH2 6119   0.300   0.645   0.141
 2059TIP3    H1 6120   0.339   0.557   0.144
 2059TIP3    H2 6121   0.219   0.634   0.091
 2060TIP3   OH2 6122   7.539   2.996   1.676
 2060TIP3    H1 6123   7.508   2.971   1.763
 2060TIP3    H2 6124   7.518   2.922   1.620
 2061TIP3   OH2 6125   0.630   3.254   0.219
 2061TIP3    H1 6126   0.665   3.308   0.149
 2061TIP3    H2 6127   0.696   3.186   0.232
 2062TIP3   OH2 6128   6.918   3.712   0.064
 2062TIP3    H1 6129   7.011   3.699   0.047
 2062TIP3    H2 6130   6.887   3.765  -0.010
 2063TIP3   OH2 6131   0.078   6.585   0.817
 2063TIP3    H1 6132   0.036   6.569   0.902
 2063TIP3    H2 6133   0.006   6.588   0.755
 2064TIP3   OH2 6134   4.525   1.618   3.786
 2064TIP3    H1 6135   4.599   1.631   3.727
 2064TIP3    H2 6136   4.448   1.618   3.728
 2065TIP3   OH2 6137   8.021   5.501   2.664
 2065TIP3    H1 6138   7.941   5.449   2.677
 2065TIP3    H2 6139   8.081   5.443   2.619
 2066TIP3   OH2 6140   4.172   1.664   2.352
 2066TIP3    H1 6141   4.266   1.675   2.359
 2066TIP3    H2 6142   4.144   1.634   2.438
 2067TIP3   OH2 6143   3.708   1.181   2.967
 2067TIP3    H1 6144   3.647   1.188   2.894
 2067TIP3    H2 6145   3.755   1.264   2.969
 2068TIP3   OH2 6146   6.810   5.234   5.125
 2068TIP3    H1 6147   6.868   5.185   5.183
 2068TIP3    H2 6148   6.842   5.214   5.037
 2069TIP3   OH2 6149   1.568   7.257   4.744
 2069TIP3    H1 6150   1.507   7.233   4.673
 2069TIP3    H2 6151   1.626   7.182   4.752
 2070TIP3   OH2 6152   2.306   3.768   3.880
 2070TIP3    H1 6153   2.331   3.755   3.789
 2070TIP3    H2 6154   2.219   3.728   3.887
 2071TIP3   OH2 6155   4.611   0.342   2.720
 2071TIP3    H1 6156   4.525   0.381   2.733
 2071TIP3    H2 6157   4.637   0.370   2.632
 2072TIP3   OH2 6158   5.648   5.570   4.444
 2072TIP3    H1 6159   5.584   5.545   4.510
 2072TIP3    H2 6160   5.728   5.522   4.469
 2073TIP3   OH2 6161   3.748   6.182   4.746
 2073TIP3    H1 6162   3.690   6.252   4.777
 2073TIP3    H2 6163   3.720   6.105   4.796
 2074TIP3   OH2 6164   4.576   0.800   4.637
 2074TIP3    H1 6165   4.655   0.778   4.588
 2074TIP3    H2 6166   4.505   0.762   4.586
 2075TIP3   OH2 6167   0.099   3.094   1.476
 2075TIP3    H1 6168   0.017   3.143   1.487
 2075TIP3    H2 6169   0.153   3.122   1.551
 2076TIP3   OH2 6170   7.535   3.352   2.350
 2076TIP3    H1 6171   7.606   3.366   2.287
 2076TIP3    H2 6172   7.561   3.273   2.397
 2077TIP3   OH2 6173   5.371   5.981   0.991
 2077TIP3    H1 6174   5.301   6.039   1.020
 2077TIP3    H2 6175   5.430   5.975   1.066
 2078TIP3   OH2 6176   1.340   1.988   2.097
 2078TIP3    H1 6177   1.274   2.039   2.144
 2078TIP3    H2 6178   1.422   2.033   2.115
 2079TIP3   OH2 6179   6.906   6.063   6.189
 2079TIP3    H1 6180   6.814   6.074   6.213
 2079TIP3    H2 6181   6.937   6.152   6.172
 2080TIP3   OH2 6182   0.555   5.618   1.415
 2080TIP3    H1 6183   0.592   5.562   1.483
 2080TIP3    H2 6184   0.618   5.611   1.343
 2081TIP3   OH2 6185   2.134   0.066   3.417
 2081TIP3    H1 6186   2.057   0.013   3.434
 2081TIP3    H2 6187   2.123   0.097   3.327
 2082TIP3   OH2 6188   0.495   0.959   0.332
 2082TIP3    H1 6189   0.574   0.940   0.383
 2082TIP3    H2 6190   0.516   1.041   0.287
 2083TIP3   OH2 6191   7.591   4.307   1.094
 2083TIP3    H1 6192   7.612   4.216   1.071
 2083TIP3    H2 6193   7.500   4.303   1.124
 2084TIP3   OH2 6194   7.022   2.794   3.079
 2084TIP3    H1 6195   6.959   2.773   3.148
 2084TIP3    H2 6196   7.029   2.714   3.028
 2085TIP3   OH2 6197   5.078   5.457   1.010
 2085TIP3    H1 6198   5.157   5.438   1.060
 2085TIP3    H2 6199   5.055   5.374   0.969
 2086TIP3   OH2 6200   4.873   4.570   0.397
 2086TIP3    H1 6201   4.900   4.552   0.307
 2086TIP3    H2 6202   4.920   4.506   0.449
 2087TIP3   OH2 6203   0.635   0.085   4.739
 2087TIP3    H1 6204   0.674   0.115   4.657
 2087TIP3    H2 6205   0.658  -0.007   4.744
 2088TIP3   OH2 6206   6.571   4.724   0.272
 2088TIP3    H1 6207   6.593   4.663   0.201
 2088TIP3    H2 6208   6.554   4.668   0.348
 2089TIP3   OH2 6209   6.730   7.447   5.780
 2089TIP3    H1 6210   6.749   7.472   5.690
 2089TIP3    H2 6211   6.672   7.515   5.812
 2090TIP3   OH2 6212   6.431   7.700   0.659
 2090TIP3    H1 6213   6.470   7.679   0.574
 2090TIP3    H2 6214   6.502   7.686   0.722
 2091TIP3   OH2 6215   3.748   6.229   0.373
 2091TIP3    H1 6216   3.659   6.253   0.398
 2091TIP3    H2 6217   3.737   6.163   0.304
 2092TIP3   OH2 6218   1.210   6.288   0.725
 2092TIP3    H1 6219   1.181   6.332   0.646
 2092TIP3    H2 6220   1.306   6.291   0.721
 2093TIP3   OH2 6221   5.901   4.282   5.664
 2093TIP3    H1 6222   5.874   4.205   5.715
 2093TIP3    H2 6223   5.916   4.350   5.729
 2094TIP3   OH2 6224   7.430   0.732   4.770
 2094TIP3    H1 6225   7.485   0.767   4.699
 2094TIP3    H2 6226   7.444   0.637   4.766
 2095TIP3   OH2 6227   4.665   4.398   5.807
 2095TIP3    H1 6228   4.609   4.471   5.833
 2095TIP3    H2 6229   4.689   4.418   5.717
 2096TIP3   OH2 6230   4.712   2.355   4.227
 2096TIP3    H1 6231   4.792   2.305   4.211
 2096TIP3    H2 6232   4.737   2.421   4.291
 2097TIP3   OH2 6233   2.266   5.093   3.702
 2097TIP3    H1 6234   2.203   5.047   3.757
 2097TIP3    H2 6235   2.318   5.023   3.663
 2098TIP3   OH2 6236   7.973   3.296   5.364
 2098TIP3    H1 6237   7.974   3.317   5.270
 2098TIP3    H2 6238   8.052   3.244   5.377
 2099TIP3   OH2 6239   2.709   6.694   2.078
 2099TIP3    H1 6240   2.663   6.654   2.151
 2099TIP3    H2 6241   2.751   6.771   2.115
 2100TIP3   OH2 6242   1.766   2.451   4.949
 2100TIP3    H1 6243   1.686   2.440   4.896
 2100TIP3    H2 6244   1.829   2.391   4.909
 2101TIP3   OH2 6245   8.134   0.698   5.081
 2101TIP3    H1 6246   8.228   0.682   5.092
 2101TIP3    H2 6247   8.092   0.631   5.134
 2102TIP3   OH2 6248   1.102   0.390   1.931
 2102TIP3    H1 6249   1.129   0.307   1.892
 2102TIP3    H2 6250   1.019   0.412   1.888
 2103TIP3   OH2 6251   5.112   4.398   6.157
 2103TIP3    H1 6252   5.028   4.405   6.112
 2103TIP3    H2 6253   5.130   4.486   6.188
 2104TIP3   OH2 6254   3.369   5.069   0.180
 2104TIP3    H1 6255   3.371   5.040   0.088
 2104TIP3    H2 6256   3.413   4.999   0.228
 2105TIP3   OH2 6257   3.357   7.605   0.087
 2105TIP3    H1 6258   3.448   7.617   0.115
 2105TIP3    H2 6259   3.348   7.510   0.077
 2106TIP3   OH2 6260   0.404   0.922   0.679
 2106TIP3    H1 6261   0.402   0.994   0.742
 2106TIP3    H2 6262   0.331   0.941   0.620
 2107TIP3   OH2 6263   3.895   1.770   2.669
 2107TIP3    H1 6264   3.872   1.816   2.750
 2107TIP3    H2 6265   3.897   1.838   2.602
 2108TIP3   OH2 6266   2.806   2.678   5.377
 2108TIP3    H1 6267   2.887   2.709   5.338
 2108TIP3    H2 6268   2.794   2.589   5.343
 2109TIP3   OH2 6269   2.625   7.323   1.456
 2109TIP3    H1 6270   2.539   7.305   1.420
 2109TIP3    H2 6271   2.677   7.354   1.381
 2110TIP3   OH2 6272   3.293   3.095   2.871
 2110TIP3    H1 6273   3.322   3.011   2.835
 2110TIP3    H2 6274   3.373   3.135   2.906
 2111TIP3   OH2 6275   5.502   7.039   1.037
 2111TIP3    H1 6276   5.592   7.006   1.041
 2111TIP3    H2 6277   5.479   7.033   0.944
 2112TIP3   OH2 6278   6.511   5.148   1.038
 2112TIP3    H1 6279   6.553   5.097   1.107
 2112TIP3    H2 6280   6.419   5.152   1.063
 2113TIP3   OH2 6281   3.686   5.859   6.119
 2113TIP3    H1 6282   3.597   5.828   6.104
 2113TIP3    H2 6283   3.732   5.783   6.155
 2114TIP3   OH2 6284   5.516   5.143   0.017
 2114TIP3    H1 6285   5.489   5.125   0.107
 2114TIP3    H2 6286   5.528   5.057  -0.023
 2115TIP3   OH2 6287   0.063   6.858   0.834
 2115TIP3    H1 6288   0.085   6.770   0.805
 2115TIP3    H2 6289   0.133   6.913   0.799
 2116TIP3   OH2 6290   4.238   4.681   3.078
 2116TIP3    H1 6291   4.228   4.683   3.173
 2116TIP3    H2 6292   4.152   4.655   3.045
 2117TIP3   OH2 6293   3.163   5.796   4.972
 2117TIP3    H1 6294   3.079   5.811   4.928
 2117TIP3    H2 6295   3.204   5.883   4.976
 2118TIP3   OH2 6296   5.443   3.889   5.811
 2118TIP3    H1 6297   5.487   3.962   5.854
 2118TIP3    H2 6298   5.513   3.840   5.768
 2119TIP3   OH2 6299   3.347   6.347   5.362
 2119TIP3    H1 6300   3.285   6.353   5.435
 2119TIP3    H2 6301   3.376   6.437   5.348
 2120TIP3   OH2 6302   3.059   6.294   4.921
 2120TIP3    H1 6303   3.135   6.310   4.864
 2120TIP3    H2 6304   2.988   6.342   4.879
 2121TIP3   OH2 6305   6.741   2.800   6.422
 2121TIP3    H1 6306   6.684   2.724   6.432
 2121TIP3    H2 6307   6.826   2.763   6.397
 2122TIP3   OH2 6308   7.794   6.427   5.307
 2122TIP3    H1 6309   7.715   6.374   5.317
 2122TIP3    H2 6310   7.764   6.517   5.317
 2123TIP3   OH2 6311   8.318   7.400   4.318
 2123TIP3    H1 6312   8.263   7.326   4.294
 2123TIP3    H2 6313   8.261   7.454   4.375
 2124TIP3   OH2 6314   8.146   4.629   3.845
 2124TIP3    H1 6315   8.208   4.591   3.908
 2124TIP3    H2 6316   8.196   4.636   3.764
 2125TIP3   OH2 6317   3.689   6.353   5.946
 2125TIP3    H1 6318   3.755   6.421   5.928
 2125TIP3    H2 6319   3.624   6.364   5.875
 2126TIP3   OH2 6320   5.656   4.901   5.908
 2126TIP3    H1 6321   5.722   4.968   5.888
 2126TIP3    H2 6322   5.573   4.941   5.881
 2127TIP3   OH2 6323   3.841   7.241   5.364
 2127TIP3    H1 6324   3.811   7.306   5.300
 2127TIP3    H2 6325   3.880   7.292   5.434
 2128TIP3   OH2 6326   4.759   1.443   3.484
 2128TIP3    H1 6327   4.747   1.537   3.496
 2128TIP3    H2 6328   4.685   1.403   3.531
 2129TIP3   OH2 6329   7.047   6.823   4.754
 2129TIP3    H1 6330   7.086   6.866   4.831
 2129TIP3    H2 6331   7.105   6.848   4.682
 2130TIP3   OH2 6332   1.745   6.772   3.928
 2130TIP3    H1 6333   1.723   6.817   4.010
 2130TIP3    H2 6334   1.661   6.758   3.885
 2131TIP3   OH2 6335   2.309   7.267   1.745
 2131TIP3    H1 6336   2.251   7.298   1.675
 2131TIP3    H2 6337   2.252   7.218   1.804
 2132TIP3   OH2 6338   6.806   4.739   1.176
 2132TIP3    H1 6339   6.821   4.802   1.247
 2132TIP3    H2 6340   6.711   4.740   1.163
 2133TIP3   OH2 6341   0.492   7.413   3.703
 2133TIP3    H1 6342   0.442   7.355   3.645
 2133TIP3    H2 6343   0.583   7.390   3.688
 2134TIP3   OH2 6344   6.100   2.881   1.401
 2134TIP3    H1 6345   6.095   2.956   1.460
 2134TIP3    H2 6346   6.164   2.906   1.335
 2135TIP3   OH2 6347   4.602   5.036   4.372
 2135TIP3    H1 6348   4.652   5.117   4.362
 2135TIP3    H2 6349   4.522   5.063   4.417
 2136TIP3   OH2 6350   0.586   0.712   2.201
 2136TIP3    H1 6351   0.615   0.801   2.185
 2136TIP3    H2 6352   0.662   0.668   2.238
 2137TIP3   OH2 6353   4.351   0.225   0.450
 2137TIP3    H1 6354   4.270   0.247   0.497
 2137TIP3    H2 6355   4.372   0.137   0.479
 2138TIP3   OH2 6356   1.613   3.932   0.180
 2138TIP3    H1 6357   1.638   4.018   0.212
 2138TIP3    H2 6358   1.696   3.883   0.175
 2139TIP3   OH2 6359   4.649   3.620   0.401
 2139TIP3    H1 6360   4.558   3.600   0.379
 2139TIP3    H2 6361   4.664   3.706   0.364
 2140TIP3   OH2 6362   1.457   5.071   5.096
 2140TIP3    H1 6363   1.459   4.976   5.084
 2140TIP3    H2 6364   1.417   5.104   5.015
 2141TIP3   OH2 6365   7.470   4.850   3.497
 2141TIP3    H1 6366   7.561   4.826   3.514
 2141TIP3    H2 6367   7.421   4.811   3.570
 2142TIP3   OH2 6368   1.565   3.946   6.108
 2142TIP3    H1 6369   1.490   3.956   6.167
 2142TIP3    H2 6370   1.597   4.035   6.094
 2143TIP3   OH2 6371   4.509   6.446   5.192
 2143TIP3    H1 6372   4.446   6.450   5.120
 2143TIP3    H2 6373   4.568   6.520   5.176
 2144TIP3   OH2 6374   6.668   3.073   5.990
 2144TIP3    H1 6375   6.698   3.163   6.001
 2144TIP3    H2 6376   6.588   3.068   6.040
 2145TIP3   OH2 6377   4.639   3.957   1.261
 2145TIP3    H1 6378   4.582   3.937   1.336
 2145TIP3    H2 6379   4.665   4.048   1.275
 2146TIP3   OH2 6380   5.624   0.143   0.971
 2146TIP3    H1 6381   5.656   0.057   0.942
 2146TIP3    H2 6382   5.679   0.165   1.046
 2147TIP3   OH2 6383   5.355   6.118   5.071
 2147TIP3    H1 6384   5.308   6.035   5.065
 2147TIP3    H2 6385   5.288   6.185   5.056
 2148TIP3   OH2 6386   5.536   5.558   1.019
 2148TIP3    H1 6387   5.520   5.624   0.951
 2148TIP3    H2 6388   5.455   5.507   1.022
 2149TIP3   OH2 6389   3.822   3.418   6.217
 2149TIP3    H1 6390   3.850   3.376   6.135
 2149TIP3    H2 6391   3.729   3.437   6.204
 2150TIP3   OH2 6392   2.889   6.904   2.143
 2150TIP3    H1 6393   2.979   6.905   2.112
 2150TIP3    H2 6394   2.895   6.887   2.237
 2151TIP3   OH2 6395   4.638   0.450   3.755
 2151TIP3    H1 6396   4.650   0.391   3.830
 2151TIP3    H2 6397   4.697   0.416   3.688
 2152TIP3   OH2 6398   0.926   1.758   3.062
 2152TIP3    H1 6399   1.021   1.756   3.055
 2152TIP3    H2 6400   0.895   1.694   2.998
 2153TIP3   OH2 6401   3.544   6.182   5.547
 2153TIP3    H1 6402   3.573   6.095   5.521
 2153TIP3    H2 6403   3.469   6.200   5.490
 2154TIP3   OH2 6404   5.079   7.680   1.173
 2154TIP3    H1 6405   5.124   7.696   1.090
 2154TIP3    H2 6406   5.122   7.737   1.236
 2155TIP3   OH2 6407   1.841   7.794   4.174
 2155TIP3    H1 6408   1.749   7.773   4.165
 2155TIP3    H2 6409   1.860   7.852   4.101
 2156TIP3   OH2 6410   7.717   0.639   0.306
 2156TIP3    H1 6411   7.636   0.665   0.260
 2156TIP3    H2 6412   7.757   0.721   0.332
 2157TIP3   OH2 6413   2.717   7.264   0.156
 2157TIP3    H1 6414   2.673   7.209   0.091
 2157TIP3    H2 6415   2.746   7.341   0.107
 2158TIP3   OH2 6416   4.771   5.986   2.064
 2158TIP3    H1 6417   4.817   5.932   2.000
 2158TIP3    H2 6418   4.682   5.950   2.067
 2159TIP3   OH2 6419   3.048   0.037   1.200
 2159TIP3    H1 6420   3.067  -0.047   1.159
 2159TIP3    H2 6421   3.066   0.023   1.293
 2160TIP3   OH2 6422   2.867   7.183   1.071
 2160TIP3    H1 6423   2.817   7.242   1.127
 2160TIP3    H2 6424   2.857   7.097   1.111
 2161TIP3   OH2 6425   0.925   7.100   5.007
 2161TIP3    H1 6426   0.847   7.081   5.059
 2161TIP3    H2 6427   0.992   7.041   5.041
 2162TIP3   OH2 6428   0.820   1.901   5.338
 2162TIP3    H1 6429   0.840   1.847   5.261
 2162TIP3    H2 6430   0.738   1.945   5.316
 2163TIP3   OH2 6431   7.058   4.747   4.312
 2163TIP3    H1 6432   6.990   4.692   4.273
 2163TIP3    H2 6433   7.061   4.824   4.256
 2164TIP3   OH2 6434   7.336   3.881   2.005
 2164TIP3    H1 6435   7.257   3.888   1.951
 2164TIP3    H2 6436   7.309   3.911   2.092
 2165TIP3   OH2 6437   0.308   4.663   4.288
 2165TIP3    H1 6438   0.353   4.612   4.221
 2165TIP3    H2 6439   0.222   4.683   4.250
 2166TIP3   OH2 6440   4.568   5.899   3.564
 2166TIP3    H1 6441   4.615   5.865   3.488
 2166TIP3    H2 6442   4.563   5.825   3.624
 2167TIP3   OH2 6443   0.655   1.651   0.595
 2167TIP3    H1 6444   0.690   1.563   0.580
 2167TIP3    H2 6445   0.713   1.690   0.660
 2168TIP3   OH2 6446   3.539   7.525   2.457
 2168TIP3    H1 6447   3.574   7.559   2.540
 2168TIP3    H2 6448   3.480   7.454   2.483
 2169TIP3   OH2 6449   6.200   6.171   1.061
 2169TIP3    H1 6450   6.145   6.105   1.103
 2169TIP3    H2 6451   6.165   6.254   1.094
 2170TIP3   OH2 6452   4.194   4.996   6.689
 2170TIP3    H1 6453   4.174   5.062   6.754
 2170TIP3    H2 6454   4.151   4.916   6.722
 2171TIP3   OH2 6455   4.877   5.070   0.244
 2171TIP3    H1 6456   4.965   5.033   0.257
 2171TIP3    H2 6457   4.891   5.146   0.188
 2172TIP3   OH2 6458   2.708   3.944   1.777
 2172TIP3    H1 6459   2.796   3.907   1.768
 2172TIP3    H2 6460   2.701   3.968   1.869
 2173TIP3   OH2 6461   3.594   3.326   0.529
 2173TIP3    H1 6462   3.568   3.359   0.615
 2173TIP3    H2 6463   3.642   3.245   0.548
 2174TIP3   OH2 6464   8.314   2.912   4.849
 2174TIP3    H1 6465   8.354   2.829   4.824
 2174TIP3    H2 6466   8.221   2.890   4.863
 2175TIP3   OH2 6467   2.055   5.508   6.061
 2175TIP3    H1 6468   2.092   5.502   6.149
 2175TIP3    H2 6469   1.983   5.571   6.070
 2176TIP3   OH2 6470   6.496   1.554   6.794
 2176TIP3    H1 6471   6.552   1.619   6.752
 2176TIP3    H2 6472   6.477   1.591   6.880
 2177TIP3   OH2 6473   7.741   0.978   0.797
 2177TIP3    H1 6474   7.832   0.987   0.770
 2177TIP3    H2 6475   7.729   1.046   0.864
 2178TIP3   OH2 6476   3.025   2.009   0.221
 2178TIP3    H1 6477   2.978   1.956   0.157
 2178TIP3    H2 6478   2.969   2.008   0.299
 2179TIP3   OH2 6479   4.556   1.998   2.076
 2179TIP3    H1 6480   4.529   2.074   2.128
 2179TIP3    H2 6481   4.641   1.973   2.113
 2180TIP3   OH2 6482   1.800   7.105   5.842
 2180TIP3    H1 6483   1.862   7.089   5.771
 2180TIP3    H2 6484   1.727   7.046   5.824
 2181TIP3   OH2 6485   0.068   3.249   2.213
 2181TIP3    H1 6486   0.063   3.232   2.119
 2181TIP3    H2 6487  -0.008   3.205   2.250
 2182TIP3   OH2 6488   3.860   4.313   4.530
 2182TIP3    H1 6489   3.870   4.368   4.453
 2182TIP3    H2 6490   3.924   4.348   4.593
 2183TIP3   OH2 6491   2.102   7.795   2.760
 2183TIP3    H1 6492   2.078   7.703   2.758
 2183TIP3    H2 6493   2.028   7.839   2.802
 2184TIP3   OH2 6494   2.125   4.312   0.121
 2184TIP3    H1 6495   2.074   4.300   0.041
 2184TIP3    H2 6496   2.175   4.392   0.106
 2185TIP3   OH2 6497   0.922   3.154   3.535
 2185TIP3    H1 6498   0.886   3.075   3.493
 2185TIP3    H2 6499   0.856   3.179   3.599
 2186TIP3   OH2 6500   6.721   4.043   4.461
 2186TIP3    H1 6501   6.785   4.111   4.483
 2186TIP3    H2 6502   6.755   4.003   4.381
 2187TIP3   OH2 6503   4.352   2.634   5.622
 2187TIP3    H1 6504   4.319   2.724   5.611
 2187TIP3    H2 6505   4.445   2.639   5.600
 2188TIP3   OH2 6506   1.411   0.188   3.407
 2188TIP3    H1 6507   1.414   0.125   3.335
 2188TIP3    H2 6508   1.463   0.262   3.377
 2189TIP3   OH2 6509   1.474   5.746   5.640
 2189TIP3    H1 6510   1.548   5.757   5.580
 2189TIP3    H2 6511   1.429   5.831   5.637
 2190TIP3   OH2 6512   7.352   4.824   0.631
 2190TIP3    H1 6513   7.422   4.809   0.695
 2190TIP3    H2 6514   7.388   4.791   0.548
 2191TIP3   OH2 6515   0.239   0.866   1.832
 2191TIP3    H1 6516   0.203   0.954   1.819
 2191TIP3    H2 6517   0.329   0.872   1.799
 2192TIP3   OH2 6518   0.040   5.239   1.084
 2192TIP3    H1 6519  -0.016   5.311   1.054
 2192TIP3    H2 6520  -0.014   5.190   1.146
 2193TIP3   OH2 6521   5.108   7.308   4.074
 2193TIP3    H1 6522   5.030   7.360   4.055
 2193TIP3    H2 6523   5.109   7.299   4.169
 2194TIP3   OH2 6524   0.358   5.380   3.713
 2194TIP3    H1 6525   0.266   5.389   3.686
 2194TIP3    H2 6526   0.378   5.287   3.698
 2195TIP3   OH2 6527   3.395   6.934   4.228
 2195TIP3    H1 6528   3.321   6.875   4.212
 2195TIP3    H2 6529   3.436   6.899   4.307
 2196TIP3   OH2 6530   6.782   6.081   0.913
 2196TIP3    H1 6531   6.834   6.061   0.836
 2196TIP3    H2 6532   6.830   6.151   0.957
 2197TIP3   OH2 6533   6.780   2.144   5.353
 2197TIP3    H1 6534   6.766   2.155   5.259
 2197TIP3    H2 6535   6.797   2.233   5.385
 2198TIP3   OH2 6536   1.746   2.515   2.620
 2198TIP3    H1 6537   1.776   2.577   2.553
 2198TIP3    H2 6538   1.666   2.477   2.582
 2199TIP3   OH2 6539   1.170   1.956   1.855
 2199TIP3    H1 6540   1.248   2.010   1.867
 2199TIP3    H2 6541   1.205   1.869   1.836
 2200TIP3   OH2 6542   6.542   4.926   1.471
 2200TIP3    H1 6543   6.591   4.884   1.541
 2200TIP3    H2 6544   6.609   4.956   1.409
 2201TIP3   OH2 6545   5.486   4.447   0.521
 2201TIP3    H1 6546   5.438   4.483   0.446
 2201TIP3    H2 6547   5.419   4.412   0.579
 2202TIP3   OH2 6548   6.262   7.650   4.789
 2202TIP3    H1 6549   6.307   7.570   4.763
 2202TIP3    H2 6550   6.271   7.654   4.884
 2203TIP3   OH2 6551   5.147   6.213   1.788
 2203TIP3    H1 6552   5.182   6.222   1.699
 2203TIP3    H2 6553   5.123   6.302   1.813
 2204TIP3   OH2 6554   7.728   7.352   2.717
 2204TIP3    H1 6555   7.715   7.447   2.726
 2204TIP3    H2 6556   7.802   7.333   2.774
 2205TIP3   OH2 6557   0.456   2.454   5.948
 2205TIP3    H1 6558   0.499   2.539   5.937
 2205TIP3    H2 6559   0.456   2.415   5.861
 2206TIP3   OH2 6560   0.291   6.234   1.899
 2206TIP3    H1 6561   0.292   6.280   1.983
 2206TIP3    H2 6562   0.236   6.288   1.843
 2207TIP3   OH2 6563   1.313   6.198   6.018
 2207TIP3    H1 6564   1.404   6.224   6.034
 2207TIP3    H2 6565   1.263   6.247   6.083
 2208TIP3   OH2 6566   4.901   2.747   4.497
 2208TIP3    H1 6567   4.842   2.785   4.432
 2208TIP3    H2 6568   4.895   2.653   4.483
 2209TIP3   OH2 6569   6.747   0.957   3.861
 2209TIP3    H1 6570   6.819   0.967   3.798
 2209TIP3    H2 6571   6.781   0.900   3.929
 2210TIP3   OH2 6572   4.898   4.834   4.078
 2210TIP3    H1 6573   4.841   4.781   4.133
 2210TIP3    H2 6574   4.848   4.848   3.998
 2211TIP3   OH2 6575   5.947   0.715   6.029
 2211TIP3    H1 6576   5.884   0.656   5.988
 2211TIP3    H2 6577   5.996   0.660   6.090
 2212TIP3   OH2 6578   4.109   7.571   1.460
 2212TIP3    H1 6579   4.016   7.571   1.484
 2212TIP3    H2 6580   4.155   7.592   1.541
 2213TIP3   OH2 6581   2.857   0.776   3.077
 2213TIP3    H1 6582   2.770   0.758   3.112
 2213TIP3    H2 6583   2.867   0.715   3.004
 2214TIP3   OH2 6584   3.176   4.773   0.285
 2214TIP3    H1 6585   3.266   4.752   0.311
 2214TIP3    H2 6586   3.147   4.696   0.235
 2215TIP3   OH2 6587   1.354   5.695   5.966
 2215TIP3    H1 6588   1.316   5.781   5.953
 2215TIP3    H2 6589   1.405   5.702   6.047
 2216TIP3   OH2 6590   2.648   5.573   0.360
 2216TIP3    H1 6591   2.656   5.521   0.281
 2216TIP3    H2 6592   2.738   5.582   0.392
 2217TIP3   OH2 6593   1.681   3.636   0.450
 2217TIP3    H1 6594   1.643   3.588   0.523
 2217TIP3    H2 6595   1.668   3.579   0.374
 2218TIP3   OH2 6596   3.811   5.919   6.705
 2218TIP3    H1 6597   3.812   6.014   6.699
 2218TIP3    H2 6598   3.799   5.889   6.615
 2219TIP3   OH2 6599   4.729   7.191   0.494
 2219TIP3    H1 6600   4.659   7.243   0.534
 2219TIP3    H2 6601   4.750   7.125   0.559
 2220TIP3   OH2 6602   2.428   2.181   6.169
 2220TIP3    H1 6603   2.423   2.259   6.112
 2220TIP3    H2 6604   2.346   2.182   6.218
 2221TIP3   OH2 6605   5.626   4.089   4.407
 2221TIP3    H1 6606   5.545   4.117   4.448
 2221TIP3    H2 6607   5.652   4.163   4.352
 2222TIP3   OH2 6608   2.049   6.197   0.146
 2222TIP3    H1 6609   2.038   6.277   0.096
 2222TIP3    H2 6610   2.144   6.188   0.157
 2223TIP3   OH2 6611   7.061   2.304   4.793
 2223TIP3    H1 6612   7.022   2.216   4.792
 2223TIP3    H2 6613   7.121   2.303   4.867
 2224TIP3   OH2 6614   7.753   2.428   4.537
 2224TIP3    H1 6615   7.806   2.462   4.465
 2224TIP3    H2 6616   7.727   2.506   4.587
 2225TIP3   OH2 6617   3.051   5.255   6.205
 2225TIP3    H1 6618   3.136   5.265   6.247
 2225TIP3    H2 6619   2.989   5.296   6.265
 2226TIP3   OH2 6620   5.769   1.524   2.662
 2226TIP3    H1 6621   5.838   1.494   2.721
 2226TIP3    H2 6622   5.707   1.452   2.658
 2227TIP3   OH2 6623   2.711   0.742   1.463
 2227TIP3    H1 6624   2.729   0.769   1.553
 2227TIP3    H2 6625   2.691   0.824   1.418
 2228TIP3   OH2 6626   3.789   4.475   0.201
 2228TIP3    H1 6627   3.725   4.500   0.135
 2228TIP3    H2 6628   3.737   4.444   0.275
 2229TIP3   OH2 6629   1.725   5.083   2.848
 2229TIP3    H1 6630   1.809   5.046   2.822
 2229TIP3    H2 6631   1.684   5.015   2.902
 2230TIP3   OH2 6632   6.931   1.161   3.307
 2230TIP3    H1 6633   7.016   1.183   3.346
 2230TIP3    H2 6634   6.894   1.096   3.367
 2231TIP3   OH2 6635   4.237   0.541   1.883
 2231TIP3    H1 6636   4.244   0.494   1.800
 2231TIP3    H2 6637   4.176   0.612   1.865
 2232TIP3   OH2 6638   2.585   2.852   5.391
 2232TIP3    H1 6639   2.643   2.776   5.397
 2232TIP3    H2 6640   2.642   2.927   5.401
 2233TIP3   OH2 6641   8.168   7.367   2.391
 2233TIP3    H1 6642   8.225   7.351   2.467
 2233TIP3    H2 6643   8.094   7.308   2.404
 2234TIP3   OH2 6644   6.077   4.139   2.694
 2234TIP3    H1 6645   6.114   4.076   2.632
 2234TIP3    H2 6646   6.081   4.223   2.648
 2235TIP3   OH2 6647   3.576   3.222   2.497
 2235TIP3    H1 6648   3.498   3.277   2.492
 2235TIP3    H2 6649   3.609   3.219   2.407
 2236TIP3   OH2 6650   6.268   2.277   1.987
 2236TIP3    H1 6651   6.288   2.252   1.897
 2236TIP3    H2 6652   6.282   2.197   2.038
 2237TIP3   OH2 6653   4.545   6.024   3.910
 2237TIP3    H1 6654   4.568   6.060   3.995
 2237TIP3    H2 6655   4.449   6.030   3.906
 2238TIP3   OH2 6656   1.546   4.453   4.192
 2238TIP3    H1 6657   1.542   4.513   4.117
 2238TIP3    H2 6658   1.640   4.437   4.205
 2239TIP3   OH2 6659   2.049   6.948   6.055
 2239TIP3    H1 6660   2.082   7.008   6.121
 2239TIP3    H2 6661   2.072   6.989   5.971
 2240TIP3   OH2 6662   2.457   1.180   5.735
 2240TIP3    H1 6663   2.490   1.134   5.813
 2240TIP3    H2 6664   2.448   1.271   5.763
 2241TIP3   OH2 6665   2.675   6.629   0.681
 2241TIP3    H1 6666   2.759   6.613   0.637
 2241TIP3    H2 6667   2.658   6.547   0.728
 2242TIP3   OH2 6668   0.060   7.568   2.602
 2242TIP3    H1 6669   0.010   7.531   2.675
 2242TIP3    H2 6670   0.136   7.511   2.594
 2243TIP3   OH2 6671   7.319   7.145   1.371
 2243TIP3    H1 6672   7.280   7.065   1.407
 2243TIP3    H2 6673   7.251   7.181   1.314
 2244TIP3   OH2 6674   4.469   7.418   6.047
 2244TIP3    H1 6675   4.534   7.384   6.108
 2244TIP3    H2 6676   4.480   7.365   5.968
 2245TIP3   OH2 6677   3.212   4.547   4.841
 2245TIP3    H1 6678   3.195   4.456   4.866
 2245TIP3    H2 6679   3.296   4.544   4.796
 2246TIP3   OH2 6680   7.986   3.936   0.502
 2246TIP3    H1 6681   8.024   3.889   0.577
 2246TIP3    H2 6682   8.008   3.882   0.426
 2247TIP3   OH2 6683   0.570   1.552   0.030
 2247TIP3    H1 6684   0.542   1.506  -0.050
 2247TIP3    H2 6685   0.580   1.483   0.095
 2248TIP3   OH2 6686   4.407   7.021   4.693
 2248TIP3    H1 6687   4.420   7.116   4.703
 2248TIP3    H2 6688   4.336   7.013   4.629
 2249TIP3   OH2 6689   4.226   2.850   2.313
 2249TIP3    H1 6690   4.270   2.821   2.234
 2249TIP3    H2 6691   4.217   2.772   2.367
 2250TIP3   OH2 6692   1.093   1.860   2.691
 2250TIP3    H1 6693   1.042   1.781   2.713
 2250TIP3    H2 6694   1.159   1.866   2.760
 2251TIP3   OH2 6695   3.851   2.764   2.352
 2251TIP3    H1 6696   3.862   2.676   2.389
 2251TIP3    H2 6697   3.878   2.823   2.423
 2252TIP3   OH2 6698   8.226   7.747   5.886
 2252TIP3    H1 6699   8.143   7.792   5.902
 2252TIP3    H2 6700   8.274   7.756   5.967
 2253TIP3   OH2 6701   4.027   0.734   1.838
 2253TIP3    H1 6702   4.027   0.829   1.848
 2253TIP3    H2 6703   3.981   0.719   1.756
 2254TIP3   OH2 6704   5.977   2.511   1.759
 2254TIP3    H1 6705   5.989   2.605   1.769
 2254TIP3    H2 6706   5.984   2.476   1.848
 2255TIP3   OH2 6707   3.542   1.105   2.315
 2255TIP3    H1 6708   3.634   1.128   2.327
 2255TIP3    H2 6709   3.544   1.015   2.281
 2256TIP3   OH2 6710   2.575   2.558   5.539
 2256TIP3    H1 6711   2.539   2.642   5.510
 2256TIP3    H2 6712   2.559   2.557   5.634
 2257TIP3   OH2 6713   4.392   1.359   3.539
 2257TIP3    H1 6714   4.450   1.336   3.612
 2257TIP3    H2 6715   4.357   1.444   3.563
 2258TIP3   OH2 6716   0.239   6.612   2.355
 2258TIP3    H1 6717   0.231   6.691   2.301
 2258TIP3    H2 6718   0.153   6.600   2.394
 2259TIP3   OH2 6719   4.459   3.546   3.554
 2259TIP3    H1 6720   4.420   3.631   3.577
 2259TIP3    H2 6721   4.413   3.520   3.474
 2260TIP3   OH2 6722   0.230   2.715   4.583
 2260TIP3    H1 6723   0.146   2.698   4.539
 2260TIP3    H2 6724   0.289   2.741   4.512
 2261TIP3   OH2 6725   4.453   7.641   5.838
 2261TIP3    H1 6726   4.454   7.584   5.915
 2261TIP3    H2 6727   4.433   7.728   5.873
 2262TIP3   OH2 6728   4.551   7.373   0.614
 2262TIP3    H1 6729   4.498   7.373   0.534
 2262TIP3    H2 6730   4.494   7.338   0.681
 2263TIP3   OH2 6731   2.547   4.754   0.038
 2263TIP3    H1 6732   2.626   4.803   0.061
 2263TIP3    H2 6733   2.570   4.706  -0.041
 2264TIP3   OH2 6734   3.997   5.316   5.738
 2264TIP3    H1 6735   3.907   5.290   5.757
 2264TIP3    H2 6736   4.002   5.318   5.642
 2265TIP3   OH2 6737   5.533   4.601   6.742
 2265TIP3    H1 6738   5.577   4.681   6.772
 2265TIP3    H2 6739   5.558   4.535   6.805
 2266TIP3   OH2 6740   2.549   6.182   4.035
 2266TIP3    H1 6741   2.544   6.097   4.078
 2266TIP3    H2 6742   2.533   6.245   4.105
 2267TIP3   OH2 6743   3.409   3.011   6.530
 2267TIP3    H1 6744   3.444   3.008   6.619
 2267TIP3    H2 6745   3.365   3.095   6.525
 2268TIP3   OH2 6746   5.326   1.025   3.631
 2268TIP3    H1 6747   5.278   0.974   3.696
 2268TIP3    H2 6748   5.260   1.047   3.565
 2269TIP3   OH2 6749   1.643   0.238   5.036
 2269TIP3    H1 6750   1.718   0.179   5.025
 2269TIP3    H2 6751   1.616   0.260   4.947
 2270TIP3   OH2 6752   0.106   7.674   6.094
 2270TIP3    H1 6753   0.126   7.612   6.024
 2270TIP3    H2 6754   0.189   7.720   6.109
 2271TIP3   OH2 6755   1.050   0.343   4.508
 2271TIP3    H1 6756   0.958   0.320   4.514
 2271TIP3    H2 6757   1.055   0.432   4.544
 2272TIP3   OH2 6758   1.888   7.012   1.416
 2272TIP3    H1 6759   1.827   7.038   1.485
 2272TIP3    H2 6760   1.890   7.086   1.356
 2273TIP3   OH2 6761   2.315   6.958   4.413
 2273TIP3    H1 6762   2.306   7.040   4.461
 2273TIP3    H2 6763   2.273   6.975   4.328
 2274TIP3   OH2 6764   1.218   6.341   2.024
 2274TIP3    H1 6765   1.151   6.275   2.039
 2274TIP3    H2 6766   1.177   6.404   1.964
 2275TIP3   OH2 6767   0.465   6.626   0.474
 2275TIP3    H1 6768   0.526   6.590   0.538
 2275TIP3    H2 6769   0.381   6.584   0.494
 2276TIP3   OH2 6770   6.504   0.348   2.072
 2276TIP3    H1 6771   6.411   0.328   2.064
 2276TIP3    H2 6772   6.522   0.343   2.166
 2277TIP3   OH2 6773   4.421   6.238   6.170
 2277TIP3    H1 6774   4.462   6.202   6.091
 2277TIP3    H2 6775   4.342   6.186   6.182
 2278TIP3   OH2 6776   4.569   4.763   1.684
 2278TIP3    H1 6777   4.606   4.762   1.773
 2278TIP3    H2 6778   4.515   4.842   1.681
 2279TIP3   OH2 6779   0.749   1.701   0.193
 2279TIP3    H1 6780   0.763   1.781   0.142
 2279TIP3    H2 6781   0.691   1.648   0.139
 2280TIP3   OH2 6782   4.998   2.568   5.405
 2280TIP3    H1 6783   4.924   2.576   5.465
 2280TIP3    H2 6784   5.041   2.654   5.409
 2281TIP3   OH2 6785   0.904   7.488   5.667
 2281TIP3    H1 6786   0.991   7.520   5.692
 2281TIP3    H2 6787   0.843   7.550   5.707
 2282TIP3   OH2 6788   6.197   0.886   0.129
 2282TIP3    H1 6789   6.283   0.852   0.104
 2282TIP3    H2 6790   6.209   0.917   0.219
 2283TIP3   OH2 6791   5.752   6.052   0.197
 2283TIP3    H1 6792   5.798   6.122   0.150
 2283TIP3    H2 6793   5.665   6.088   0.214
 2284TIP3   OH2 6794   4.567   1.334   3.205
 2284TIP3    H1 6795   4.482   1.337   3.160
 2284TIP3    H2 6796   4.589   1.426   3.221
 2285TIP3   OH2 6797   5.569   0.282   5.878
 2285TIP3    H1 6798   5.573   0.302   5.972
 2285TIP3    H2 6799   5.579   0.186   5.874
 2286TIP3   OH2 6800   7.961   7.116   0.213
 2286TIP3    H1 6801   7.865   7.118   0.210
 2286TIP3    H2 6802   7.988   7.187   0.154
 2287TIP3   OH2 6803   0.091   1.211   1.355
 2287TIP3    H1 6804   0.185   1.196   1.346
 2287TIP3    H2 6805   0.061   1.137   1.408
 2288TIP3   OH2 6806   6.289   4.050   5.078
 2288TIP3    H1 6807   6.220   4.002   5.032
 2288TIP3    H2 6808   6.254   4.138   5.088
 2289TIP3   OH2 6809   0.711   5.485   5.640
 2289TIP3    H1 6810   0.663   5.444   5.712
 2289TIP3    H2 6811   0.644   5.531   5.590
 2290TIP3   OH2 6812   7.859   6.532   3.754
 2290TIP3    H1 6813   7.885   6.468   3.819
 2290TIP3    H2 6814   7.778   6.496   3.717
 2291TIP3   OH2 6815   7.788   0.635   4.276
 2291TIP3    H1 6816   7.747   0.654   4.360
 2291TIP3    H2 6817   7.753   0.702   4.217
 2292TIP3   OH2 6818   2.478   2.528   3.552
 2292TIP3    H1 6819   2.397   2.487   3.523
 2292TIP3    H2 6820   2.545   2.495   3.491
 2293TIP3   OH2 6821   5.559   3.087   2.399
 2293TIP3    H1 6822   5.583   3.082   2.491
 2293TIP3    H2 6823   5.469   3.056   2.395
 2294TIP3   OH2 6824   7.695   3.757   2.761
 2294TIP3    H1 6825   7.713   3.679   2.709
 2294TIP3    H2 6826   7.720   3.830   2.704
 2295TIP3   OH2 6827   5.350   2.032   6.346
 2295TIP3    H1 6828   5.355   1.939   6.368
 2295TIP3    H2 6829   5.258   2.054   6.358
 2296TIP3   OH2 6830   0.556   2.217   3.150
 2296TIP3    H1 6831   0.632   2.161   3.138
 2296TIP3    H2 6832   0.481   2.160   3.133
 2297TIP3   OH2 6833   5.894   3.772   2.435
 2297TIP3    H1 6834   5.942   3.842   2.391
 2297TIP3    H2 6835   5.893   3.700   2.372
 2298TIP3   OH2 6836   4.287   0.603   0.738
 2298TIP3    H1 6837   4.218   0.642   0.684
 2298TIP3    H2 6838   4.252   0.606   0.827
 2299TIP3   OH2 6839   0.033   6.117   2.280
 2299TIP3    H1 6840   0.004   6.132   2.190
 2299TIP3    H2 6841   0.100   6.049   2.273
 2300TIP3   OH2 6842   0.828   4.143   4.708
 2300TIP3    H1 6843   0.767   4.071   4.726
 2300TIP3    H2 6844   0.773   4.216   4.681
 2301TIP3   OH2 6845   1.581   1.599   2.921
 2301TIP3    H1 6846   1.541   1.556   2.997
 2301TIP3    H2 6847   1.609   1.527   2.864
 2302TIP3   OH2 6848   8.139   4.241   6.602
 2302TIP3    H1 6849   8.076   4.195   6.657
 2302TIP3    H2 6850   8.221   4.240   6.652
 2303TIP3   OH2 6851   2.868   4.680   0.482
 2303TIP3    H1 6852   2.853   4.586   0.496
 2303TIP3    H2 6853   2.939   4.703   0.541
 2304TIP3   OH2 6854   6.273   0.691   5.313
 2304TIP3    H1 6855   6.348   0.639   5.339
 2304TIP3    H2 6856   6.237   0.724   5.395
 2305TIP3   OH2 6857   5.031   4.992   2.623
 2305TIP3    H1 6858   5.008   5.021   2.711
 2305TIP3    H2 6859   4.952   4.948   2.590
 2306TIP3   OH2 6860   7.772   1.621   2.042
 2306TIP3    H1 6861   7.856   1.638   2.084
 2306TIP3    H2 6862   7.711   1.610   2.115
 2307TIP3   OH2 6863   3.579   1.714   6.494
 2307TIP3    H1 6864   3.575   1.622   6.469
 2307TIP3    H2 6865   3.632   1.755   6.425
 2308TIP3   OH2 6866   2.282   3.509   5.909
 2308TIP3    H1 6867   2.188   3.528   5.911
 2308TIP3    H2 6868   2.287   3.416   5.888
 2309TIP3   OH2 6869   1.029   0.713   1.637
 2309TIP3    H1 6870   1.037   0.773   1.712
 2309TIP3    H2 6871   1.047   0.767   1.561
 2310TIP3   OH2 6872   0.116   5.955   4.624
 2310TIP3    H1 6873   0.081   5.879   4.577
 2310TIP3    H2 6874   0.164   5.918   4.698
 2311TIP3   OH2 6875   4.083   4.393   3.139
 2311TIP3    H1 6876   4.095   4.431   3.052
 2311TIP3    H2 6877   4.047   4.464   3.192
 2312TIP3   OH2 6878   6.588   6.343   0.895
 2312TIP3    H1 6879   6.683   6.357   0.885
 2312TIP3    H2 6880   6.578   6.312   0.985
 2313TIP3   OH2 6881   3.410   3.280   4.883
 2313TIP3    H1 6882   3.394   3.247   4.795
 2313TIP3    H2 6883   3.360   3.362   4.887
 2314TIP3   OH2 6884   1.178   3.664   4.635
 2314TIP3    H1 6885   1.133   3.705   4.562
 2314TIP3    H2 6886   1.175   3.730   4.705
 2315TIP3   OH2 6887   2.158   6.578   6.243
 2315TIP3    H1 6888   2.076   6.599   6.199
 2315TIP3    H2 6889   2.149   6.485   6.266
 2316TIP3   OH2 6890   5.144   4.701   2.342
 2316TIP3    H1 6891   5.074   4.760   2.312
 2316TIP3    H2 6892   5.192   4.752   2.407
 2317TIP3   OH2 6893   6.857   7.215   0.268
 2317TIP3    H1 6894   6.917   7.274   0.222
 2317TIP3    H2 6895   6.883   7.127   0.239
 2318TIP3   OH2 6896   4.055   6.374   2.035
 2318TIP3    H1 6897   3.984   6.416   1.987
 2318TIP3    H2 6898   4.135   6.409   1.995
 2319TIP3   OH2 6899   5.254   7.416   0.595
 2319TIP3    H1 6900   5.239   7.323   0.575
 2319TIP3    H2 6901   5.349   7.426   0.588
 2320TIP3   OH2 6902   7.466   5.428   4.835
 2320TIP3    H1 6903   7.418   5.350   4.863
 2320TIP3    H2 6904   7.523   5.448   4.909
 2321TIP3   OH2 6905   8.132   0.547   4.275
 2321TIP3    H1 6906   8.152   0.621   4.217
 2321TIP3    H2 6907   8.039   0.530   4.261
 2322TIP3   OH2 6908   6.260   0.252   3.766
 2322TIP3    H1 6909   6.196   0.218   3.704
 2322TIP3    H2 6910   6.323   0.180   3.779
 2323TIP3   OH2 6911   4.525   0.473   6.028
 2323TIP3    H1 6912   4.543   0.567   6.032
 2323TIP3    H2 6913   4.611   0.432   6.028
 2324TIP3   OH2 6914   3.486   6.786   1.580
 2324TIP3    H1 6915   3.408   6.747   1.542
 2324TIP3    H2 6916   3.559   6.736   1.544
 2325TIP3   OH2 6917   7.731   7.743   5.295
 2325TIP3    H1 6918   7.781   7.692   5.232
 2325TIP3    H2 6919   7.796   7.801   5.335
 2326TIP3   OH2 6920   5.881   7.813   1.432
 2326TIP3    H1 6921   5.884   7.764   1.350
 2326TIP3    H2 6922   5.881   7.747   1.501
 2327TIP3   OH2 6923   5.387   2.233   1.766
 2327TIP3    H1 6924   5.323   2.224   1.837
 2327TIP3    H2 6925   5.341   2.204   1.688
 2328TIP3   OH2 6926   1.255   2.636   3.148
 2328TIP3    H1 6927   1.278   2.546   3.171
 2328TIP3    H2 6928   1.161   2.642   3.163
 2329TIP3   OH2 6929   7.563   3.050   6.611
 2329TIP3    H1 6930   7.635   3.092   6.563
 2329TIP3    H2 6931   7.494   3.038   6.546
 2330TIP3   OH2 6932   0.391   1.762   0.103
 2330TIP3    H1 6933   0.400   1.849   0.065
 2330TIP3    H2 6934   0.469   1.715   0.073
 2331TIP3   OH2 6935   6.682   3.656   5.309
 2331TIP3    H1 6936   6.765   3.671   5.263
 2331TIP3    H2 6937   6.697   3.692   5.397
 2332TIP3   OH2 6938   1.111   4.658   1.114
 2332TIP3    H1 6939   1.081   4.629   1.200
 2332TIP3    H2 6940   1.082   4.589   1.055
 2333TIP3   OH2 6941   2.326   3.124   3.139
 2333TIP3    H1 6942   2.338   3.202   3.193
 2333TIP3    H2 6943   2.244   3.086   3.168
 2334TIP3   OH2 6944   6.475   3.494   5.898
 2334TIP3    H1 6945   6.541   3.455   5.955
 2334TIP3    H2 6946   6.471   3.435   5.823
 2335TIP3   OH2 6947   3.252   5.652   3.578
 2335TIP3    H1 6948   3.283   5.671   3.490
 2335TIP3    H2 6949   3.183   5.587   3.567
 2336TIP3   OH2 6950   7.753   4.579   3.296
 2336TIP3    H1 6951   7.841   4.590   3.333
 2336TIP3    H2 6952   7.763   4.508   3.233
 2337TIP3   OH2 6953   6.735   2.973   0.351
 2337TIP3    H1 6954   6.647   3.009   0.367
 2337TIP3    H2 6955   6.719   2.891   0.305
 2338TIP3   OH2 6956   1.566   5.233   2.682
 2338TIP3    H1 6957   1.633   5.186   2.731
 2338TIP3    H2 6958   1.484   5.214   2.729
 2339TIP3   OH2 6959   3.309   7.221   3.844
 2339TIP3    H1 6960   3.332   7.201   3.934
 2339TIP3    H2 6961   3.274   7.139   3.809
 2340TIP3   OH2 6962   7.483   5.072   2.707
 2340TIP3    H1 6963   7.437   5.070   2.623
 2340TIP3    H2 6964   7.460   4.989   2.749
 2341TIP3   OH2 6965   6.124   0.518   6.181
 2341TIP3    H1 6966   6.213   0.532   6.149
 2341TIP3    H2 6967   6.129   0.530   6.276
 2342TIP3   OH2 6968   1.090   4.321   3.699
 2342TIP3    H1 6969   1.116   4.243   3.748
 2342TIP3    H2 6970   1.147   4.320   3.622
 2343TIP3   OH2 6971   7.734   3.042   2.690
 2343TIP3    H1 6972   7.709   3.108   2.755
 2343TIP3    H2 6973   7.820   3.011   2.718
 2344TIP3   OH2 6974   2.688   1.712   2.079
 2344TIP3    H1 6975   2.767   1.664   2.102
 2344TIP3    H2 6976   2.641   1.654   2.020
 2345TIP3   OH2 6977   2.923   3.184   2.232
 2345TIP3    H1 6978   2.990   3.226   2.287
 2345TIP3    H2 6979   2.974   3.130   2.170
 2346TIP3   OH2 6980   0.273   4.316   5.554
 2346TIP3    H1 6981   0.330   4.289   5.626
 2346TIP3    H2 6982   0.195   4.263   5.563
 2347TIP3   OH2 6983   3.136   6.855   5.332
 2347TIP3    H1 6984   3.117   6.777   5.280
 2347TIP3    H2 6985   3.083   6.924   5.293
 2348TIP3   OH2 6986   4.484   7.414   2.883
 2348TIP3    H1 6987   4.436   7.391   2.962
 2348TIP3    H2 6988   4.553   7.347   2.875
 2349TIP3   OH2 6989   7.930   5.856   6.361
 2349TIP3    H1 6990   7.950   5.949   6.349
 2349TIP3    H2 6991   8.007   5.810   6.327
 2350TIP3   OH2 6992   2.120   0.331   2.692
 2350TIP3    H1 6993   2.146   0.244   2.722
 2350TIP3    H2 6994   2.182   0.352   2.623
 2351TIP3   OH2 6995   3.292   6.171   0.448
 2351TIP3    H1 6996   3.210   6.123   0.460
 2351TIP3    H2 6997   3.319   6.150   0.358
 2352TIP3   OH2 6998   3.185   7.097   6.700
 2352TIP3    H1 6999   3.153   7.062   6.617
 2352TIP3    H2 7000   3.111   7.148   6.734
 2353TIP3   OH2 7001   6.312   6.056   3.278
 2353TIP3    H1 7002   6.324   6.151   3.290
 2353TIP3    H2 7003   6.220   6.041   3.297
 2354TIP3   OH2 7004   5.654   3.049   0.334
 2354TIP3    H1 7005   5.636   2.957   0.312
 2354TIP3    H2 7006   5.568   3.092   0.328
 2355TIP3   OH2 7007   7.304   1.120   1.761
 2355TIP3    H1 7008   7.288   1.085   1.673
 2355TIP3    H2 7009   7.333   1.045   1.812
 2356TIP3   OH2 7010   0.100   2.250   0.678
 2356TIP3    H1 7011   0.052   2.287   0.605
 2356TIP3    H2 7012   0.109   2.157   0.656
 2357TIP3   OH2 7013   4.926   3.348   4.533
 2357TIP3    H1 7014   4.911   3.265   4.487
 2357TIP3    H2 7015   4.964   3.323   4.617
 2358TIP3   OH2 7016   5.583   5.392   5.373
 2358TIP3    H1 7017   5.502   5.420   5.332
 2358TIP3    H2 7018   5.628   5.342   5.306
 2359TIP3   OH2 7019   4.767   1.537   4.182
 2359TIP3    H1 7020   4.771   1.582   4.097
 2359TIP3    H2 7021   4.674   1.522   4.196
 2360TIP3   OH2 7022   1.498   7.352   0.326
 2360TIP3    H1 7023   1.455   7.328   0.408
 2360TIP3    H2 7024   1.573   7.405   0.352
 2361TIP3   OH2 7025   4.875   0.270   3.126
 2361TIP3    H1 7026   4.890   0.235   3.214
 2361TIP3    H2 7027   4.874   0.365   3.138
 2362TIP3   OH2 7028   2.929   1.253   6.248
 2362TIP3    H1 7029   3.023   1.269   6.257
 2362TIP3    H2 7030   2.889   1.337   6.272
 2363TIP3   OH2 7031   0.458   1.726   1.294
 2363TIP3    H1 7032   0.412   1.776   1.360
 2363TIP3    H2 7033   0.511   1.790   1.247
 2364TIP3   OH2 7034   3.029   5.320   5.421
 2364TIP3    H1 7035   3.110   5.311   5.371
 2364TIP3    H2 7036   2.968   5.363   5.360
 2365TIP3   OH2 7037   6.563   3.393   1.261
 2365TIP3    H1 7038   6.639   3.449   1.247
 2365TIP3    H2 7039   6.561   3.336   1.184
 2366TIP3   OH2 7040   4.296   3.567   1.747
 2366TIP3    H1 7041   4.273   3.594   1.658
 2366TIP3    H2 7042   4.237   3.618   1.803
 2367TIP3   OH2 7043   2.834   7.082   2.448
 2367TIP3    H1 7044   2.925   7.051   2.438
 2367TIP3    H2 7045   2.830   7.118   2.536
 2368TIP3   OH2 7046   6.740   3.080   2.751
 2368TIP3    H1 7047   6.815   3.125   2.789
 2368TIP3    H2 7048   6.780   3.020   2.686
 2369TIP3   OH2 7049   0.816   5.515   3.789
 2369TIP3    H1 7050   0.773   5.518   3.875
 2369TIP3    H2 7051   0.892   5.573   3.798
 2370TIP3   OH2 7052   2.979   3.746   3.807
 2370TIP3    H1 7053   2.936   3.756   3.721
 2370TIP3    H2 7054   2.938   3.668   3.845
 2371TIP3   OH2 7055   2.315   5.362   1.048
 2371TIP3    H1 7056   2.246   5.428   1.046
 2371TIP3    H2 7057   2.368   5.379   0.970
 2372TIP3   OH2 7058   7.340   1.950   4.503
 2372TIP3    H1 7059   7.400   1.954   4.428
 2372TIP3    H2 7060   7.383   1.893   4.566
 2373TIP3   OH2 7061   7.562   6.046   4.509
 2373TIP3    H1 7062   7.521   5.965   4.481
 2373TIP3    H2 7063   7.491   6.110   4.514
 2374TIP3   OH2 7064   6.186   4.950   6.502
 2374TIP3    H1 7065   6.201   4.994   6.586
 2374TIP3    H2 7066   6.234   5.003   6.438
 2375TIP3   OH2 7067   3.638   3.780   3.997
 2375TIP3    H1 7068   3.607   3.864   4.032
 2375TIP3    H2 7069   3.640   3.793   3.902
 2376TIP3   OH2 7070   3.539   0.354   0.312
 2376TIP3    H1 7071   3.503   0.413   0.245
 2376TIP3    H2 7072   3.553   0.271   0.267
 2377TIP3   OH2 7073   3.041   3.859   0.914
 2377TIP3    H1 7074   3.072   3.893   0.830
 2377TIP3    H2 7075   3.119   3.821   0.955
 2378TIP3   OH2 7076   7.953   0.078   4.554
 2378TIP3    H1 7077   7.936   0.120   4.469
 2378TIP3    H2 7078   7.930  -0.014   4.540
 2379TIP3   OH2 7079   3.175   2.358   1.901
 2379TIP3    H1 7080   3.140   2.407   1.826
 2379TIP3    H2 7081   3.153   2.267   1.882
 2380TIP3   OH2 7082   5.708   0.734   0.175
 2380TIP3    H1 7083   5.692   0.688   0.093
 2380TIP3    H2 7084   5.711   0.666   0.241
 2381TIP3   OH2 7085   6.115   3.061   3.995
 2381TIP3    H1 7086   6.136   3.078   4.087
 2381TIP3    H2 7087   6.059   3.134   3.969
 2382TIP3   OH2 7088   6.963   6.861   5.388
 2382TIP3    H1 7089   7.003   6.945   5.415
 2382TIP3    H2 7090   6.881   6.857   5.437
 2383TIP3   OH2 7091   0.833   6.870   6.495
 2383TIP3    H1 7092   0.923   6.903   6.487
 2383TIP3    H2 7093   0.835   6.784   6.454
 2384TIP3   OH2 7094   7.200   2.564   4.856
 2384TIP3    H1 7095   7.206   2.614   4.938
 2384TIP3    H2 7096   7.114   2.522   4.860
 2385TIP3   OH2 7097   4.293   7.142   1.229
 2385TIP3    H1 7098   4.245   7.191   1.296
 2385TIP3    H2 7099   4.385   7.155   1.252
 2386TIP3   OH2 7100   0.915   0.063   0.147
 2386TIP3    H1 7101   0.859   0.109   0.209
 2386TIP3    H2 7102   0.956  -0.007   0.198
 2387TIP3   OH2 7103   7.119   6.443   0.083
 2387TIP3    H1 7104   7.067   6.460   0.004
 2387TIP3    H2 7105   7.059   6.396   0.141
 2388TIP3   OH2 7106   5.233   3.384   1.704
 2388TIP3    H1 7107   5.195   3.297   1.714
 2388TIP3    H2 7108   5.316   3.379   1.752
 2389TIP3   OH2 7109   1.086   5.317   0.577
 2389TIP3    H1 7110   1.011   5.262   0.556
 2389TIP3    H2 7111   1.085   5.386   0.511
 2390TIP3   OH2 7112   8.060   4.737   2.676
 2390TIP3    H1 7113   8.041   4.679   2.602
 2390TIP3    H2 7114   8.124   4.800   2.642
 2391TIP3   OH2 7115   8.069   7.097   2.683
 2391TIP3    H1 7116   8.041   7.161   2.749
 2391TIP3    H2 7117   8.055   7.012   2.724
 2392TIP3   OH2 7118   5.468   4.328   5.939
 2392TIP3    H1 7119   5.449   4.414   5.902
 2392TIP3    H2 7120   5.521   4.347   6.017
 2393TIP3   OH2 7121   6.565   3.346   4.237
 2393TIP3    H1 7122   6.486   3.324   4.188
 2393TIP3    H2 7123   6.535   3.405   4.306
 2394TIP3   OH2 7124   4.852   4.315   0.973
 2394TIP3    H1 7125   4.797   4.361   1.036
 2394TIP3    H2 7126   4.798   4.311   0.894
 2395TIP3   OH2 7127   0.980   6.117   4.005
 2395TIP3    H1 7128   1.063   6.081   3.974
 2395TIP3    H2 7129   0.937   6.150   3.926
 2396TIP3   OH2 7130   6.764   5.946   2.471
 2396TIP3    H1 7131   6.729   5.963   2.559
 2396TIP3    H2 7132   6.708   5.877   2.436
 2397TIP3   OH2 7133   2.144   5.090   1.582
 2397TIP3    H1 7134   2.162   5.119   1.671
 2397TIP3    H2 7135   2.229   5.069   1.544
 2398TIP3   OH2 7136   0.974   5.187   2.999
 2398TIP3    H1 7137   1.010   5.222   2.918
 2398TIP3    H2 7138   0.935   5.263   3.042
 2399TIP3   OH2 7139   7.207   4.433   2.913
 2399TIP3    H1 7140   7.260   4.454   2.990
 2399TIP3    H2 7141   7.204   4.338   2.911
 2400TIP3   OH2 7142   1.278   7.200   6.619
 2400TIP3    H1 7143   1.317   7.123   6.580
 2400TIP3    H2 7144   1.205   7.223   6.560
 2401TIP3   OH2 7145   6.465   6.235   1.135
 2401TIP3    H1 7146   6.462   6.193   1.221
 2401TIP3    H2 7147   6.385   6.207   1.091
 2402TIP3   OH2 7148   3.231   5.631   0.390
 2402TIP3    H1 7149   3.256   5.566   0.324
 2402TIP3    H2 7150   3.153   5.595   0.431
 2403TIP3   OH2 7151   5.959   2.330   5.652
 2403TIP3    H1 7152   6.053   2.347   5.661
 2403TIP3    H2 7153   5.932   2.299   5.738
 2404TIP3   OH2 7154   7.133   3.438   5.885
 2404TIP3    H1 7155   7.195   3.399   5.947
 2404TIP3    H2 7156   7.123   3.528   5.915
 2405TIP3   OH2 7157   7.715   3.593   0.829
 2405TIP3    H1 7158   7.676   3.603   0.743
 2405TIP3    H2 7159   7.715   3.682   0.865
 2406TIP3   OH2 7160   0.906   2.679   1.715
 2406TIP3    H1 7161   0.951   2.604   1.676
 2406TIP3    H2 7162   0.938   2.681   1.805
 2407TIP3   OH2 7163   0.715   6.916   0.060
 2407TIP3    H1 7164   0.716   6.888   0.151
 2407TIP3    H2 7165   0.637   6.874   0.023
 2408TIP3   OH2 7166   5.740   7.143   3.605
 2408TIP3    H1 7167   5.692   7.073   3.561
 2408TIP3    H2 7168   5.827   7.107   3.619
 2409TIP3   OH2 7169   4.334   3.195   0.211
 2409TIP3    H1 7170   4.342   3.149   0.295
 2409TIP3    H2 7171   4.327   3.125   0.146
 2410TIP3   OH2 7172   0.322   5.330   1.071
 2410TIP3    H1 7173   0.317   5.421   1.101
 2410TIP3    H2 7174   0.231   5.302   1.066
 2411TIP3   OH2 7175   4.835   7.362   3.143
 2411TIP3    H1 7176   4.811   7.439   3.091
 2411TIP3    H2 7177   4.844   7.291   3.078
 2412TIP3   OH2 7178   6.714   5.195   6.067
 2412TIP3    H1 7179   6.640   5.255   6.059
 2412TIP3    H2 7180   6.757   5.199   5.981
 2413TIP3   OH2 7181   5.382   3.912   0.961
 2413TIP3    H1 7182   5.364   3.898   0.868
 2413TIP3    H2 7183   5.477   3.914   0.967
 2414TIP3   OH2 7184   3.287   4.991   4.086
 2414TIP3    H1 7185   3.342   5.035   4.021
 2414TIP3    H2 7186   3.324   4.903   4.093
 2415TIP3   OH2 7187   5.055   5.455   2.606
 2415TIP3    H1 7188   5.097   5.381   2.561
 2415TIP3    H2 7189   5.026   5.418   2.689
 2416TIP3   OH2 7190   1.222   3.885   2.803
 2416TIP3    H1 7191   1.131   3.912   2.796
 2416TIP3    H2 7192   1.255   3.888   2.714
 2417TIP3   OH2 7193   3.579   5.647   5.842
 2417TIP3    H1 7194   3.619   5.606   5.765
 2417TIP3    H2 7195   3.534   5.575   5.887
 2418TIP3   OH2 7196   2.542   1.531   1.105
 2418TIP3    H1 7197   2.576   1.493   1.185
 2418TIP3    H2 7198   2.617   1.575   1.065
 2419TIP3   OH2 7199   3.952   7.698   2.536
 2419TIP3    H1 7200   3.943   7.790   2.512
 2419TIP3    H2 7201   4.047   7.682   2.539
 2420TIP3   OH2 7202   5.687   6.683   3.878
 2420TIP3    H1 7203   5.646   6.738   3.811
 2420TIP3    H2 7204   5.613   6.638   3.919
 2421TIP3   OH2 7205   5.251   5.054   3.573
 2421TIP3    H1 7206   5.206   5.134   3.599
 2421TIP3    H2 7207   5.221   4.988   3.636
 2422TIP3   OH2 7208   5.097   6.061   0.330
 2422TIP3    H1 7209   5.170   6.013   0.370
 2422TIP3    H2 7210   5.107   6.047   0.236
 2423TIP3   OH2 7211   5.938   4.844   4.106
 2423TIP3    H1 7212   6.033   4.833   4.103
 2423TIP3    H2 7213   5.903   4.757   4.124
 2424TIP3   OH2 7214   0.335   3.221   2.301
 2424TIP3    H1 7215   0.354   3.134   2.337
 2424TIP3    H2 7216   0.252   3.211   2.254
 2425TIP3   OH2 7217   4.079   3.934   5.206
 2425TIP3    H1 7218   4.110   3.864   5.148
 2425TIP3    H2 7219   4.032   3.888   5.276
 2426TIP3   OH2 7220   7.918   6.147   6.364
 2426TIP3    H1 7221   8.012   6.137   6.377
 2426TIP3    H2 7222   7.908   6.164   6.270
 2427TIP3   OH2 7223   5.885   0.501   2.355
 2427TIP3    H1 7224   5.932   0.480   2.275
 2427TIP3    H2 7225   5.900   0.595   2.368
 2428TIP3   OH2 7226   3.806   4.972   1.597
 2428TIP3    H1 7227   3.880   5.002   1.650
 2428TIP3    H2 7228   3.847   4.936   1.518
 2429TIP3   OH2 7229   7.520   2.440   0.224
 2429TIP3    H1 7230   7.506   2.443   0.318
 2429TIP3    H2 7231   7.432   2.428   0.187
 2430TIP3   OH2 7232   7.216   1.565   5.817
 2430TIP3    H1 7233   7.214   1.565   5.721
 2430TIP3    H2 7234   7.205   1.473   5.841
 2431TIP3   OH2 7235   6.636   5.438   4.150
 2431TIP3    H1 7236   6.614   5.410   4.061
 2431TIP3    H2 7237   6.572   5.507   4.169
 2432TIP3   OH2 7238   1.343   7.816  -0.004
 2432TIP3    H1 7239   1.359   7.729   0.033
 2432TIP3    H2 7240   1.337   7.873   0.072
 2433TIP3   OH2 7241   0.243   5.798   2.038
 2433TIP3    H1 7242   0.229   5.880   1.990
 2433TIP3    H2 7243   0.324   5.762   2.001
 2434TIP3   OH2 7244   1.954   1.734   2.706
 2434TIP3    H1 7245   1.979   1.654   2.659
 2434TIP3    H2 7246   1.897   1.781   2.645
 2435TIP3   OH2 7247   7.878   7.784   0.488
 2435TIP3    H1 7248   7.878   7.694   0.455
 2435TIP3    H2 7249   7.889   7.838   0.410
 2436TIP3   OH2 7250   0.993   6.506   3.507
 2436TIP3    H1 7251   1.019   6.527   3.596
 2436TIP3    H2 7252   0.901   6.482   3.513
 2437TIP3   OH2 7253   7.372   7.189   1.045
 2437TIP3    H1 7254   7.334   7.229   0.966
 2437TIP3    H2 7255   7.399   7.264   1.099
 2438TIP3   OH2 7256   6.279   1.568   5.655
 2438TIP3    H1 7257   6.268   1.534   5.744
 2438TIP3    H2 7258   6.203   1.625   5.641
 2439TIP3   OH2 7259   4.752   2.258   1.627
 2439TIP3    H1 7260   4.789   2.179   1.667
 2439TIP3    H2 7261   4.670   2.229   1.588
 2440TIP3   OH2 7262   0.496   5.955   3.609
 2440TIP3    H1 7263   0.495   6.051   3.615
 2440TIP3    H2 7264   0.425   5.934   3.549
 2441TIP3   OH2 7265   4.856   3.619   3.967
 2441TIP3    H1 7266   4.877   3.675   4.041
 2441TIP3    H2 7267   4.940   3.598   3.927
 2442TIP3   OH2 7268   2.220   0.710   0.406
 2442TIP3    H1 7269   2.295   0.769   0.403
 2442TIP3    H2 7270   2.228   0.656   0.328
 2443TIP3   OH2 7271   7.036   4.442   2.652
 2443TIP3    H1 7272   7.071   4.453   2.740
 2443TIP3    H2 7273   7.004   4.352   2.650
 2444TIP3   OH2 7274   0.908   4.827   1.285
 2444TIP3    H1 7275   0.955   4.876   1.217
 2444TIP3    H2 7276   0.820   4.814   1.250
 2445TIP3   OH2 7277   1.217   1.765   3.762
 2445TIP3    H1 7278   1.291   1.705   3.758
 2445TIP3    H2 7279   1.196   1.783   3.670
 2446TIP3   OH2 7280   5.074   4.701   3.653
 2446TIP3    H1 7281   5.013   4.629   3.636
 2446TIP3    H2 7282   5.160   4.662   3.639
 2447TIP3   OH2 7283   5.494   5.919   3.725
 2447TIP3    H1 7284   5.421   5.900   3.784
 2447TIP3    H2 7285   5.546   5.984   3.772
 2448TIP3   OH2 7286   5.956   6.966   5.478
 2448TIP3    H1 7287   6.034   7.021   5.479
 2448TIP3    H2 7288   5.955   6.928   5.390
 2449TIP3   OH2 7289   7.846   7.776   2.437
 2449TIP3    H1 7290   7.804   7.690   2.443
 2449TIP3    H2 7291   7.791   7.833   2.491
 2450TIP3   OH2 7292   3.920   2.813   4.171
 2450TIP3    H1 7293   3.939   2.854   4.256
 2450TIP3    H2 7294   3.824   2.817   4.164
 2451TIP3   OH2 7295   5.653   3.668   2.617
 2451TIP3    H1 7296   5.732   3.710   2.583
 2451TIP3    H2 7297   5.639   3.593   2.559
 2452TIP3   OH2 7298   5.082   0.321   1.966
 2452TIP3    H1 7299   5.116   0.293   2.051
 2452TIP3    H2 7300   5.143   0.285   1.902
 2453TIP3   OH2 7301   1.972   5.439   5.464
 2453TIP3    H1 7302   1.942   5.444   5.373
 2453TIP3    H2 7303   1.930   5.360   5.498
 2454TIP3   OH2 7304   2.949   1.916   4.275
 2454TIP3    H1 7305   2.919   1.872   4.355
 2454TIP3    H2 7306   2.919   2.006   4.285
 2455TIP3   OH2 7307   7.919   7.687   3.010
 2455TIP3    H1 7308   7.929   7.601   3.052
 2455TIP3    H2 7309   8.009   7.717   2.995
 2456TIP3   OH2 7310   4.390   7.271   0.803
 2456TIP3    H1 7311   4.297   7.268   0.779
 2456TIP3    H2 7312   4.391   7.312   0.889
 2457TIP3   OH2 7313   5.259   4.790   5.802
 2457TIP3    H1 7314   5.166   4.813   5.804
 2457TIP3    H2 7315   5.304   4.874   5.794
 2458TIP3   OH2 7316   2.230   6.302   2.680
 2458TIP3    H1 7317   2.196   6.377   2.729
 2458TIP3    H2 7318   2.155   6.243   2.674
 2459TIP3   OH2 7319   7.224   5.003   4.251
 2459TIP3    H1 7320   7.205   5.076   4.311
 2459TIP3    H2 7321   7.313   4.977   4.275
 2460TIP3   OH2 7322   1.888   6.507   2.151
 2460TIP3    H1 7323   1.889   6.486   2.244
 2460TIP3    H2 7324   1.885   6.422   2.107
 2461TIP3   OH2 7325   2.585   1.874   2.333
 2461TIP3    H1 7326   2.647   1.832   2.274
 2461TIP3    H2 7327   2.527   1.924   2.276
 2462TIP3   OH2 7328   3.906   6.043   0.830
 2462TIP3    H1 7329   3.969   5.980   0.795
 2462TIP3    H2 7330   3.880   6.005   0.914
 2463TIP3   OH2 7331   6.520   6.337   4.088
 2463TIP3    H1 7332   6.505   6.403   4.021
 2463TIP3    H2 7333   6.540   6.257   4.039
 2464TIP3   OH2 7334   5.981   6.021   3.612
 2464TIP3    H1 7335   6.045   5.954   3.637
 2464TIP3    H2 7336   5.909   5.973   3.572
 2465TIP3   OH2 7337   1.395   1.487   3.482
 2465TIP3    H1 7338   1.403   1.508   3.575
 2465TIP3    H2 7339   1.354   1.401   3.481
 2466TIP3   OH2 7340   6.002   4.656   0.078
 2466TIP3    H1 7341   5.997   4.575   0.128
 2466TIP3    H2 7342   6.064   4.711   0.125
 2467TIP3   OH2 7343   1.868   0.623   3.842
 2467TIP3    H1 7344   1.786   0.599   3.800
 2467TIP3    H2 7345   1.896   0.543   3.887
 2468TIP3   OH2 7346   4.519   3.421   2.718
 2468TIP3    H1 7347   4.538   3.490   2.781
 2468TIP3    H2 7348   4.601   3.374   2.707
 2469TIP3   OH2 7349   0.634   2.268   2.729
 2469TIP3    H1 7350   0.629   2.180   2.764
 2469TIP3    H2 7351   0.614   2.325   2.803
 2470TIP3   OH2 7352   1.375   6.541   2.424
 2470TIP3    H1 7353   1.303   6.531   2.487
 2470TIP3    H2 7354   1.444   6.585   2.473
 2471TIP3   OH2 7355   1.515   1.347   6.056
 2471TIP3    H1 7356   1.496   1.367   5.965
 2471TIP3    H2 7357   1.587   1.284   6.053
 2472TIP3   OH2 7358   7.939   3.178   4.520
 2472TIP3    H1 7359   7.992   3.198   4.597
 2472TIP3    H2 7360   8.003   3.166   4.450
 2473TIP3   OH2 7361   0.964   1.368   5.949
 2473TIP3    H1 7362   1.021   1.446   5.950
 2473TIP3    H2 7363   0.882   1.398   5.988
 2474TIP3   OH2 7364   6.365   6.927   1.914
 2474TIP3    H1 7365   6.299   6.959   1.852
 2474TIP3    H2 7366   6.347   6.976   1.994
 2475TIP3   OH2 7367   1.941   6.297   0.749
 2475TIP3    H1 7368   1.963   6.206   0.728
 2475TIP3    H2 7369   1.879   6.323   0.681
 2476TIP3   OH2 7370   5.150   6.870   1.811
 2476TIP3    H1 7371   5.241   6.869   1.780
 2476TIP3    H2 7372   5.100   6.830   1.740
 2477TIP3   OH2 7373   6.877   0.862   5.314
 2477TIP3    H1 7374   6.912   0.948   5.335
 2477TIP3    H2 7375   6.782   0.872   5.327
 2478TIP3   OH2 7376   8.224   2.351   5.748
 2478TIP3    H1 7377   8.204   2.412   5.676
 2478TIP3    H2 7378   8.302   2.305   5.718
 2479TIP3   OH2 7379   7.202   3.235   3.666
 2479TIP3    H1 7380   7.118   3.193   3.648
 2479TIP3    H2 7381   7.199   3.254   3.760
 2480TIP3   OH2 7382   2.574   1.570   5.692
 2480TIP3    H1 7383   2.555   1.597   5.782
 2480TIP3    H2 7384   2.488   1.553   5.653
 2481TIP3   OH2 7385   6.361   4.331   3.006
 2481TIP3    H1 7386   6.384   4.293   3.091
 2481TIP3    H2 7387   6.336   4.256   2.952
 2482TIP3   OH2 7388   4.157   5.359   4.861
 2482TIP3    H1 7389   4.247   5.369   4.892
 2482TIP3    H2 7390   4.111   5.436   4.894
 2483TIP3   OH2 7391   3.881   3.586   5.022
 2483TIP3    H1 7392   3.955   3.617   4.971
 2483TIP3    H2 7393   3.847   3.663   5.066
 2484TIP3   OH2 7394   1.743   0.179   3.451
 2484TIP3    H1 7395   1.756   0.098   3.402
 2484TIP3    H2 7396   1.770   0.158   3.541
 2485TIP3   OH2 7397   2.903   7.259   4.365
 2485TIP3    H1 7398   2.834   7.273   4.429
 2485TIP3    H2 7399   2.940   7.173   4.388
 2486TIP3   OH2 7400   6.664   6.772   3.796
 2486TIP3    H1 7401   6.585   6.809   3.835
 2486TIP3    H2 7402   6.724   6.846   3.787
 2487TIP3   OH2 7403   1.442   5.458   3.951
 2487TIP3    H1 7404   1.484   5.516   3.889
 2487TIP3    H2 7405   1.349   5.462   3.929
 2488TIP3   OH2 7406   7.416   6.940   3.439
 2488TIP3    H1 7407   7.351   6.887   3.392
 2488TIP3    H2 7408   7.472   6.976   3.370
 2489TIP3   OH2 7409   3.654   0.482   0.531
 2489TIP3    H1 7410   3.619   0.456   0.445
 2489TIP3    H2 7411   3.596   0.552   0.560
 2490TIP3   OH2 7412   6.336   3.429   2.619
 2490TIP3    H1 7413   6.406   3.367   2.638
 2490TIP3    H2 7414   6.355   3.461   2.530
 2491TIP3   OH2 7415   7.599   3.732   4.947
 2491TIP3    H1 7416   7.512   3.753   4.914
 2491TIP3    H2 7417   7.659   3.761   4.878
 2492TIP3   OH2 7418   3.924   3.971   6.175
 2492TIP3    H1 7419   3.883   4.015   6.101
 2492TIP3    H2 7420   4.012   4.008   6.181
 2493TIP3   OH2 7421   7.008   1.453   1.284
 2493TIP3    H1 7422   7.004   1.439   1.190
 2493TIP3    H2 7423   6.936   1.401   1.320
 2494TIP3   OH2 7424   4.073   4.491   6.288
 2494TIP3    H1 7425   4.136   4.442   6.236
 2494TIP3    H2 7426   4.046   4.430   6.357
 2495TIP3   OH2 7427   4.969   3.108   0.078
 2495TIP3    H1 7428   4.956   3.040   0.012
 2495TIP3    H2 7429   4.882   3.122   0.116
 2496TIP3   OH2 7430   3.315   3.171   4.653
 2496TIP3    H1 7431   3.395   3.175   4.602
 2496TIP3    H2 7432   3.246   3.202   4.593
 2497TIP3   OH2 7433   3.042   4.402   4.095
 2497TIP3    H1 7434   3.013   4.314   4.118
 2497TIP3    H2 7435   3.081   4.393   4.009
 2498TIP3   OH2 7436   0.832   3.861   3.723
 2498TIP3    H1 7437   0.860   3.824   3.638
 2498TIP3    H2 7438   0.913   3.884   3.767
 2499TIP3   OH2 7439   5.089   0.830   3.486
 2499TIP3    H1 7440   5.082   0.922   3.459
 2499TIP3    H2 7441   5.155   0.793   3.427
 2500TIP3   OH2 7442   4.906   5.593   4.434
 2500TIP3    H1 7443   4.998   5.571   4.443
 2500TIP3    H2 7444   4.902   5.644   4.353
 2501TIP3   OH2 7445   1.460   5.055   1.776
 2501TIP3    H1 7446   1.414   5.104   1.844
 2501TIP3    H2 7447   1.446   4.963   1.798
 2502TIP3   OH2 7448   6.288   2.993   2.136
 2502TIP3    H1 7449   6.213   2.943   2.103
 2502TIP3    H2 7450   6.364   2.937   2.119
 2503TIP3   OH2 7451   2.678   7.490   0.949
 2503TIP3    H1 7452   2.599   7.519   0.994
 2503TIP3    H2 7453   2.653   7.406   0.909
 2504TIP3   OH2 7454   1.691   6.879   1.755
 2504TIP3    H1 7455   1.750   6.832   1.813
 2504TIP3    H2 7456   1.604   6.864   1.792
 2505TIP3   OH2 7457   5.873   3.471   2.322
 2505TIP3    H1 7458   5.825   3.388   2.319
 2505TIP3    H2 7459   5.892   3.491   2.230
 2506TIP3   OH2 7460   1.517   0.140   4.431
 2506TIP3    H1 7461   1.425   0.159   4.447
 2506TIP3    H2 7462   1.517   0.080   4.357
 2507TIP3   OH2 7463   1.113   2.317   1.778
 2507TIP3    H1 7464   1.137   2.233   1.740
 2507TIP3    H2 7465   1.050   2.354   1.716
 2508TIP3   OH2 7466   3.216   4.534   6.488
 2508TIP3    H1 7467   3.174   4.574   6.411
 2508TIP3    H2 7468   3.261   4.608   6.531
 2509TIP3   OH2 7469   3.201   0.305   1.545
 2509TIP3    H1 7470   3.142   0.325   1.473
 2509TIP3    H2 7471   3.148   0.315   1.623
 2510TIP3   OH2 7472   6.022   7.219   5.982
 2510TIP3    H1 7473   5.962   7.216   5.907
 2510TIP3    H2 7474   6.100   7.262   5.948
 2511TIP3   OH2 7475   5.250   5.529   5.481
 2511TIP3    H1 7476   5.268   5.622   5.499
 2511TIP3    H2 7477   5.265   5.486   5.565
 2512TIP3   OH2 7478   5.129   5.943   1.771
 2512TIP3    H1 7479   5.111   6.036   1.759
 2512TIP3    H2 7480   5.220   5.932   1.743
 2513TIP3   OH2 7481   0.265   3.798   2.972
 2513TIP3    H1 7482   0.221   3.733   3.027
 2513TIP3    H2 7483   0.275   3.753   2.887
 2514TIP3   OH2 7484   7.504   7.515   5.386
 2514TIP3    H1 7485   7.465   7.572   5.319
 2514TIP3    H2 7486   7.541   7.575   5.450
 2515TIP3   OH2 7487   5.769   2.166   6.475
 2515TIP3    H1 7488   5.674   2.176   6.467
 2515TIP3    H2 7489   5.781   2.123   6.559
 2516TIP3   OH2 7490   4.367   1.129   1.231
 2516TIP3    H1 7491   4.310   1.205   1.228
 2516TIP3    H2 7492   4.441   1.156   1.286
 2517TIP3   OH2 7493   0.157   1.509   4.316
 2517TIP3    H1 7494   0.168   1.499   4.222
 2517TIP3    H2 7495   0.219   1.578   4.341
 2518TIP3   OH2 7496   1.606   2.881   1.542
 2518TIP3    H1 7497   1.531   2.853   1.490
 2518TIP3    H2 7498   1.677   2.889   1.478
 2519TIP3   OH2 7499   7.653   4.022   5.930
 2519TIP3    H1 7500   7.607   4.043   6.011
 2519TIP3    H2 7501   7.593   3.962   5.884
 2520TIP3   OH2 7502   5.943   2.623   5.899
 2520TIP3    H1 7503   5.848   2.612   5.893
 2520TIP3    H2 7504   5.965   2.681   5.826
 2521TIP3   OH2 7505   2.713   7.463   5.572
 2521TIP3    H1 7506   2.711   7.554   5.545
 2521TIP3    H2 7507   2.703   7.466   5.667
 2522TIP3   OH2 7508   2.440   7.430   2.845
 2522TIP3    H1 7509   2.528   7.467   2.848
 2522TIP3    H2 7510   2.410   7.447   2.756
 2523TIP3   OH2 7511   5.926   2.289   2.492
 2523TIP3    H1 7512   5.866   2.238   2.438
 2523TIP3    H2 7513   5.871   2.357   2.531
 2524TIP3   OH2 7514   1.076   1.000   6.195
 2524TIP3    H1 7515   1.144   1.067   6.191
 2524TIP3    H2 7516   0.998   1.043   6.159
 2525TIP3   OH2 7517   1.661   1.678   3.896
 2525TIP3    H1 7518   1.712   1.600   3.918
 2525TIP3    H2 7519   1.649   1.724   3.979
 2526TIP3   OH2 7520   8.205   7.318   0.864
 2526TIP3    H1 7521   8.166   7.230   0.857
 2526TIP3    H2 7522   8.165   7.356   0.942
 2527TIP3   OH2 7523   6.222   2.015   5.155
 2527TIP3    H1 7524   6.215   1.960   5.077
 2527TIP3    H2 7525   6.233   1.952   5.227
 2528TIP3   OH2 7526   6.047   5.239   2.572
 2528TIP3    H1 7527   6.049   5.335   2.576
 2528TIP3    H2 7528   6.027   5.220   2.480
 2529TIP3   OH2 7529   3.873   1.142   2.045
 2529TIP3    H1 7530   3.808   1.083   2.006
 2529TIP3    H2 7531   3.836   1.165   2.130
 2530TIP3   OH2 7532   7.474   0.619   3.262
 2530TIP3    H1 7533   7.569   0.613   3.250
 2530TIP3    H2 7534   7.461   0.697   3.315
 2531TIP3   OH2 7535   8.153   3.903   5.798
 2531TIP3    H1 7536   8.118   3.890   5.710
 2531TIP3    H2 7537   8.145   3.998   5.813
 2532TIP3   OH2 7538   1.862   0.825   4.390
 2532TIP3    H1 7539   1.950   0.860   4.405
 2532TIP3    H2 7540   1.833   0.794   4.475
 2533TIP3   OH2 7541   2.403   2.097   2.363
 2533TIP3    H1 7542   2.457   2.147   2.424
 2533TIP3    H2 7543   2.336   2.056   2.419
 2534TIP3   OH2 7544   7.667   5.075   2.041
 2534TIP3    H1 7545   7.709   5.146   1.992
 2534TIP3    H2 7546   7.613   5.120   2.106
 2535TIP3   OH2 7547   4.877   0.553   6.688
 2535TIP3    H1 7548   4.932   0.614   6.737
 2535TIP3    H2 7549   4.934   0.520   6.618
 2536TIP3   OH2 7550   2.777   5.784   6.649
 2536TIP3    H1 7551   2.718   5.853   6.680
 2536TIP3    H2 7552   2.725   5.732   6.588
 2537TIP3   OH2 7553   4.748   5.755   1.349
 2537TIP3    H1 7554   4.726   5.671   1.310
 2537TIP3    H2 7555   4.792   5.733   1.430
 2538TIP3   OH2 7556   5.435   5.512   3.089
 2538TIP3    H1 7557   5.372   5.445   3.064
 2538TIP3    H2 7558   5.501   5.465   3.140
 2539TIP3   OH2 7559   2.576   6.618   4.618
 2539TIP3    H1 7560   2.567   6.660   4.532
 2539TIP3    H2 7561   2.668   6.593   4.623
 2540TIP3   OH2 7562   1.951   2.132   5.141
 2540TIP3    H1 7563   1.988   2.156   5.056
 2540TIP3    H2 7564   1.992   2.193   5.202
 2541TIP3   OH2 7565   1.409   2.010   3.367
 2541TIP3    H1 7566   1.430   1.918   3.383
 2541TIP3    H2 7567   1.320   2.008   3.331
 2542TIP3   OH2 7568   6.653   1.792   0.980
 2542TIP3    H1 7569   6.652   1.719   1.041
 2542TIP3    H2 7570   6.604   1.861   1.024
 2543TIP3   OH2 7571   2.513   6.007   1.296
 2543TIP3    H1 7572   2.478   5.927   1.256
 2543TIP3    H2 7573   2.534   5.982   1.386
 2544TIP3   OH2 7574   6.484   7.019   1.093
 2544TIP3    H1 7575   6.413   7.067   1.134
 2544TIP3    H2 7576   6.467   7.025   0.999
 2545TIP3   OH2 7577   1.557   6.376   1.240
 2545TIP3    H1 7578   1.626   6.426   1.285
 2545TIP3    H2 7579   1.591   6.287   1.234
 2546TIP3   OH2 7580   0.886   4.275   2.594
 2546TIP3    H1 7581   0.860   4.335   2.524
 2546TIP3    H2 7582   0.900   4.191   2.549
 2547TIP3   OH2 7583   3.511   5.975   1.392
 2547TIP3    H1 7584   3.459   5.896   1.377
 2547TIP3    H2 7585   3.532   5.972   1.485
 2548TIP3   OH2 7586   6.896   2.782   3.918
 2548TIP3    H1 7587   6.929   2.793   4.007
 2548TIP3    H2 7588   6.803   2.800   3.924
 2549TIP3   OH2 7589   5.562   6.365   3.697
 2549TIP3    H1 7590   5.576   6.331   3.785
 2549TIP3    H2 7591   5.646   6.355   3.653
 2550TIP3   OH2 7592   1.337   0.618   1.684
 2550TIP3    H1 7593   1.292   0.591   1.604
 2550TIP3    H2 7594   1.268   0.660   1.736
 2551TIP3   OH2 7595   7.936   7.019   3.173
 2551TIP3    H1 7596   7.909   6.933   3.143
 2551TIP3    H2 7597   8.015   7.039   3.122
 2552TIP3   OH2 7598   3.322   6.275   5.093
 2552TIP3    H1 7599   3.317   6.304   5.185
 2552TIP3    H2 7600   3.304   6.354   5.042
 2553TIP3   OH2 7601   5.735   5.097   6.262
 2553TIP3    H1 7602   5.695   5.098   6.176
 2553TIP3    H2 7603   5.701   5.175   6.305
 2554TIP3   OH2 7604   6.479   2.567   6.175
 2554TIP3    H1 7605   6.499   2.475   6.157
 2554TIP3    H2 7606   6.533   2.588   6.251
 2555TIP3   OH2 7607   6.402   2.240   5.110
 2555TIP3    H1 7608   6.367   2.159   5.147
 2555TIP3    H2 7609   6.489   2.247   5.148
 2556TIP3   OH2 7610   6.388   0.855   4.658
 2556TIP3    H1 7611   6.455   0.821   4.718
 2556TIP3    H2 7612   6.336   0.778   4.634
 2557TIP3   OH2 7613   7.277   3.583   6.585
 2557TIP3    H1 7614   7.330   3.507   6.560
 2557TIP3    H2 7615   7.187   3.557   6.567
 2558TIP3   OH2 7616   7.105   1.895   5.726
 2558TIP3    H1 7617   7.108   1.986   5.698
 2558TIP3    H2 7618   7.191   1.859   5.702
 2559TIP3   OH2 7619   8.212   1.416   3.070
 2559TIP3    H1 7620   8.257   1.335   3.091
 2559TIP3    H2 7621   8.238   1.436   2.980
 2560TIP3   OH2 7622   3.846   4.360   5.012
 2560TIP3    H1 7623   3.860   4.278   5.060
 2560TIP3    H2 7624   3.907   4.422   5.051
 2561TIP3   OH2 7625   4.962   7.169   5.063
 2561TIP3    H1 7626   5.028   7.110   5.027
 2561TIP3    H2 7627   5.002   7.256   5.059
 2562TIP3   OH2 7628   7.612   1.377   6.131
 2562TIP3    H1 7629   7.553   1.303   6.115
 2562TIP3    H2 7630   7.556   1.455   6.124
 2563TIP3   OH2 7631   6.791   7.201   2.407
 2563TIP3    H1 7632   6.855   7.208   2.478
 2563TIP3    H2 7633   6.820   7.265   2.342
 2564TIP3   OH2 7634   7.645   4.380   5.474
 2564TIP3    H1 7635   7.699   4.401   5.550
 2564TIP3    H2 7636   7.556   4.373   5.508
 2565TIP3   OH2 7637   5.191   4.931   1.187
 2565TIP3    H1 7638   5.161   5.017   1.216
 2565TIP3    H2 7639   5.216   4.944   1.095
 2566TIP3   OH2 7640   4.090   5.204   4.306
 2566TIP3    H1 7641   4.082   5.245   4.393
 2566TIP3    H2 7642   4.050   5.117   4.317
 2567TIP3   OH2 7643   2.989   2.824   2.458
 2567TIP3    H1 7644   2.914   2.880   2.479
 2567TIP3    H2 7645   2.977   2.803   2.365
 2568TIP3   OH2 7646   0.181   0.286   6.036
 2568TIP3    H1 7647   0.139   0.310   5.953
 2568TIP3    H2 7648   0.271   0.316   6.027
 2569TIP3   OH2 7649   5.828   3.290   1.885
 2569TIP3    H1 7650   5.735   3.293   1.862
 2569TIP3    H2 7651   5.841   3.202   1.920
 2570TIP3   OH2 7652   5.873   3.425   3.031
 2570TIP3    H1 7653   5.845   3.333   3.033
 2570TIP3    H2 7654   5.835   3.463   3.109
 2571TIP3   OH2 7655   7.218   4.884   2.285
 2571TIP3    H1 7656   7.301   4.929   2.272
 2571TIP3    H2 7657   7.238   4.791   2.276
 2572TIP3   OH2 7658   1.268   2.164   0.524
 2572TIP3    H1 7659   1.349   2.115   0.535
 2572TIP3    H2 7660   1.199   2.100   0.541
 2573TIP3   OH2 7661   4.645   3.081   0.603
 2573TIP3    H1 7662   4.581   3.079   0.532
 2573TIP3    H2 7663   4.625   3.161   0.651
 2574TIP3   OH2 7664   4.858   1.252   3.096
 2574TIP3    H1 7665   4.891   1.223   3.011
 2574TIP3    H2 7666   4.763   1.256   3.085
 2575TIP3   OH2 7667   7.748   6.851   6.638
 2575TIP3    H1 7668   7.808   6.777   6.637
 2575TIP3    H2 7669   7.662   6.813   6.620
 2576TIP3   OH2 7670   3.868   6.805   3.847
 2576TIP3    H1 7671   3.954   6.842   3.867
 2576TIP3    H2 7672   3.808   6.851   3.906
 2577TIP3   OH2 7673   3.532   0.729   3.900
 2577TIP3    H1 7674   3.594   0.669   3.942
 2577TIP3    H2 7675   3.588   0.794   3.858
 2578TIP3   OH2 7676   0.555   7.762   3.946
 2578TIP3    H1 7677   0.521   7.697   4.008
 2578TIP3    H2 7678   0.628   7.804   3.992
 2579TIP3   OH2 7679   2.623   3.489   3.712
 2579TIP3    H1 7680   2.684   3.520   3.780
 2579TIP3    H2 7681   2.565   3.429   3.757
 2580TIP3   OH2 7682   1.935   4.955   0.741
 2580TIP3    H1 7683   1.924   4.961   0.836
 2580TIP3    H2 7684   2.028   4.935   0.729
 2581TIP3   OH2 7685   2.261   1.788   6.575
 2581TIP3    H1 7686   2.226   1.796   6.664
 2581TIP3    H2 7687   2.187   1.806   6.518
 2582TIP3   OH2 7688   1.541   6.950   6.794
 2582TIP3    H1 7689   1.585   6.887   6.736
 2582TIP3    H2 7690   1.581   7.034   6.772
 2583TIP3   OH2 7691   7.845   5.905   0.083
 2583TIP3    H1 7692   7.841   5.949   0.168
 2583TIP3    H2 7693   7.818   5.815   0.101
 2584TIP3   OH2 7694   6.306   0.810   3.481
 2584TIP3    H1 7695   6.344   0.849   3.560
 2584TIP3    H2 7696   6.225   0.770   3.511
 2585TIP3   OH2 7697   7.527   3.052   3.067
 2585TIP3    H1 7698   7.568   3.060   3.154
 2585TIP3    H2 7699   7.453   3.112   3.070
 2586TIP3   OH2 7700   2.616   3.165   2.262
 2586TIP3    H1 7701   2.711   3.155   2.262
 2586TIP3    H2 7702   2.597   3.225   2.334
 2587TIP3   OH2 7703   1.419   5.632   0.557
 2587TIP3    H1 7704   1.371   5.670   0.630
 2587TIP3    H2 7705   1.372   5.662   0.479
 2588TIP3   OH2 7706   3.909   0.634   6.715
 2588TIP3    H1 7707   3.924   0.724   6.686
 2588TIP3    H2 7708   3.995   0.593   6.713
 2589TIP3   OH2 7709   6.680   0.517   6.484
 2589TIP3    H1 7710   6.619   0.475   6.545
 2589TIP3    H2 7711   6.663   0.611   6.493
 2590TIP3   OH2 7712   6.588   5.430   3.874
 2590TIP3    H1 7713   6.615   5.514   3.835
 2590TIP3    H2 7714   6.618   5.364   3.812
 2591TIP3   OH2 7715   4.683   1.508   6.383
 2591TIP3    H1 7716   4.647   1.597   6.377
 2591TIP3    H2 7717   4.618   1.460   6.435
 2592TIP3   OH2 7718   6.452   3.972   3.405
 2592TIP3    H1 7719   6.439   3.970   3.500
 2592TIP3    H2 7720   6.400   3.899   3.372
 2593TIP3   OH2 7721   7.979   2.808   4.674
 2593TIP3    H1 7722   8.061   2.775   4.637
 2593TIP3    H2 7723   7.990   2.800   4.769
 2594TIP3   OH2 7724   5.890   5.967   3.128
 2594TIP3    H1 7725   5.801   5.973   3.164
 2594TIP3    H2 7726   5.944   6.014   3.191
 2595TIP3   OH2 7727   0.874   0.241   1.615
 2595TIP3    H1 7728   0.917   0.317   1.655
 2595TIP3    H2 7729   0.788   0.237   1.656
 2596TIP3   OH2 7730   7.492   7.241   3.866
 2596TIP3    H1 7731   7.431   7.207   3.932
 2596TIP3    H2 7732   7.440   7.246   3.786
 2597TIP3   OH2 7733   3.446   7.164   3.541
 2597TIP3    H1 7734   3.535   7.187   3.566
 2597TIP3    H2 7735   3.411   7.243   3.500
 2598TIP3   OH2 7736   2.440   6.566   0.255
 2598TIP3    H1 7737   2.488   6.633   0.304
 2598TIP3    H2 7738   2.407   6.507   0.323
 2599TIP3   OH2 7739   4.148   5.562   0.790
 2599TIP3    H1 7740   4.190   5.588   0.708
 2599TIP3    H2 7741   4.214   5.581   0.857
 2600TIP3   OH2 7742   7.944   1.499   2.633
 2600TIP3    H1 7743   8.036   1.511   2.610
 2600TIP3    H2 7744   7.912   1.587   2.651
 2601TIP3   OH2 7745   2.420   4.465   5.308
 2601TIP3    H1 7746   2.381   4.423   5.385
 2601TIP3    H2 7747   2.409   4.401   5.238
 2602TIP3   OH2 7748   1.161   2.856   5.209
 2602TIP3    H1 7749   1.133   2.947   5.203
 2602TIP3    H2 7750   1.239   2.859   5.265
 2603TIP3   OH2 7751   2.514   0.712   4.971
 2603TIP3    H1 7752   2.607   0.692   4.966
 2603TIP3    H2 7753   2.474   0.636   5.013
 2604TIP3   OH2 7754   1.495   5.338   6.250
 2604TIP3    H1 7755   1.499   5.430   6.222
 2604TIP3    H2 7756   1.587   5.313   6.260
 2605TIP3   OH2 7757   2.153   1.270   4.053
 2605TIP3    H1 7758   2.121   1.185   4.082
 2605TIP3    H2 7759   2.244   1.274   4.083
 2606TIP3   OH2 7760   6.043   7.517   5.294
 2606TIP3    H1 7761   6.119   7.482   5.341
 2606TIP3    H2 7762   6.005   7.441   5.250
 2607TIP3   OH2 7763   5.183   2.829   0.867
 2607TIP3    H1 7764   5.193   2.911   0.819
 2607TIP3    H2 7765   5.243   2.768   0.824
 2608TIP3   OH2 7766   4.973   4.668   3.183
 2608TIP3    H1 7767   4.966   4.750   3.231
 2608TIP3    H2 7768   5.067   4.648   3.182
 2609TIP3   OH2 7769   3.171   4.443   1.314
 2609TIP3    H1 7770   3.253   4.478   1.281
 2609TIP3    H2 7771   3.166   4.354   1.278
 2610TIP3   OH2 7772   6.389   5.167   4.156
 2610TIP3    H1 7773   6.401   5.105   4.228
 2610TIP3    H2 7774   6.333   5.235   4.192
 2611TIP3   OH2 7775   0.227   0.870   5.241
 2611TIP3    H1 7776   0.190   0.791   5.281
 2611TIP3    H2 7777   0.315   0.844   5.213
 2612TIP3   OH2 7778   2.839   2.566   3.103
 2612TIP3    H1 7779   2.898   2.614   3.044
 2612TIP3    H2 7780   2.754   2.569   3.058
 2613TIP3   OH2 7781   1.185   5.381   3.133
 2613TIP3    H1 7782   1.096   5.396   3.166
 2613TIP3    H2 7783   1.239   5.443   3.182
 2614TIP3   OH2 7784   0.492   6.943   0.632
 2614TIP3    H1 7785   0.483   6.955   0.727
 2614TIP3    H2 7786   0.529   6.855   0.623
 2615TIP3   OH2 7787   4.159   0.609   3.368
 2615TIP3    H1 7788   4.173   0.676   3.300
 2615TIP3    H2 7789   4.204   0.532   3.335
 2616TIP3   OH2 7790   6.986   4.311   3.917
 2616TIP3    H1 7791   7.008   4.404   3.903
 2616TIP3    H2 7792   7.006   4.296   4.009
 2617TIP3   OH2 7793   3.991   6.296   2.788
 2617TIP3    H1 7794   3.925   6.364   2.777
 2617TIP3    H2 7795   4.058   6.317   2.722
 2618TIP3   OH2 7796   5.503   0.529   0.764
 2618TIP3    H1 7797   5.423   0.500   0.808
 2618TIP3    H2 7798   5.500   0.486   0.678
 2619TIP3   OH2 7799   3.310   1.893   3.209
 2619TIP3    H1 7800   3.222   1.887   3.173
 2619TIP3    H2 7801   3.349   1.968   3.165
 2620TIP3   OH2 7802   7.655   5.620   4.499
 2620TIP3    H1 7803   7.581   5.681   4.502
 2620TIP3    H2 7804   7.710   5.652   4.428
 2621TIP3   OH2 7805   2.151   0.984   3.346
 2621TIP3    H1 7806   2.118   1.039   3.417
 2621TIP3    H2 7807   2.131   0.895   3.374
 2622TIP3   OH2 7808   7.285   3.720   4.473
 2622TIP3    H1 7809   7.281   3.781   4.547
 2622TIP3    H2 7810   7.196   3.686   4.465
 2623TIP3   OH2 7811   3.390   6.772   2.801
 2623TIP3    H1 7812   3.306   6.784   2.847
 2623TIP3    H2 7813   3.371   6.706   2.735
 2624TIP3   OH2 7814   3.739   2.331   0.498
 2624TIP3    H1 7815   3.716   2.421   0.519
 2624TIP3    H2 7816   3.825   2.317   0.538
 2625TIP3   OH2 7817   4.950   7.013   2.391
 2625TIP3    H1 7818   5.015   7.074   2.424
 2625TIP3    H2 7819   4.988   6.976   2.312
 2626TIP3   OH2 7820   3.156   4.750   6.693
 2626TIP3    H1 7821   3.131   4.684   6.758
 2626TIP3    H2 7822   3.076   4.799   6.677
 2627TIP3   OH2 7823   5.259   6.345   2.678
 2627TIP3    H1 7824   5.298   6.429   2.701
 2627TIP3    H2 7825   5.321   6.306   2.615
 2628TIP3   OH2 7826   3.951   1.837   3.495
 2628TIP3    H1 7827   3.903   1.757   3.515
 2628TIP3    H2 7828   4.022   1.808   3.438
 2629TIP3   OH2 7829   1.112   1.893   6.592
 2629TIP3    H1 7830   1.021   1.921   6.591
 2629TIP3    H2 7831   1.130   1.871   6.684
 2630TIP3   OH2 7832   0.583   0.414   3.894
 2630TIP3    H1 7833   0.513   0.430   3.832
 2630TIP3    H2 7834   0.621   0.330   3.867
 2631TIP3   OH2 7835   2.465   6.333   1.462
 2631TIP3    H1 7836   2.465   6.366   1.372
 2631TIP3    H2 7837   2.449   6.410   1.516
 2632TIP3   OH2 7838   3.114   1.234   5.058
 2632TIP3    H1 7839   3.192   1.217   5.006
 2632TIP3    H2 7840   3.094   1.151   5.100
 2633TIP3   OH2 7841   1.510   3.374   1.866
 2633TIP3    H1 7842   1.606   3.383   1.869
 2633TIP3    H2 7843   1.492   3.293   1.913
 2634TIP3   OH2 7844   2.275   4.861   0.053
 2634TIP3    H1 7845   2.297   4.926  -0.014
 2634TIP3    H2 7846   2.357   4.813   0.067
 2635TIP3   OH2 7847   3.386   7.330   0.101
 2635TIP3    H1 7848   3.408   7.283   0.181
 2635TIP3    H2 7849   3.466   7.330   0.050
 2636TIP3   OH2 7850   4.174   0.532   2.594
 2636TIP3    H1 7851   4.086   0.550   2.562
 2636TIP3    H2 7852   4.174   0.439   2.616
 2637TIP3   OH2 7853   0.775   3.475   5.738
 2637TIP3    H1 7854   0.846   3.530   5.705
 2637TIP3    H2 7855   0.695   3.525   5.720
 2638TIP3   OH2 7856   5.857   1.417   0.598
 2638TIP3    H1 7857   5.850   1.384   0.688
 2638TIP3    H2 7858   5.833   1.342   0.543
 2639TIP3   OH2 7859   0.981   6.002   0.082
 2639TIP3    H1 7860   1.065   5.959   0.100
 2639TIP3    H2 7861   1.002   6.074   0.024
 2640TIP3   OH2 7862   0.149   4.217   2.769
 2640TIP3    H1 7863   0.131   4.257   2.854
 2640TIP3    H2 7864   0.111   4.129   2.775
 2641TIP3   OH2 7865   5.290   5.390   4.184
 2641TIP3    H1 7866   5.373   5.380   4.137
 2641TIP3    H2 7867   5.262   5.300   4.201
 2642TIP3   OH2 7868   7.086   3.288   1.503
 2642TIP3    H1 7869   7.151   3.254   1.441
 2642TIP3    H2 7870   7.122   3.370   1.534
 2643TIP3   OH2 7871   4.152   6.611   2.827
 2643TIP3    H1 7872   4.176   6.625   2.736
 2643TIP3    H2 7873   4.056   6.617   2.827
 2644TIP3   OH2 7874   5.194   7.775   2.844
 2644TIP3    H1 7875   5.251   7.708   2.807
 2644TIP3    H2 7876   5.155   7.819   2.768
 2645TIP3   OH2 7877   6.770   5.043   1.341
 2645TIP3    H1 7878   6.804   5.096   1.268
 2645TIP3    H2 7879   6.752   5.107   1.410
 2646TIP3   OH2 7880   1.844   0.696   4.151
 2646TIP3    H1 7881   1.846   0.772   4.209
 2646TIP3    H2 7882   1.934   0.687   4.120
 2647TIP3   OH2 7883   2.824   0.660   3.972
 2647TIP3    H1 7884   2.823   0.688   3.881
 2647TIP3    H2 7885   2.838   0.566   3.969
 2648TIP3   OH2 7886   7.630   7.843   6.074
 2648TIP3    H1 7887   7.654   7.932   6.102
 2648TIP3    H2 7888   7.666   7.786   6.142
 2649TIP3   OH2 7889   0.912   6.317   5.016
 2649TIP3    H1 7890   0.923   6.286   4.927
 2649TIP3    H2 7891   0.821   6.346   5.020
 2650TIP3   OH2 7892   6.687   0.744   6.256
 2650TIP3    H1 7893   6.607   0.729   6.307
 2650TIP3    H2 7894   6.693   0.839   6.248
 2651TIP3   OH2 7895   7.305   5.200   1.904
 2651TIP3    H1 7896   7.325   5.109   1.880
 2651TIP3    H2 7897   7.218   5.215   1.867
 2652TIP3   OH2 7898   2.619   2.201   3.433
 2652TIP3    H1 7899   2.683   2.258   3.477
 2652TIP3    H2 7900   2.610   2.237   3.345
 2653TIP3   OH2 7901   6.969   2.247   3.128
 2653TIP3    H1 7902   6.905   2.311   3.097
 2653TIP3    H2 7903   7.040   2.251   3.064
 2654TIP3   OH2 7904   0.575   1.589   5.611
 2654TIP3    H1 7905   0.631   1.596   5.688
 2654TIP3    H2 7906   0.493   1.554   5.645
 2655TIP3   OH2 7907   0.386   7.370   0.773
 2655TIP3    H1 7908   0.473   7.366   0.734
 2655TIP3    H2 7909   0.371   7.463   0.789
 2656TIP3   OH2 7910   6.582   6.758   1.310
 2656TIP3    H1 7911   6.613   6.741   1.221
 2656TIP3    H2 7912   6.487   6.745   1.305
 2657TIP3   OH2 7913   4.068   2.148   5.068
 2657TIP3    H1 7914   4.008   2.094   5.017
 2657TIP3    H2 7915   4.031   2.237   5.062
 2658TIP3   OH2 7916   0.079   1.799   0.126
 2658TIP3    H1 7917  -0.014   1.793   0.148
 2658TIP3    H2 7918   0.081   1.806   0.031
 2659TIP3   OH2 7919   1.030   0.276   0.006
 2659TIP3    H1 7920   1.005   0.196   0.053
 2659TIP3    H2 7921   0.984   0.269  -0.078
 2660TIP3   OH2 7922   1.994   6.915   5.138
 2660TIP3    H1 7923   1.905   6.883   5.123
 2660TIP3    H2 7924   2.035   6.915   5.051
 2661TIP3   OH2 7925   7.593   4.450   2.925
 2661TIP3    H1 7926   7.530   4.443   2.853
 2661TIP3    H2 7927   7.551   4.509   2.987
 2662TIP3   OH2 7928   0.411   0.596   2.529
 2662TIP3    H1 7929   0.352   0.671   2.523
 2662TIP3    H2 7930   0.480   0.624   2.590
 2663TIP3   OH2 7931   1.093   4.314   4.517
 2663TIP3    H1 7932   1.077   4.402   4.551
 2663TIP3    H2 7933   1.044   4.311   4.434
 2664TIP3   OH2 7934   4.470   7.725   4.064
 2664TIP3    H1 7935   4.380   7.747   4.088
 2664TIP3    H2 7936   4.463   7.644   4.014
 2665TIP3   OH2 7937   1.506   6.308   0.406
 2665TIP3    H1 7938   1.586   6.255   0.408
 2665TIP3    H2 7939   1.457   6.276   0.331
 2666TIP3   OH2 7940   7.929   1.385   5.451
 2666TIP3    H1 7941   7.970   1.384   5.538
 2666TIP3    H2 7942   7.975   1.454   5.404
 2667TIP3   OH2 7943   4.293   1.612   3.599
 2667TIP3    H1 7944   4.232   1.657   3.658
 2667TIP3    H2 7945   4.323   1.680   3.539
 2668TIP3   OH2 7946   3.017   4.666   6.324
 2668TIP3    H1 7947   3.017   4.759   6.347
 2668TIP3    H2 7948   3.014   4.665   6.229
 2669TIP3   OH2 7949   5.421   4.206   5.268
 2669TIP3    H1 7950   5.337   4.160   5.270
 2669TIP3    H2 7951   5.437   4.223   5.175
 2670TIP3   OH2 7952   2.806   7.674   6.401
 2670TIP3    H1 7953   2.810   7.682   6.496
 2670TIP3    H2 7954   2.888   7.632   6.376
 2671TIP3   OH2 7955   5.852   0.447   0.634
 2671TIP3    H1 7956   5.836   0.437   0.728
 2671TIP3    H2 7957   5.833   0.360   0.598
 2672TIP3   OH2 7958   4.960   0.157   3.380
 2672TIP3    H1 7959   5.050   0.180   3.357
 2672TIP3    H2 7960   4.947   0.194   3.468
 2673TIP3   OH2 7961   1.644   0.979   0.472
 2673TIP3    H1 7962   1.727   1.010   0.508
 2673TIP3    H2 7963   1.611   1.053   0.421
 2674TIP3   OH2 7964   2.259   2.265   2.022
 2674TIP3    H1 7965   2.335   2.322   2.024
 2674TIP3    H2 7966   2.217   2.278   2.107
 2675TIP3   OH2 7967   5.376   3.716   4.856
 2675TIP3    H1 7968   5.466   3.692   4.875
 2675TIP3    H2 7969   5.339   3.742   4.941
 2676TIP3   OH2 7970   0.955   2.463   5.723
 2676TIP3    H1 7971   1.012   2.540   5.721
 2676TIP3    H2 7972   1.007   2.396   5.767
 2677TIP3   OH2 7973   5.979   5.380   1.444
 2677TIP3    H1 7974   6.066   5.347   1.467
 2677TIP3    H2 7975   5.983   5.473   1.464
 2678TIP3   OH2 7976   4.552   0.900   4.066
 2678TIP3    H1 7977   4.479   0.958   4.049
 2678TIP3    H2 7978   4.582   0.873   3.979
 2679TIP3   OH2 7979   3.755   5.353   4.363
 2679TIP3    H1 7980   3.666   5.385   4.348
 2679TIP3    H2 7981   3.812   5.420   4.325
 2680TIP3   OH2 7982   5.647   1.121   6.689
 2680TIP3    H1 7983   5.613   1.104   6.601
 2680TIP3    H2 7984   5.741   1.103   6.683
 2681TIP3   OH2 7985   0.674   7.550   5.281
 2681TIP3    H1 7986   0.749   7.593   5.321
 2681TIP3    H2 7987   0.615   7.533   5.354
 2682TIP3   OH2 7988   3.521   2.817   2.903
 2682TIP3    H1 7989   3.464   2.849   2.834
 2682TIP3    H2 7990   3.553   2.896   2.948
 2683TIP3   OH2 7991   1.108   5.630   3.578
 2683TIP3    H1 7992   1.130   5.541   3.605
 2683TIP3    H2 7993   1.095   5.677   3.661
 2684TIP3   OH2 7994   3.240   2.218   5.961
 2684TIP3    H1 7995   3.153   2.243   5.994
 2684TIP3    H2 7996   3.238   2.122   5.960
 2685TIP3   OH2 7997   5.396   3.800   3.418
 2685TIP3    H1 7998   5.351   3.723   3.386
 2685TIP3    H2 7999   5.417   3.851   3.340
 2686TIP3   OH2 8000   5.416   2.012   1.990
 2686TIP3    H1 8001   5.460   2.087   2.031
 2686TIP3    H2 8002   5.487   1.951   1.969
 2687TIP3   OH2 8003   2.519   5.962   5.917
 2687TIP3    H1 8004   2.583   5.895   5.893
 2687TIP3    H2 8005   2.567   6.020   5.976
 2688TIP3   OH2 8006   4.385   5.913   5.591
 2688TIP3    H1 8007   4.476   5.940   5.578
 2688TIP3    H2 8008   4.356   5.887   5.504
 2689TIP3   OH2 8009   2.402   0.746   2.061
 2689TIP3    H1 8010   2.373   0.655   2.068
 2689TIP3    H2 8011   2.495   0.740   2.038
 2690TIP3   OH2 8012   2.780   1.016   2.823
 2690TIP3    H1 8013   2.736   1.023   2.908
 2690TIP3    H2 8014   2.873   1.012   2.844
 2691TIP3   OH2 8015   0.944   3.191   4.387
 2691TIP3    H1 8016   0.876   3.212   4.451
 2691TIP3    H2 8017   0.898   3.193   4.302
 2692TIP3   OH2 8018   3.241   4.982   3.202
 2692TIP3    H1 8019   3.322   5.030   3.219
 2692TIP3    H2 8020   3.176   5.049   3.184
 2693TIP3   OH2 8021   0.517   4.708   6.269
 2693TIP3    H1 8022   0.472   4.763   6.205
 2693TIP3    H2 8023   0.610   4.719   6.249
 2694TIP3   OH2 8024   3.763   3.550   2.118
 2694TIP3    H1 8025   3.741   3.475   2.062
 2694TIP3    H2 8026   3.747   3.518   2.207
 2695TIP3   OH2 8027   2.823   5.726   1.396
 2695TIP3    H1 8028   2.745   5.782   1.395
 2695TIP3    H2 8029   2.866   5.744   1.312
 2696TIP3   OH2 8030   2.071   6.323   6.353
 2696TIP3    H1 8031   1.989   6.311   6.401
 2696TIP3    H2 8032   2.134   6.350   6.419
 2697TIP3   OH2 8033   7.138   7.722   3.881
 2697TIP3    H1 8034   7.181   7.640   3.905
 2697TIP3    H2 8035   7.047   7.697   3.862
 2698TIP3   OH2 8036   3.923   2.386   5.089
 2698TIP3    H1 8037   3.917   2.457   5.024
 2698TIP3    H2 8038   3.918   2.431   5.174
 2699TIP3   OH2 8039   6.950   5.294   0.181
 2699TIP3    H1 8040   6.859   5.284   0.210
 2699TIP3    H2 8041   7.002   5.289   0.261
 2700TIP3   OH2 8042   0.233   2.611   0.590
 2700TIP3    H1 8043   0.182   2.689   0.570
 2700TIP3    H2 8044   0.199   2.581   0.675
 2701TIP3   OH2 8045   4.438   1.111   4.393
 2701TIP3    H1 8046   4.390   1.030   4.376
 2701TIP3    H2 8047   4.518   1.102   4.342
 2702TIP3   OH2 8048   2.044   5.443   1.941
 2702TIP3    H1 8049   2.092   5.500   2.001
 2702TIP3    H2 8050   1.952   5.467   1.954
 2703TIP3   OH2 8051   4.059   0.037   2.091
 2703TIP3    H1 8052   4.003   0.044   2.168
 2703TIP3    H2 8053   4.061   0.126   2.055
 2704TIP3   OH2 8054   5.104   2.525   6.072
 2704TIP3    H1 8055   5.077   2.485   5.990
 2704TIP3    H2 8056   5.032   2.506   6.132
 2705TIP3   OH2 8057   8.126   2.462   6.107
 2705TIP3    H1 8058   8.215   2.475   6.074
 2705TIP3    H2 8059   8.076   2.535   6.071
 2706TIP3   OH2 8060   6.758   0.879   4.197
 2706TIP3    H1 8061   6.840   0.830   4.205
 2706TIP3    H2 8062   6.704   0.847   4.269
 2707TIP3   OH2 8063   7.488   6.677   0.407
 2707TIP3    H1 8064   7.474   6.738   0.335
 2707TIP3    H2 8065   7.421   6.610   0.396
 2708TIP3   OH2 8066   5.024   1.416   3.951
 2708TIP3    H1 8067   4.935   1.403   3.920
 2708TIP3    H2 8068   5.015   1.475   4.026
 2709TIP3   OH2 8069   3.192   7.780   2.656
 2709TIP3    H1 8070   3.185   7.798   2.562
 2709TIP3    H2 8071   3.255   7.844   2.689
 2710TIP3   OH2 8072   6.197   4.006   2.485
 2710TIP3    H1 8073   6.264   4.069   2.461
 2710TIP3    H2 8074   6.172   3.964   2.403
 2711TIP3   OH2 8075   3.574   0.854   2.178
 2711TIP3    H1 8076   3.654   0.818   2.215
 2711TIP3    H2 8077   3.510   0.782   2.184
 2712TIP3   OH2 8078   6.708   7.823   4.485
 2712TIP3    H1 8079   6.616   7.819   4.509
 2712TIP3    H2 8080   6.708   7.869   4.401
 2713TIP3   OH2 8081   5.663   0.331   1.666
 2713TIP3    H1 8082   5.621   0.406   1.709
 2713TIP3    H2 8083   5.755   0.356   1.659
 2714TIP3   OH2 8084   6.937   6.620   0.762
 2714TIP3    H1 8085   7.021   6.587   0.732
 2714TIP3    H2 8086   6.959   6.692   0.822
 2715TIP3   OH2 8087   3.851   6.268   3.608
 2715TIP3    H1 8088   3.810   6.301   3.688
 2715TIP3    H2 8089   3.934   6.315   3.601
 2716TIP3   OH2 8090   4.274   6.314   4.622
 2716TIP3    H1 8091   4.234   6.232   4.652
 2716TIP3    H2 8092   4.338   6.334   4.691
 2717TIP3   OH2 8093   5.948   2.531   0.939
 2717TIP3    H1 8094   6.009   2.468   0.900
 2717TIP3    H2 8095   6.005   2.594   0.983
 2718TIP3   OH2 8096   1.381   5.438   5.873
 2718TIP3    H1 8097   1.366   5.530   5.893
 2718TIP3    H2 8098   1.450   5.439   5.806
 2719TIP3   OH2 8099   4.365   4.830   5.153
 2719TIP3    H1 8100   4.323   4.819   5.238
 2719TIP3    H2 8101   4.345   4.920   5.128
 2720TIP3   OH2 8102   7.620   5.807   1.509
 2720TIP3    H1 8103   7.630   5.734   1.449
 2720TIP3    H2 8104   7.572   5.873   1.459
 2721TIP3   OH2 8105   5.979   7.113   0.580
 2721TIP3    H1 8106   5.985   7.101   0.674
 2721TIP3    H2 8107   6.067   7.143   0.554
 2722TIP3   OH2 8108   2.119   7.880   5.489
 2722TIP3    H1 8109   2.033   7.839   5.476
 2722TIP3    H2 8110   2.160   7.828   5.558
 2723TIP3   OH2 8111   6.638   3.341   6.099
 2723TIP3    H1 8112   6.589   3.313   6.176
 2723TIP3    H2 8113   6.720   3.376   6.133
 2724TIP3   OH2 8114   7.860   0.895   3.427
 2724TIP3    H1 8115   7.925   0.875   3.360
 2724TIP3    H2 8116   7.779   0.911   3.378
 2725TIP3   OH2 8117   1.062   5.880   0.715
 2725TIP3    H1 8118   1.037   5.802   0.764
 2725TIP3    H2 8119   1.156   5.889   0.730
 2726TIP3   OH2 8120   3.910   7.620   3.502
 2726TIP3    H1 8121   3.943   7.691   3.448
 2726TIP3    H2 8122   3.918   7.542   3.447
 2727TIP3   OH2 8123   7.142   4.408   0.083
 2727TIP3    H1 8124   7.228   4.446   0.067
 2727TIP3    H2 8125   7.158   4.335   0.143
 2728TIP3   OH2 8126   0.569   0.499   4.153
 2728TIP3    H1 8127   0.485   0.511   4.197
 2728TIP3    H2 8128   0.547   0.461   4.068
 2729TIP3   OH2 8129   2.960   4.746   3.638
 2729TIP3    H1 8130   2.968   4.775   3.547
 2729TIP3    H2 8131   2.872   4.773   3.664
 2730TIP3   OH2 8132   4.675   3.377   5.996
 2730TIP3    H1 8133   4.744   3.320   6.030
 2730TIP3    H2 8134   4.651   3.432   6.071
 2731TIP3   OH2 8135   2.530   7.201   1.088
 2731TIP3    H1 8136   2.563   7.183   1.000
 2731TIP3    H2 8137   2.450   7.251   1.074
 2732TIP3   OH2 8138   8.175   1.736   3.004
 2732TIP3    H1 8139   8.085   1.747   2.973
 2732TIP3    H2 8140   8.191   1.813   3.058
 2733TIP3   OH2 8141   3.504   3.386   1.056
 2733TIP3    H1 8142   3.481   3.332   1.132
 2733TIP3    H2 8143   3.580   3.436   1.084
 2734TIP3   OH2 8144   6.954   5.800   2.138
 2734TIP3    H1 8145   6.920   5.800   2.227
 2734TIP3    H2 8146   7.040   5.758   2.145
 2735TIP3   OH2 8147   7.272   6.177   0.018
 2735TIP3    H1 8148   7.245   6.171  -0.074
 2735TIP3    H2 8149   7.221   6.249   0.053
 2736TIP3   OH2 8150   6.031   3.709   5.606
 2736TIP3    H1 8151   5.976   3.640   5.645
 2736TIP3    H2 8152   6.108   3.714   5.662
 2737TIP3   OH2 8153   8.188   2.640   3.219
 2737TIP3    H1 8154   8.264   2.672   3.268
 2737TIP3    H2 8155   8.226   2.599   3.141
 2738TIP3   OH2 8156   5.664   5.287   3.038
 2738TIP3    H1 8157   5.655   5.333   2.955
 2738TIP3    H2 8158   5.756   5.294   3.060
 2739TIP3   OH2 8159   2.664   5.728   5.551
 2739TIP3    H1 8160   2.614   5.803   5.519
 2739TIP3    H2 8161   2.755   5.759   5.556
 2740TIP3   OH2 8162   3.526   3.687   4.987
 2740TIP3    H1 8163   3.559   3.602   4.957
 2740TIP3    H2 8164   3.523   3.680   5.082
 2741TIP3   OH2 8165   7.277   3.165   1.334
 2741TIP3    H1 8166   7.304   3.073   1.333
 2741TIP3    H2 8167   7.341   3.209   1.278
 2742TIP3   OH2 8168   0.522   4.811   3.046
 2742TIP3    H1 8169   0.548   4.791   3.136
 2742TIP3    H2 8170   0.600   4.793   2.994
 2743TIP3   OH2 8171   5.900   5.265   3.929
 2743TIP3    H1 8172   5.952   5.344   3.941
 2743TIP3    H2 8173   5.858   5.250   4.013
 2744TIP3   OH2 8174   5.344   2.213   5.639
 2744TIP3    H1 8175   5.373   2.277   5.574
 2744TIP3    H2 8176   5.249   2.216   5.634
 2745TIP3   OH2 8177   5.773   7.209   2.103
 2745TIP3    H1 8178   5.846   7.263   2.132
 2745TIP3    H2 8179   5.698   7.242   2.151
 2746TIP3   OH2 8180   7.785   4.313   0.818
 2746TIP3    H1 8181   7.737   4.252   0.874
 2746TIP3    H2 8182   7.874   4.315   0.854
 2747TIP3   OH2 8183   7.826   4.838   0.814
 2747TIP3    H1 8184   7.864   4.923   0.837
 2747TIP3    H2 8185   7.886   4.774   0.852
 2748TIP3   OH2 8186   5.504   4.115   2.526
 2748TIP3    H1 8187   5.592   4.081   2.545
 2748TIP3    H2 8188   5.448   4.075   2.592
 2749TIP3   OH2 8189   4.407   4.797   2.883
 2749TIP3    H1 8190   4.361   4.747   2.950
 2749TIP3    H2 8191   4.385   4.753   2.801
 2750TIP3   OH2 8192   7.926   3.930   3.402
 2750TIP3    H1 8193   8.019   3.908   3.400
 2750TIP3    H2 8194   7.905   3.956   3.312
 2751TIP3   OH2 8195   7.926   0.604   2.921
 2751TIP3    H1 8196   7.993   0.592   2.853
 2751TIP3    H2 8197   7.879   0.521   2.923
 2752TIP3   OH2 8198   3.287   5.375   5.220
 2752TIP3    H1 8199   3.267   5.468   5.236
 2752TIP3    H2 8200   3.204   5.338   5.188
 2753TIP3   OH2 8201   5.156   6.601   5.178
 2753TIP3    H1 8202   5.121   6.685   5.208
 2753TIP3    H2 8203   5.116   6.536   5.236
 2754TIP3   OH2 8204   0.561   4.654   3.294
 2754TIP3    H1 8205   0.639   4.683   3.341
 2754TIP3    H2 8206   0.488   4.679   3.350
 2755TIP3   OH2 8207   3.630   0.275   5.526
 2755TIP3    H1 8208   3.637   0.262   5.620
 2755TIP3    H2 8209   3.541   0.310   5.513
 2756TIP3   OH2 8210   3.563   4.926   1.688
 2756TIP3    H1 8211   3.530   4.995   1.746
 2756TIP3    H2 8212   3.657   4.942   1.684
 2757TIP3   OH2 8213   2.076   0.904   2.533
 2757TIP3    H1 8214   2.093   0.998   2.540
 2757TIP3    H2 8215   2.148   0.863   2.579
 2758TIP3   OH2 8216   5.271   6.311   6.393
 2758TIP3    H1 8217   5.338   6.367   6.354
 2758TIP3    H2 8218   5.265   6.236   6.335
 2759TIP3   OH2 8219   1.197   2.026   4.360
 2759TIP3    H1 8220   1.253   2.012   4.437
 2759TIP3    H2 8221   1.113   1.989   4.385
 2760TIP3   OH2 8222   6.954   1.670   1.434
 2760TIP3    H1 8223   6.957   1.607   1.361
 2760TIP3    H2 8224   7.045   1.680   1.460
 2761TIP3   OH2 8225   5.752   4.320   3.817
 2761TIP3    H1 8226   5.762   4.226   3.804
 2761TIP3    H2 8227   5.813   4.340   3.889
 2762TIP3   OH2 8228   4.423   2.333   3.203
 2762TIP3    H1 8229   4.484   2.327   3.128
 2762TIP3    H2 8230   4.454   2.265   3.263
 2763TIP3   OH2 8231   0.380   0.073   2.347
 2763TIP3    H1 8232   0.295   0.033   2.367
 2763TIP3    H2 8233   0.359   0.147   2.291
 2764TIP3   OH2 8234   2.836   4.841   1.767
 2764TIP3    H1 8235   2.801   4.901   1.702
 2764TIP3    H2 8236   2.772   4.770   1.772
 2765TIP3   OH2 8237   0.930   1.695   3.558
 2765TIP3    H1 8238   0.900   1.684   3.467
 2765TIP3    H2 8239   0.853   1.728   3.604
 2766TIP3   OH2 8240   1.005   4.859   6.424
 2766TIP3    H1 8241   0.910   4.863   6.436
 2766TIP3    H2 8242   1.020   4.779   6.374
 2767TIP3   OH2 8243   7.194   2.179   1.044
 2767TIP3    H1 8244   7.171   2.272   1.038
 2767TIP3    H2 8245   7.289   2.178   1.040
 2768TIP3   OH2 8246   6.905   7.020   3.589
 2768TIP3    H1 8247   6.856   7.040   3.669
 2768TIP3    H2 8248   6.962   6.947   3.613
 2769TIP3   OH2 8249   5.288   6.111   6.606
 2769TIP3    H1 8250   5.219   6.140   6.665
 2769TIP3    H2 8251   5.327   6.191   6.572
 2770TIP3   OH2 8252   7.304   2.266   1.417
 2770TIP3    H1 8253   7.231   2.212   1.448
 2770TIP3    H2 8254   7.262   2.339   1.372
 2771TIP3   OH2 8255   0.025   4.182   5.600
 2771TIP3    H1 8256   0.022   4.255   5.537
 2771TIP3    H2 8257  -0.024   4.112   5.557
 2772TIP3   OH2 8258   1.913   2.778   6.349
 2772TIP3    H1 8259   1.896   2.866   6.317
 2772TIP3    H2 8260   1.867   2.720   6.288
 2773TIP3   OH2 8261   8.091   3.494   2.274
 2773TIP3    H1 8262   8.026   3.436   2.313
 2773TIP3    H2 8263   8.160   3.500   2.340
 2774TIP3   OH2 8264   6.439   3.732   5.157
 2774TIP3    H1 8265   6.514   3.693   5.201
 2774TIP3    H2 8266   6.364   3.708   5.213
 2775TIP3   OH2 8267   4.292   2.651   0.448
 2775TIP3    H1 8268   4.378   2.645   0.407
 2775TIP3    H2 8269   4.303   2.607   0.532
 2776TIP3   OH2 8270   7.297   3.401   0.255
 2776TIP3    H1 8271   7.215   3.401   0.303
 2776TIP3    H2 8272   7.356   3.346   0.307
 2777TIP3   OH2 8273   5.771   6.826   2.124
 2777TIP3    H1 8274   5.709   6.767   2.080
 2777TIP3    H2 8275   5.827   6.858   2.053
 2778TIP3   OH2 8276   4.992   2.508   2.984
 2778TIP3    H1 8277   4.969   2.489   3.074
 2778TIP3    H2 8278   5.031   2.426   2.951
 2779TIP3   OH2 8279   5.355   6.112   3.297
 2779TIP3    H1 8280   5.268   6.153   3.291
 2779TIP3    H2 8281   5.410   6.180   3.337
 2780TIP3   OH2 8282   2.906   0.241   6.072
 2780TIP3    H1 8283   2.820   0.275   6.096
 2780TIP3    H2 8284   2.967   0.311   6.094
 2781TIP3   OH2 8285   1.082   2.953   3.211
 2781TIP3    H1 8286   1.161   2.915   3.249
 2781TIP3    H2 8287   1.082   3.044   3.240
 2782TIP3   OH2 8288   3.150   0.119   4.970
 2782TIP3    H1 8289   3.215   0.049   4.971
 2782TIP3    H2 8290   3.178   0.179   5.040
 2783TIP3   OH2 8291   1.714   4.554   2.562
 2783TIP3    H1 8292   1.790   4.496   2.556
 2783TIP3    H2 8293   1.703   4.571   2.656
 2784TIP3   OH2 8294   4.357   1.557   5.472
 2784TIP3    H1 8295   4.315   1.547   5.557
 2784TIP3    H2 8296   4.343   1.648   5.448
 2785TIP3   OH2 8297   2.268   2.828   0.537
 2785TIP3    H1 8298   2.308   2.813   0.622
 2785TIP3    H2 8299   2.247   2.921   0.536
 2786TIP3   OH2 8300   5.410   0.165   0.425
 2786TIP3    H1 8301   5.360   0.154   0.345
 2786TIP3    H2 8302   5.495   0.198   0.396
 2787TIP3   OH2 8303   2.837   3.994   4.347
 2787TIP3    H1 8304   2.787   3.959   4.420
 2787TIP3    H2 8305   2.784   4.067   4.314
 2788TIP3   OH2 8306   7.230   3.343   4.310
 2788TIP3    H1 8307   7.253   3.434   4.332
 2788TIP3    H2 8308   7.270   3.328   4.225
 2789TIP3   OH2 8309   7.655   2.730   1.875
 2789TIP3    H1 8310   7.717   2.750   1.805
 2789TIP3    H2 8311   7.637   2.815   1.916
 2790TIP3   OH2 8312   8.236   3.396   4.704
 2790TIP3    H1 8313   8.169   3.333   4.731
 2790TIP3    H2 8314   8.266   3.436   4.786
 2791TIP3   OH2 8315   3.651   2.379   6.341
 2791TIP3    H1 8316   3.643   2.471   6.316
 2791TIP3    H2 8317   3.583   2.335   6.290
 2792TIP3   OH2 8318   7.071   5.353   6.144
 2792TIP3    H1 8319   7.147   5.316   6.099
 2792TIP3    H2 8320   7.030   5.278   6.187
 2793TIP3   OH2 8321   6.802   1.179   4.494
 2793TIP3    H1 8322   6.786   1.239   4.421
 2793TIP3    H2 8323   6.735   1.112   4.486
 2794TIP3   OH2 8324   1.505   4.167   6.284
 2794TIP3    H1 8325   1.560   4.208   6.217
 2794TIP3    H2 8326   1.568   4.136   6.349
 2795TIP3   OH2 8327   7.514   4.725   5.971
 2795TIP3    H1 8328   7.523   4.636   5.937
 2795TIP3    H2 8329   7.420   4.743   5.969
 2796TIP3   OH2 8330   6.506   0.659   4.877
 2796TIP3    H1 8331   6.476   0.651   4.787
 2796TIP3    H2 8332   6.469   0.584   4.922
 2797TIP3   OH2 8333   3.916   4.619   4.536
 2797TIP3    H1 8334   3.898   4.581   4.622
 2797TIP3    H2 8335   3.853   4.690   4.527
 2798TIP3   OH2 8336   1.749   4.970   4.335
 2798TIP3    H1 8337   1.722   4.988   4.245
 2798TIP3    H2 8338   1.703   5.035   4.387
 2799TIP3   OH2 8339   5.668   3.478   1.287
 2799TIP3    H1 8340   5.635   3.451   1.201
 2799TIP3    H2 8341   5.760   3.497   1.273
 2800TIP3   OH2 8342   4.840   1.773   2.029
 2800TIP3    H1 8343   4.780   1.747   1.959
 2800TIP3    H2 8344   4.927   1.766   1.989
 2801TIP3   OH2 8345   6.621   5.787   1.684
 2801TIP3    H1 8346   6.677   5.782   1.762
 2801TIP3    H2 8347   6.680   5.812   1.614
 2802TIP3   OH2 8348   6.256   0.248   2.037
 2802TIP3    H1 8349   6.262   0.191   1.961
 2802TIP3    H2 8350   6.252   0.188   2.112
 2803TIP3   OH2 8351   4.462   1.483   1.869
 2803TIP3    H1 8352   4.375   1.523   1.859
 2803TIP3    H2 8353   4.488   1.504   1.958
 2804TIP3   OH2 8354   5.646   3.659   4.711
 2804TIP3    H1 8355   5.742   3.656   4.713
 2804TIP3    H2 8356   5.625   3.752   4.700
 2805TIP3   OH2 8357   2.667   2.554   4.746
 2805TIP3    H1 8358   2.579   2.560   4.708
 2805TIP3    H2 8359   2.707   2.639   4.729
 2806TIP3   OH2 8360   2.569   1.398   6.351
 2806TIP3    H1 8361   2.553   1.469   6.413
 2806TIP3    H2 8362   2.512   1.327   6.382
 2807TIP3   OH2 8363   5.707   4.697   6.477
 2807TIP3    H1 8364   5.759   4.777   6.470
 2807TIP3    H2 8365   5.712   4.673   6.570
 2808TIP3   OH2 8366   8.269   7.280   3.546
 2808TIP3    H1 8367   8.186   7.305   3.586
 2808TIP3    H2 8368   8.244   7.236   3.465
 2809TIP3   OH2 8369   1.081   6.659   5.717
 2809TIP3    H1 8370   1.085   6.598   5.791
 2809TIP3    H2 8371   1.066   6.744   5.756
 2810TIP3   OH2 8372   2.317   4.816   3.900
 2810TIP3    H1 8373   2.363   4.735   3.920
 2810TIP3    H2 8374   2.346   4.877   3.968
 2811TIP3   OH2 8375   2.169   3.363   6.718
 2811TIP3    H1 8376   2.199   3.277   6.686
 2811TIP3    H2 8377   2.155   3.414   6.638
 2812TIP3   OH2 8378   7.680   1.796   6.490
 2812TIP3    H1 8379   7.725   1.776   6.572
 2812TIP3    H2 8380   7.727   1.744   6.424
 2813TIP3   OH2 8381   6.978   1.769   6.612
 2813TIP3    H1 8382   6.949   1.815   6.533
 2813TIP3    H2 8383   7.056   1.721   6.585
 2814TIP3   OH2 8384   6.587   6.287   2.511
 2814TIP3    H1 8385   6.544   6.293   2.596
 2814TIP3    H2 8386   6.680   6.298   2.530
 2815TIP3   OH2 8387   8.126   7.020   0.779
 2815TIP3    H1 8388   8.202   6.962   0.767
 2815TIP3    H2 8389   8.052   6.960   0.789
 2816TIP3   OH2 8390   4.072   4.384   5.842
 2816TIP3    H1 8391   3.988   4.382   5.889
 2816TIP3    H2 8392   4.067   4.309   5.782
 2817TIP3   OH2 8393   6.380   1.961   5.437
 2817TIP3    H1 8394   6.439   1.925   5.503
 2817TIP3    H2 8395   6.342   1.885   5.394
 2818TIP3   OH2 8396   4.292   7.772   0.477
 2818TIP3    H1 8397   4.363   7.751   0.537
 2818TIP3    H2 8398   4.266   7.861   0.500
 2819TIP3   OH2 8399   6.571   6.420   1.637
 2819TIP3    H1 8400   6.517   6.434   1.559
 2819TIP3    H2 8401   6.634   6.492   1.635
 2820TIP3   OH2 8402   7.961   1.205   3.048
 2820TIP3    H1 8403   8.005   1.218   2.964
 2820TIP3    H2 8404   7.907   1.283   3.060
 2821TIP3   OH2 8405   2.854   1.354   0.455
 2821TIP3    H1 8406   2.913   1.318   0.521
 2821TIP3    H2 8407   2.862   1.295   0.380
 2822TIP3   OH2 8408   2.623   0.527   6.170
 2822TIP3    H1 8409   2.588   0.438   6.164
 2822TIP3    H2 8410   2.650   0.537   6.261
 2823TIP3   OH2 8411   6.385   3.170   4.162
 2823TIP3    H1 8412   6.431   3.086   4.160
 2823TIP3    H2 8413   6.298   3.150   4.194
 2824TIP3   OH2 8414   5.425   5.644   6.082
 2824TIP3    H1 8415   5.429   5.663   5.988
 2824TIP3    H2 8416   5.456   5.725   6.123
 2825TIP3   OH2 8417   3.979   6.867   0.870
 2825TIP3    H1 8418   3.990   6.957   0.841
 2825TIP3    H2 8419   4.065   6.827   0.859
 2826TIP3   OH2 8420   3.979   0.563   4.773
 2826TIP3    H1 8421   3.886   0.570   4.794
 2826TIP3    H2 8422   3.983   0.502   4.699
 2827TIP3   OH2 8423   8.080   5.502   4.581
 2827TIP3    H1 8424   8.118   5.415   4.590
 2827TIP3    H2 8425   8.059   5.510   4.488
 2828TIP3   OH2 8426   8.181   2.570   0.723
 2828TIP3    H1 8427   8.208   2.662   0.719
 2828TIP3    H2 8428   8.190   2.546   0.816
 2829TIP3   OH2 8429   3.328   3.230   0.382
 2829TIP3    H1 8430   3.345   3.179   0.462
 2829TIP3    H2 8431   3.234   3.246   0.383
 2830TIP3   OH2 8432   7.001   3.251   5.589
 2830TIP3    H1 8433   7.071   3.283   5.532
 2830TIP3    H2 8434   6.921   3.262   5.537
 2831TIP3   OH2 8435   3.583   0.572   6.711
 2831TIP3    H1 8436   3.555   0.616   6.792
 2831TIP3    H2 8437   3.580   0.640   6.645
 2832TIP3   OH2 8438   4.345   3.885   4.128
 2832TIP3    H1 8439   4.381   3.927   4.050
 2832TIP3    H2 8440   4.399   3.916   4.200
 2833TIP3   OH2 8441   8.002   4.271   5.173
 2833TIP3    H1 8442   8.035   4.318   5.249
 2833TIP3    H2 8443   7.907   4.275   5.182
 2834TIP3   OH2 8444   6.088   5.469   3.955
 2834TIP3    H1 8445   6.162   5.515   3.994
 2834TIP3    H2 8446   6.120   5.441   3.869
 2835TIP3   OH2 8447   5.038   0.089   4.038
 2835TIP3    H1 8448   4.967   0.116   4.097
 2835TIP3    H2 8449   5.083   0.170   4.015
 2836TIP3   OH2 8450   3.176   3.975   1.461
 2836TIP3    H1 8451   3.202   4.064   1.438
 2836TIP3    H2 8452   3.098   3.987   1.516
 2837TIP3   OH2 8453   4.698   7.649   4.739
 2837TIP3    H1 8454   4.761   7.584   4.772
 2837TIP3    H2 8455   4.702   7.720   4.803
 2838TIP3   OH2 8456   0.848   5.292   4.587
 2838TIP3    H1 8457   0.797   5.302   4.506
 2838TIP3    H2 8458   0.785   5.258   4.651
 2839TIP3   OH2 8459   2.112   2.025   1.329
 2839TIP3    H1 8460   2.072   2.110   1.346
 2839TIP3    H2 8461   2.107   2.015   1.234
 2840TIP3   OH2 8462   3.386   0.249   3.896
 2840TIP3    H1 8463   3.322   0.318   3.876
 2840TIP3    H2 8464   3.396   0.201   3.813
 2841TIP3   OH2 8465   2.828   2.791   6.499
 2841TIP3    H1 8466   2.745   2.838   6.510
 2841TIP3    H2 8467   2.877   2.811   6.578
 2842TIP3   OH2 8468   7.619   4.888   6.155
 2842TIP3    H1 8469   7.695   4.911   6.102
 2842TIP3    H2 8470   7.580   4.812   6.111
 2843TIP3   OH2 8471   5.122   1.108   3.460
 2843TIP3    H1 8472   5.048   1.142   3.511
 2843TIP3    H2 8473   5.104   1.133   3.370
 2844TIP3   OH2 8474   4.352   3.117   4.747
 2844TIP3    H1 8475   4.420   3.098   4.811
 2844TIP3    H2 8476   4.300   3.037   4.743
 2845TIP3   OH2 8477   5.791   5.116   5.524
 2845TIP3    H1 8478   5.806   5.024   5.503
 2845TIP3    H2 8479   5.785   5.160   5.439
 2846TIP3   OH2 8480   7.150   5.448   4.118
 2846TIP3    H1 8481   7.064   5.449   4.075
 2846TIP3    H2 8482   7.209   5.411   4.052
 2847TIP3   OH2 8483   2.127   3.856   5.415
 2847TIP3    H1 8484   2.192   3.790   5.390
 2847TIP3    H2 8485   2.086   3.820   5.494
 2848TIP3   OH2 8486   4.898   7.442   2.686
 2848TIP3    H1 8487   4.826   7.470   2.742
 2848TIP3    H2 8488   4.970   7.425   2.747
 2849TIP3   OH2 8489   2.752   0.574   5.932
 2849TIP3    H1 8490   2.735   0.667   5.922
 2849TIP3    H2 8491   2.741   0.558   6.026
 2850TIP3   OH2 8492   8.257   1.563   3.309
 2850TIP3    H1 8493   8.248   1.527   3.221
 2850TIP3    H2 8494   8.347   1.595   3.313
 2851TIP3   OH2 8495   2.361   6.852   6.613
 2851TIP3    H1 8496   2.268   6.866   6.630
 2851TIP3    H2 8497   2.364   6.811   6.527
 2852TIP3   OH2 8498   7.194   2.829   0.287
 2852TIP3    H1 8499   7.122   2.869   0.336
 2852TIP3    H2 8500   7.269   2.887   0.303
 2853TIP3   OH2 8501   6.415   3.814   6.530
 2853TIP3    H1 8502   6.397   3.732   6.577
 2853TIP3    H2 8503   6.472   3.863   6.589
 2854TIP3   OH2 8504   4.627   2.793   4.357
 2854TIP3    H1 8505   4.580   2.759   4.433
 2854TIP3    H2 8506   4.584   2.752   4.282
 2855TIP3   OH2 8507   7.220   3.632   0.113
 2855TIP3    H1 8508   7.196   3.594   0.028
 2855TIP3    H2 8509   7.256   3.559   0.163
 2856TIP3   OH2 8510   4.465   6.168   1.078
 2856TIP3    H1 8511   4.397   6.103   1.094
 2856TIP3    H2 8512   4.465   6.222   1.157
 2857TIP3   OH2 8513   2.093   7.492   0.885
 2857TIP3    H1 8514   2.111   7.528   0.972
 2857TIP3    H2 8515   1.999   7.475   0.885
 2858TIP3   OH2 8516   2.282  -0.004   0.958
 2858TIP3    H1 8517   2.204   0.043   0.930
 2858TIP3    H2 8518   2.347   0.012   0.890
 2859TIP3   OH2 8519   3.041   2.782   6.093
 2859TIP3    H1 8520   3.045   2.732   6.012
 2859TIP3    H2 8521   3.002   2.722   6.157
 2860TIP3   OH2 8522   6.513   5.883   6.646
 2860TIP3    H1 8523   6.520   5.856   6.554
 2860TIP3    H2 8524   6.568   5.962   6.651
 2861TIP3   OH2 8525   0.259   6.160   4.492
 2861TIP3    H1 8526   0.292   6.124   4.410
 2861TIP3    H2 8527   0.214   6.086   4.534
 2862TIP3   OH2 8528   7.389   5.779   0.948
 2862TIP3    H1 8529   7.319   5.819   0.897
 2862TIP3    H2 8530   7.358   5.690   0.965
 2863TIP3   OH2 8531   8.049   6.889   2.222
 2863TIP3    H1 8532   8.105   6.824   2.265
 2863TIP3    H2 8533   8.110   6.954   2.187
 2864TIP3   OH2 8534   0.162   4.377   4.490
 2864TIP3    H1 8535   0.168   4.431   4.568
 2864TIP3    H2 8536   0.102   4.425   4.432
 2865TIP3   OH2 8537   1.337   0.832   6.099
 2865TIP3    H1 8538   1.272   0.781   6.148
 2865TIP3    H2 8539   1.399   0.766   6.067
 2866TIP3   OH2 8540   7.308   7.793   5.649
 2866TIP3    H1 8541   7.364   7.722   5.616
 2866TIP3    H2 8542   7.243   7.806   5.580
 2867TIP3   OH2 8543   8.305   5.641   5.798
 2867TIP3    H1 8544   8.251   5.663   5.874
 2867TIP3    H2 8545   8.377   5.704   5.801
 2868TIP3   OH2 8546   5.430   6.219   2.506
 2868TIP3    H1 8547   5.487   6.142   2.496
 2868TIP3    H2 8548   5.392   6.231   2.419
 2869TIP3   OH2 8549   5.115   1.065   0.237
 2869TIP3    H1 8550   5.090   0.994   0.179
 2869TIP3    H2 8551   5.157   1.022   0.311
 2870TIP3   OH2 8552   7.783   4.050   3.614
 2870TIP3    H1 8553   7.764   4.002   3.694
 2870TIP3    H2 8554   7.871   4.021   3.590
 2871TIP3   OH2 8555   4.306   0.938   1.044
 2871TIP3    H1 8556   4.326   0.998   1.116
 2871TIP3    H2 8557   4.326   0.851   1.080
 2872TIP3   OH2 8558   3.845   7.868   2.896
 2872TIP3    H1 8559   3.806   7.881   2.982
 2872TIP3    H2 8560   3.862   7.774   2.892
 2873TIP3   OH2 8561   7.446   4.133   4.998
 2873TIP3    H1 8562   7.372   4.166   5.049
 2873TIP3    H2 8563   7.479   4.059   5.050
 2874TIP3   OH2 8564   7.522   1.108   1.244
 2874TIP3    H1 8565   7.515   1.200   1.271
 2874TIP3    H2 8566   7.460   1.099   1.172
 2875TIP3   OH2 8567   6.143   0.642   4.672
 2875TIP3    H1 8568   6.125   0.685   4.756
 2875TIP3    H2 8569   6.193   0.564   4.696
 2876TIP3   OH2 8570   1.353   4.828   3.222
 2876TIP3    H1 8571   1.365   4.923   3.216
 2876TIP3    H2 8572   1.272   4.811   3.174
 2877TIP3   OH2 8573   0.690   5.926   1.518
 2877TIP3    H1 8574   0.727   5.838   1.518
 2877TIP3    H2 8575   0.755   5.980   1.563
 2878TIP3   OH2 8576   1.293   2.408   1.228
 2878TIP3    H1 8577   1.228   2.394   1.297
 2878TIP3    H2 8578   1.369   2.442   1.274
 2879TIP3   OH2 8579   6.155   3.247   1.242
 2879TIP3    H1 8580   6.194   3.160   1.241
 2879TIP3    H2 8581   6.095   3.247   1.167
 2880TIP3   OH2 8582   3.278   5.093   5.376
 2880TIP3    H1 8583   3.249   5.133   5.294
 2880TIP3    H2 8584   3.318   5.165   5.425
 2881TIP3   OH2 8585   5.710   0.758   4.492
 2881TIP3    H1 8586   5.738   0.696   4.560
 2881TIP3    H2 8587   5.720   0.844   4.532
 2882TIP3   OH2 8588   0.882   6.060   0.934
 2882TIP3    H1 8589   0.866   6.139   0.985
 2882TIP3    H2 8590   0.977   6.049   0.935
 2883TIP3   OH2 8591   4.076   5.420   1.283
 2883TIP3    H1 8592   4.006   5.421   1.217
 2883TIP3    H2 8593   4.116   5.506   1.275
 2884TIP3   OH2 8594   7.039   7.551   4.666
 2884TIP3    H1 8595   7.081   7.471   4.635
 2884TIP3    H2 8596   6.963   7.521   4.716
 2885TIP3   OH2 8597   0.147   1.289   2.100
 2885TIP3    H1 8598   0.200   1.210   2.114
 2885TIP3    H2 8599   0.106   1.305   2.185
 2886TIP3   OH2 8600   3.800   1.188   4.253
 2886TIP3    H1 8601   3.775   1.174   4.344
 2886TIP3    H2 8602   3.860   1.262   4.255
 2887TIP3   OH2 8603   0.173   3.607   0.872
 2887TIP3    H1 8604   0.109   3.677   0.887
 2887TIP3    H2 8605   0.185   3.606   0.777
 2888TIP3   OH2 8606   1.599   1.871   5.430
 2888TIP3    H1 8607   1.572   1.963   5.423
 2888TIP3    H2 8608   1.691   1.871   5.406
 2889TIP3   OH2 8609   5.568   0.787   1.669
 2889TIP3    H1 8610   5.555   0.882   1.670
 2889TIP3    H2 8611   5.655   0.774   1.705
 2890TIP3   OH2 8612   1.804   5.362   1.744
 2890TIP3    H1 8613   1.833   5.311   1.668
 2890TIP3    H2 8614   1.817   5.304   1.819
 2891TIP3   OH2 8615   2.872   5.361   6.397
 2891TIP3    H1 8616   2.820   5.375   6.319
 2891TIP3    H2 8617   2.829   5.413   6.465
 2892TIP3   OH2 8618   1.456   1.419   3.107
 2892TIP3    H1 8619   1.526   1.355   3.114
 2892TIP3    H2 8620   1.431   1.437   3.198
 2893TIP3   OH2 8621   3.949   3.519   5.737
 2893TIP3    H1 8622   4.004   3.518   5.815
 2893TIP3    H2 8623   3.940   3.611   5.714
 2894TIP3   OH2 8624   5.068   5.455   3.807
 2894TIP3    H1 8625   5.065   5.476   3.714
 2894TIP3    H2 8626   5.088   5.539   3.850
 2895TIP3   OH2 8627   0.433   1.611   3.469
 2895TIP3    H1 8628   0.501   1.665   3.428
 2895TIP3    H2 8629   0.473   1.581   3.551
 2896TIP3   OH2 8630   7.200   5.633   4.608
 2896TIP3    H1 8631   7.252   5.552   4.617
 2896TIP3    H2 8632   7.149   5.619   4.529
 2897TIP3   OH2 8633   3.758   5.058   2.007
 2897TIP3    H1 8634   3.742   5.034   2.098
 2897TIP3    H2 8635   3.672   5.083   1.973
 2898TIP3   OH2 8636   7.251   5.256   4.389
 2898TIP3    H1 8637   7.301   5.325   4.433
 2898TIP3    H2 8638   7.174   5.301   4.353
 2899TIP3   OH2 8639   1.044   3.000   2.926
 2899TIP3    H1 8640   0.956   3.034   2.944
 2899TIP3    H2 8641   1.096   3.027   3.002
 2900TIP3   OH2 8642   0.159   7.474   6.578
 2900TIP3    H1 8643   0.168   7.382   6.605
 2900TIP3    H2 8644   0.074   7.501   6.612
 2901TIP3   OH2 8645   5.360   5.913   4.113
 2901TIP3    H1 8646   5.413   5.833   4.107
 2901TIP3    H2 8647   5.421   5.981   4.139
 2902TIP3   OH2 8648   5.284   1.432   2.166
 2902TIP3    H1 8649   5.360   1.393   2.210
 2902TIP3    H2 8650   5.308   1.524   2.156
 2903TIP3   OH2 8651   6.258   5.974   3.617
 2903TIP3    H1 8652   6.339   6.006   3.578
 2903TIP3    H2 8653   6.282   5.891   3.658
 2904TIP3   OH2 8654   3.348   1.271   6.064
 2904TIP3    H1 8655   3.369   1.226   5.983
 2904TIP3    H2 8656   3.419   1.249   6.124
 2905TIP3   OH2 8657   2.912   6.377   1.693
 2905TIP3    H1 8658   2.849   6.311   1.664
 2905TIP3    H2 8659   2.873   6.460   1.669
 2906TIP3   OH2 8660   2.852   5.890   3.852
 2906TIP3    H1 8661   2.870   5.895   3.946
 2906TIP3    H2 8662   2.924   5.838   3.817
 2907TIP3   OH2 8663   8.063   6.198   5.909
 2907TIP3    H1 8664   8.009   6.253   5.851
 2907TIP3    H2 8665   8.151   6.207   5.874
 2908TIP3   OH2 8666   2.744   5.050   3.309
 2908TIP3    H1 8667   2.817   5.008   3.263
 2908TIP3    H2 8668   2.747   5.142   3.281
 2909TIP3   OH2 8669   7.734   5.436   1.092
 2909TIP3    H1 8670   7.762   5.477   1.010
 2909TIP3    H2 8671   7.709   5.509   1.148
 2910TIP3   OH2 8672   7.916   6.365   1.579
 2910TIP3    H1 8673   7.960   6.301   1.524
 2910TIP3    H2 8674   7.829   6.374   1.541
 2911TIP3   OH2 8675   2.685   1.152   4.469
 2911TIP3    H1 8676   2.594   1.130   4.489
 2911TIP3    H2 8677   2.698   1.120   4.380
 2912TIP3   OH2 8678   4.239   0.198   4.948
 2912TIP3    H1 8679   4.259   0.286   4.917
 2912TIP3    H2 8680   4.209   0.211   5.038
 2913TIP3   OH2 8681   5.923   5.934   1.936
 2913TIP3    H1 8682   5.837   5.944   1.977
 2913TIP3    H2 8683   5.984   5.925   2.008
 2914TIP3   OH2 8684   5.182   4.871   3.835
 2914TIP3    H1 8685   5.166   4.785   3.796
 2914TIP3    H2 8686   5.095   4.908   3.847
 2915TIP3   OH2 8687   1.445   4.471   0.326
 2915TIP3    H1 8688   1.442   4.544   0.388
 2915TIP3    H2 8689   1.531   4.477   0.285
 2916TIP3   OH2 8690   6.616   0.009   1.572
 2916TIP3    H1 8691   6.607  -0.086   1.567
 2916TIP3    H2 8692   6.670   0.033   1.497
 2917TIP3   OH2 8693   3.891   4.116   5.575
 2917TIP3    H1 8694   3.895   4.024   5.551
 2917TIP3    H2 8695   3.982   4.144   5.580
 2918TIP3   OH2 8696   0.098   5.970   2.543
 2918TIP3    H1 8697   0.176   5.921   2.516
 2918TIP3    H2 8698   0.029   5.904   2.549
 2919TIP3   OH2 8699   3.384   6.662   5.725
 2919TIP3    H1 8700   3.314   6.666   5.660
 2919TIP3    H2 8701   3.453   6.612   5.681
 2920TIP3   OH2 8702   3.441   4.224   6.243
 2920TIP3    H1 8703   3.373   4.288   6.222
 2920TIP3    H2 8704   3.433   4.209   6.337
 2921TIP3   OH2 8705   6.653   2.641   5.209
 2921TIP3    H1 8706   6.727   2.581   5.214
 2921TIP3    H2 8707   6.591   2.609   5.275
 2922TIP3   OH2 8708   1.147   0.362   2.212
 2922TIP3    H1 8709   1.154   0.425   2.140
 2922TIP3    H2 8710   1.187   0.282   2.178
 2923TIP3   OH2 8711   2.033   6.530   0.376
 2923TIP3    H1 8712   1.976   6.599   0.340
 2923TIP3    H2 8713   2.097   6.514   0.308
 2924TIP3   OH2 8714   0.902   1.151   0.496
 2924TIP3    H1 8715   0.942   1.161   0.583
 2924TIP3    H2 8716   0.842   1.077   0.505
 2925TIP3   OH2 8717   1.000   1.196   0.732
 2925TIP3    H1 8718   0.970   1.181   0.821
 2925TIP3    H2 8719   1.074   1.256   0.741
 2926TIP3   OH2 8720   5.319   7.295   6.231
 2926TIP3    H1 8721   5.275   7.309   6.315
 2926TIP3    H2 8722   5.294   7.372   6.178
 2927TIP3   OH2 8723   0.977   1.605   0.352
 2927TIP3    H1 8724   0.897   1.623   0.302
 2927TIP3    H2 8725   1.030   1.684   0.341
 2928TIP3   OH2 8726   6.334   6.707   3.598
 2928TIP3    H1 8727   6.409   6.741   3.549
 2928TIP3    H2 8728   6.301   6.635   3.544
 2929TIP3   OH2 8729   4.699   0.943   4.293
 2929TIP3    H1 8730   4.645   0.939   4.214
 2929TIP3    H2 8731   4.774   0.996   4.267
 2930TIP3   OH2 8732   1.108   2.082   3.388
 2930TIP3    H1 8733   1.131   2.121   3.472
 2930TIP3    H2 8734   1.014   2.068   3.393
 2931TIP3   OH2 8735   7.178   1.935   1.210
 2931TIP3    H1 8736   7.177   2.002   1.141
 2931TIP3    H2 8737   7.161   1.984   1.291
 2932TIP3   OH2 8738   3.782   5.892   3.579
 2932TIP3    H1 8739   3.696   5.912   3.542
 2932TIP3    H2 8740   3.767   5.890   3.674
 2933TIP3   OH2 8741   0.500   2.741   5.891
 2933TIP3    H1 8742   0.550   2.811   5.849
 2933TIP3    H2 8743   0.412   2.749   5.853
 2934TIP3   OH2 8744   3.262   3.697   2.593
 2934TIP3    H1 8745   3.188   3.750   2.563
 2934TIP3    H2 8746   3.308   3.753   2.655
 2935TIP3   OH2 8747   3.259   5.697   0.951
 2935TIP3    H1 8748   3.276   5.611   0.988
 2935TIP3    H2 8749   3.189   5.682   0.887
 2936TIP3   OH2 8750   6.589   0.809   6.555
 2936TIP3    H1 8751   6.512   0.792   6.500
 2936TIP3    H2 8752   6.616   0.897   6.530
 2937TIP3   OH2 8753   2.839   6.149   2.082
 2937TIP3    H1 8754   2.915   6.143   2.140
 2937TIP3    H2 8755   2.807   6.239   2.094
 2938TIP3   OH2 8756   6.505   0.798   1.663
 2938TIP3    H1 8757   6.520   0.708   1.692
 2938TIP3    H2 8758   6.557   0.806   1.583
 2939TIP3   OH2 8759   0.265   1.970   0.906
 2939TIP3    H1 8760   0.243   2.063   0.899
 2939TIP3    H2 8761   0.185   1.929   0.939
 2940TIP3   OH2 8762   4.201   2.818   3.465
 2940TIP3    H1 8763   4.141   2.785   3.531
 2940TIP3    H2 8764   4.146   2.863   3.402
 2941TIP3   OH2 8765   7.770   3.364   3.587
 2941TIP3    H1 8766   7.839   3.302   3.564
 2941TIP3    H2 8767   7.697   3.343   3.528
 2942TIP3   OH2 8768   5.557   0.078   1.673
 2942TIP3    H1 8769   5.499   0.081   1.750
 2942TIP3    H2 8770   5.604   0.161   1.676
 2943TIP3   OH2 8771   1.372   4.182   1.364
 2943TIP3    H1 8772   1.353   4.264   1.319
 2943TIP3    H2 8773   1.288   4.137   1.370
 2944TIP3   OH2 8774   1.454   5.752   2.998
 2944TIP3    H1 8775   1.410   5.807   3.063
 2944TIP3    H2 8776   1.541   5.792   2.987
 2945TIP3   OH2 8777   3.459   7.461   1.178
 2945TIP3    H1 8778   3.430   7.542   1.221
 2945TIP3    H2 8779   3.379   7.418   1.151
 2946TIP3   OH2 8780   4.014   7.741   4.999
 2946TIP3    H1 8781   4.006   7.715   4.907
 2946TIP3    H2 8782   4.020   7.659   5.047
 2947TIP3   OH2 8783   5.634   2.033   4.260
 2947TIP3    H1 8784   5.659   1.977   4.334
 2947TIP3    H2 8785   5.707   2.026   4.199
 2948TIP3   OH2 8786   6.581   3.651   4.852
 2948TIP3    H1 8787   6.563   3.562   4.881
 2948TIP3    H2 8788   6.563   3.705   4.930
 2949TIP3   OH2 8789   6.998   1.971   0.982
 2949TIP3    H1 8790   7.031   1.882   0.994
 2949TIP3    H2 8791   7.076   2.027   0.985
 2950TIP3   OH2 8792   5.717   5.744   5.624
 2950TIP3    H1 8793   5.719   5.798   5.703
 2950TIP3    H2 8794   5.809   5.721   5.609
 2951TIP3   OH2 8795   2.403   2.730   0.319
 2951TIP3    H1 8796   2.352   2.761   0.394
 2951TIP3    H2 8797   2.366   2.777   0.244
 2952TIP3   OH2 8798   2.775   5.785   0.139
 2952TIP3    H1 8799   2.816   5.871   0.133
 2952TIP3    H2 8800   2.831   5.727   0.088
 2953TIP3   OH2 8801   1.728   6.678   5.454
 2953TIP3    H1 8802   1.741   6.720   5.369
 2953TIP3    H2 8803   1.691   6.746   5.510
 2954TIP3   OH2 8804   3.498   6.027   3.661
 2954TIP3    H1 8805   3.458   6.043   3.575
 2954TIP3    H2 8806   3.482   5.934   3.678
 2955TIP3   OH2 8807   8.056   3.867   5.552
 2955TIP3    H1 8808   8.030   3.903   5.467
 2955TIP3    H2 8809   8.017   3.780   5.555
 2956TIP3   OH2 8810   3.785   4.538   4.770
 2956TIP3    H1 8811   3.794   4.629   4.799
 2956TIP3    H2 8812   3.842   4.488   4.828
 2957TIP3   OH2 8813   5.208   2.393   5.319
 2957TIP3    H1 8814   5.258   2.434   5.389
 2957TIP3    H2 8815   5.122   2.434   5.323
 2958TIP3   OH2 8816   4.460   6.296   5.761
 2958TIP3    H1 8817   4.507   6.258   5.687
 2958TIP3    H2 8818   4.373   6.318   5.727
 2959TIP3   OH2 8819   3.703   4.380   5.622
 2959TIP3    H1 8820   3.703   4.475   5.629
 2959TIP3    H2 8821   3.680   4.362   5.531
 2960TIP3   OH2 8822   3.375   4.016   1.257
 2960TIP3    H1 8823   3.458   3.970   1.248
 2960TIP3    H2 8824   3.309   3.947   1.260
 2961TIP3   OH2 8825   1.679   2.879   3.235
 2961TIP3    H1 8826   1.722   2.965   3.234
 2961TIP3    H2 8827   1.711   2.835   3.156
 2962TIP3   OH2 8828   2.983   5.537   2.808
 2962TIP3    H1 8829   3.030   5.620   2.797
 2962TIP3    H2 8830   3.044   5.481   2.855
 2963TIP3   OH2 8831   0.416   5.686   1.631
 2963TIP3    H1 8832   0.453   5.774   1.640
 2963TIP3    H2 8833   0.462   5.649   1.555
 2964TIP3   OH2 8834   5.113   1.786   0.683
 2964TIP3    H1 8835   5.162   1.753   0.758
 2964TIP3    H2 8836   5.097   1.878   0.704
 2965TIP3   OH2 8837   2.357   4.406   1.511
 2965TIP3    H1 8838   2.347   4.328   1.565
 2965TIP3    H2 8839   2.429   4.385   1.451
 2966TIP3   OH2 8840   5.514   3.469   3.918
 2966TIP3    H1 8841   5.535   3.456   4.011
 2966TIP3    H2 8842   5.456   3.396   3.896
 2967TIP3   OH2 8843   3.477   6.119   2.975
 2967TIP3    H1 8844   3.572   6.131   2.967
 2967TIP3    H2 8845   3.455   6.057   2.906
 2968TIP3   OH2 8846   6.891   0.793   0.772
 2968TIP3    H1 8847   6.823   0.728   0.756
 2968TIP3    H2 8848   6.899   0.797   0.867
 2969TIP3   OH2 8849   5.834   2.219   6.223
 2969TIP3    H1 8850   5.796   2.305   6.204
 2969TIP3    H2 8851   5.810   2.203   6.315
 2970TIP3   OH2 8852   3.478   7.311   4.332
 2970TIP3    H1 8853   3.429   7.387   4.364
 2970TIP3    H2 8854   3.569   7.339   4.330
 2971TIP3   OH2 8855   0.302   7.432   4.800
 2971TIP3    H1 8856   0.347   7.427   4.716
 2971TIP3    H2 8857   0.211   7.410   4.780
 2972TIP3   OH2 8858   1.028   0.763   3.918
 2972TIP3    H1 8859   0.957   0.714   3.959
 2972TIP3    H2 8860   0.988   0.846   3.893
 2973TIP3   OH2 8861   2.245   3.842   1.640
 2973TIP3    H1 8862   2.339   3.855   1.650
 2973TIP3    H2 8863   2.208   3.930   1.637
 2974TIP3   OH2 8864   7.438   3.549   5.831
 2974TIP3    H1 8865   7.398   3.475   5.786
 2974TIP3    H2 8866   7.368   3.583   5.888
 2975TIP3   OH2 8867   5.745   7.610   0.171
 2975TIP3    H1 8868   5.730   7.590   0.079
 2975TIP3    H2 8869   5.739   7.706   0.176
 2976TIP3   OH2 8870   0.756   6.489   1.966
 2976TIP3    H1 8871   0.755   6.430   2.041
 2976TIP3    H2 8872   0.669   6.479   1.927
 2977TIP3   OH2 8873   6.221   1.415   2.927
 2977TIP3    H1 8874   6.205   1.332   2.973
 2977TIP3    H2 8875   6.315   1.413   2.908
 2978TIP3   OH2 8876   2.345   4.382   4.150
 2978TIP3    H1 8877   2.345   4.295   4.109
 2978TIP3    H2 8878   2.420   4.427   4.111
 2979TIP3   OH2 8879   3.278   5.923   2.503
 2979TIP3    H1 8880   3.283   6.010   2.465
 2979TIP3    H2 8881   3.188   5.894   2.485
 2980TIP3   OH2 8882   4.545   0.999   3.621
 2980TIP3    H1 8883   4.625   0.956   3.591
 2980TIP3    H2 8884   4.475   0.962   3.567
 2981TIP3   OH2 8885   3.557   7.241   2.979
 2981TIP3    H1 8886   3.638   7.281   2.948
 2981TIP3    H2 8887   3.583   7.191   3.056
 2982TIP3   OH2 8888   3.057   7.816   3.968
 2982TIP3    H1 8889   3.087   7.745   4.025
 2982TIP3    H2 8890   2.962   7.804   3.964
 2983TIP3   OH2 8891   0.301   6.764   4.174
 2983TIP3    H1 8892   0.237   6.826   4.141
 2983TIP3    H2 8893   0.260   6.726   4.252
 2984TIP3   OH2 8894   3.493   6.662   4.667
 2984TIP3    H1 8895   3.481   6.727   4.598
 2984TIP3    H2 8896   3.512   6.712   4.746
 2985TIP3   OH2 8897  -0.023   6.877   0.455
 2985TIP3    H1 8898   0.012   6.803   0.504
 2985TIP3    H2 8899   0.054   6.918   0.416
 2986TIP3   OH2 8900   1.754   3.838   0.917
 2986TIP3    H1 8901   1.813   3.883   0.977
 2986TIP3    H2 8902   1.801   3.835   0.834
 2987TIP3   OH2 8903   1.938   4.094   6.391
 2987TIP3    H1 8904   1.976   4.177   6.422
 2987TIP3    H2 8905   1.865   4.077   6.450
 2988TIP3   OH2 8906   0.510   3.450   6.477
 2988TIP3    H1 8907   0.449   3.394   6.525
 2988TIP3    H2 8908   0.532   3.399   6.399
 2989TIP3   OH2 8909   5.556   1.217   3.674
 2989TIP3    H1 8910   5.541   1.310   3.687
 2989TIP3    H2 8911   5.494   1.174   3.734
 2990TIP3   OH2 8912   4.479   6.147   0.321
 2990TIP3    H1 8913   4.485   6.113   0.232
 2990TIP3    H2 8914   4.556   6.202   0.331
 2991TIP3   OH2 8915   1.246   5.089   0.747
 2991TIP3    H1 8916   1.317   5.096   0.683
 2991TIP3    H2 8917   1.188   5.162   0.727
 2992TIP3   OH2 8918   1.615   4.067   1.302
 2992TIP3    H1 8919   1.536   4.118   1.320
 2992TIP3    H2 8920   1.687   4.127   1.319
 2993TIP3   OH2 8921   0.264   2.482   6.618
 2993TIP3    H1 8922   0.220   2.566   6.630
 2993TIP3    H2 8923   0.230   2.448   6.535
 2994TIP3   OH2 8924   7.417   7.703   3.511
 2994TIP3    H1 8925   7.364   7.669   3.438
 2994TIP3    H2 8926   7.353   7.742   3.570
 2995TIP3   OH2 8927   2.836   1.488   4.124
 2995TIP3    H1 8928   2.832   1.442   4.208
 2995TIP3    H2 8929   2.756   1.460   4.079
 2996TIP3   OH2 8930   6.813   2.246   3.592
 2996TIP3    H1 8931   6.853   2.286   3.515
 2996TIP3    H2 8932   6.790   2.319   3.649
 2997TIP3   OH2 8933   3.936   4.946   0.019
 2997TIP3    H1 8934   4.030   4.927   0.024
 2997TIP3    H2 8935   3.930   5.040   0.033
 2998TIP3   OH2 8936   3.922   0.822   5.572
 2998TIP3    H1 8937   3.904   0.772   5.652
 2998TIP3    H2 8938   3.846   0.806   5.516
 2999TIP3   OH2 8939   5.399   7.837   1.824
 2999TIP3    H1 8940   5.455   7.911   1.801
 2999TIP3    H2 8941   5.360   7.810   1.741
 3000TIP3   OH2 8942   7.049   0.307   3.591
 3000TIP3    H1 8943   6.972   0.330   3.643
 3000TIP3    H2 8944   7.118   0.364   3.625
 3001TIP3   OH2 8945   3.635   6.733   0.031
 3001TIP3    H1 8946   3.660   6.799   0.097
 3001TIP3    H2 8947   3.630   6.651   0.080
 3002TIP3   OH2 8948   3.906   4.519   2.581
 3002TIP3    H1 8949   3.860   4.603   2.578
 3002TIP3    H2 8950   3.839   4.455   2.603
 3003TIP3   OH2 8951   4.830   2.882   0.625
 3003TIP3    H1 8952   4.846   2.903   0.717
 3003TIP3    H2 8953   4.765   2.947   0.596
 3004TIP3   OH2 8954   4.652   5.127   1.615
 3004TIP3    H1 8955   4.627   5.117   1.707
 3004TIP3    H2 8956   4.736   5.082   1.608
 3005TIP3   OH2 8957   1.944   5.922   0.211
 3005TIP3    H1 8958   1.993   6.003   0.197
 3005TIP3    H2 8959   1.983   5.883   0.290
 3006TIP3   OH2 8960   2.890   4.469   2.381
 3006TIP3    H1 8961   2.944   4.518   2.319
 3006TIP3    H2 8962   2.920   4.378   2.372
 3007TIP3   OH2 8963   3.306   0.262   0.451
 3007TIP3    H1 8964   3.380   0.300   0.404
 3007TIP3    H2 8965   3.280   0.329   0.513
 3008TIP3   OH2 8966   6.313   2.009   0.302
 3008TIP3    H1 8967   6.267   2.003   0.385
 3008TIP3    H2 8968   6.341   1.919   0.283
 3009TIP3   OH2 8969   7.428   5.429   2.357
 3009TIP3    H1 8970   7.359   5.366   2.378
 3009TIP3    H2 8971   7.474   5.390   2.282
 3010TIP3   OH2 8972   4.614   6.911   2.186
 3010TIP3    H1 8973   4.699   6.876   2.160
 3010TIP3    H2 8974   4.550   6.862   2.133
 3011TIP3   OH2 8975   6.279   3.953   1.075
 3011TIP3    H1 8976   6.267   3.958   1.169
 3011TIP3    H2 8977   6.206   3.899   1.044
 3012TIP3   OH2 8978   2.798   1.603   1.386
 3012TIP3    H1 8979   2.745   1.533   1.349
 3012TIP3    H2 8980   2.767   1.612   1.476
 3013TIP3   OH2 8981   1.876   6.643   1.157
 3013TIP3    H1 8982   1.783   6.632   1.138
 3013TIP3    H2 8983   1.917   6.561   1.129
 3014TIP3   OH2 8984   2.994   1.413   2.642
 3014TIP3    H1 8985   3.069   1.405   2.700
 3014TIP3    H2 8986   2.961   1.324   2.632
 3015TIP3   OH2 8987   7.079   0.667   2.637
 3015TIP3    H1 8988   7.003   0.622   2.598
 3015TIP3    H2 8989   7.153   0.639   2.583
 3016TIP3   OH2 8990   2.189   3.724   6.184
 3016TIP3    H1 8991   2.113   3.733   6.241
 3016TIP3    H2 8992   2.176   3.640   6.140
 3017TIP3   OH2 8993   7.691   0.433   4.911
 3017TIP3    H1 8994   7.714   0.360   4.969
 3017TIP3    H2 8995   7.705   0.399   4.823
 3018TIP3   OH2 8996   1.293   1.734   1.689
 3018TIP3    H1 8997   1.252   1.762   1.607
 3018TIP3    H2 8998   1.384   1.762   1.681
 3019TIP3   OH2 8999   5.274   4.309   4.369
 3019TIP3    H1 9000   5.356   4.310   4.420
 3019TIP3    H2 9001   5.276   4.226   4.323
 3020TIP3   OH2 9002   0.954   4.737   5.116
 3020TIP3    H1 9003   0.865   4.771   5.122
 3020TIP3    H2 9004   0.953   4.680   5.039
 3021TIP3   OH2 9005   5.592   7.879   0.783
 3021TIP3    H1 9006   5.581   7.882   0.878
 3021TIP3    H2 9007   5.634   7.795   0.767
 3022TIP3   OH2 9008   7.465   3.963   2.624
 3022TIP3    H1 9009   7.505   3.941   2.540
 3022TIP3    H2 9010   7.524   4.027   2.662
 3023TIP3   OH2 9011   0.282   1.452   1.932
 3023TIP3    H1 9012   0.212   1.453   1.867
 3023TIP3    H2 9013   0.251   1.391   1.999
 3024TIP3   OH2 9014   0.220   3.981   0.376
 3024TIP3    H1 9015   0.313   4.002   0.368
 3024TIP3    H2 9016   0.205   3.912   0.311
 3025TIP3   OH2 9017   7.019   0.525   4.227
 3025TIP3    H1 9018   7.085   0.530   4.297
 3025TIP3    H2 9019   7.048   0.590   4.163
 3026TIP3   OH2 9020   8.213   5.373   1.684
 3026TIP3    H1 9021   8.183   5.288   1.716
 3026TIP3    H2 9022   8.258   5.412   1.758
 3027TIP3   OH2 9023   6.677   3.003   4.384
 3027TIP3    H1 9024   6.667   3.064   4.456
 3027TIP3    H2 9025   6.750   3.038   4.333
 3028TIP3   OH2 9026   1.891   2.853   2.152
 3028TIP3    H1 9027   1.935   2.865   2.067
 3028TIP3    H2 9028   1.798   2.863   2.132
 3029TIP3   OH2 9029   5.220   3.584   3.043
 3029TIP3    H1 9030   5.208   3.667   2.997
 3029TIP3    H2 9031   5.143   3.532   3.021
 3030TIP3   OH2 9032   0.230   7.791   3.323
 3030TIP3    H1 9033   0.148   7.752   3.293
 3030TIP3    H2 9034   0.280   7.717   3.358
 3031TIP3   OH2 9035   4.599   6.993   3.793
 3031TIP3    H1 9036   4.620   6.907   3.757
 3031TIP3    H2 9037   4.641   7.055   3.733
 3032TIP3   OH2 9038   6.996   1.968   5.182
 3032TIP3    H1 9039   6.939   2.037   5.150
 3032TIP3    H2 9040   7.049   1.942   5.107
 3033TIP3   OH2 9041   8.260   2.700   6.259
 3033TIP3    H1 9042   8.355   2.693   6.261
 3033TIP3    H2 9043   8.243   2.783   6.215
 3034TIP3   OH2 9044   2.506   5.269   3.057
 3034TIP3    H1 9045   2.524   5.176   3.042
 3034TIP3    H2 9046   2.584   5.314   3.025
 3035TIP3   OH2 9047   8.088   7.830   2.291
 3035TIP3    H1 9048   8.005   7.812   2.335
 3035TIP3    H2 9049   8.133   7.745   2.292
 3036TIP3   OH2 9050   4.873   2.483   4.503
 3036TIP3    H1 9051   4.901   2.392   4.491
 3036TIP3    H2 9052   4.779   2.477   4.519
 3037TIP3   OH2 9053   2.466   4.806   1.231
 3037TIP3    H1 9054   2.379   4.825   1.267
 3037TIP3    H2 9055   2.491   4.888   1.187
 3038TIP3   OH2 9056   0.501   3.909   2.213
 3038TIP3    H1 9057   0.503   3.977   2.146
 3038TIP3    H2 9058   0.453   3.837   2.173
 3039TIP3   OH2 9059   3.445   7.384   6.705
 3039TIP3    H1 9060   3.508   7.399   6.775
 3039TIP3    H2 9061   3.453   7.290   6.686
 3040TIP3   OH2 9062   2.649   2.547   3.310
 3040TIP3    H1 9063   2.699   2.545   3.228
 3040TIP3    H2 9064   2.575   2.605   3.291
 3041TIP3   OH2 9065   4.553   1.035   2.638
 3041TIP3    H1 9066   4.538   1.048   2.545
 3041TIP3    H2 9067   4.575   0.942   2.646
 3042TIP3   OH2 9068   0.316   6.208   1.505
 3042TIP3    H1 9069   0.300   6.208   1.411
 3042TIP3    H2 9070   0.242   6.256   1.543
 3043TIP3   OH2 9071   6.659  -0.012   0.080
 3043TIP3    H1 9072   6.609   0.068   0.094
 3043TIP3    H2 9073   6.750   0.014   0.092
 3044TIP3   OH2 9074   6.039   0.532   2.869
 3044TIP3    H1 9075   5.953   0.497   2.845
 3044TIP3    H2 9076   6.062   0.486   2.950
 3045TIP3   OH2 9077   1.834   4.284   0.061
 3045TIP3    H1 9078   1.749   4.297   0.019
 3045TIP3    H2 9079   1.898   4.311  -0.004
 3046TIP3   OH2 9080   7.735   1.278   6.412
 3046TIP3    H1 9081   7.656   1.311   6.369
 3046TIP3    H2 9082   7.790   1.247   6.340
 3047TIP3   OH2 9083   0.006   3.375   5.196
 3047TIP3    H1 9084   0.066   3.324   5.250
 3047TIP3    H2 9085   0.032   3.466   5.210
 3048TIP3   OH2 9086   0.862   3.445   0.976
 3048TIP3    H1 9087   0.797   3.399   0.923
 3048TIP3    H2 9088   0.891   3.381   1.041
 3049TIP3   OH2 9089   0.135   1.819   1.760
 3049TIP3    H1 9090   0.080   1.885   1.804
 3049TIP3    H2 9091   0.225   1.845   1.780
 3050TIP3   OH2 9092  -0.023   0.210   1.608
 3050TIP3    H1 9093   0.045   0.143   1.614
 3050TIP3    H2 9094   0.021   0.291   1.636
 3051TIP3   OH2 9095   3.676   3.561   6.517
 3051TIP3    H1 9096   3.652   3.549   6.425
 3051TIP3    H2 9097   3.606   3.615   6.553
 3052TIP3   OH2 9098   6.225   4.876   4.126
 3052TIP3    H1 9099   6.275   4.931   4.186
 3052TIP3    H2 9100   6.290   4.817   4.088
 3053TIP3   OH2 9101   4.691   4.092   1.634
 3053TIP3    H1 9102   4.629   4.152   1.591
 3053TIP3    H2 9103   4.636   4.022   1.669
 3054TIP3   OH2 9104   6.882   6.922   1.728
 3054TIP3    H1 9105   6.814   6.984   1.753
 3054TIP3    H2 9106   6.863   6.900   1.637
 3055TIP3   OH2 9107   2.228   0.043   0.169
 3055TIP3    H1 9108   2.181   0.064   0.250
 3055TIP3    H2 9109   2.282   0.120   0.152
 3056TIP3   OH2 9110   4.213   0.640   3.657
 3056TIP3    H1 9111   4.132   0.593   3.678
 3056TIP3    H2 9112   4.216   0.641   3.562
 3057TIP3   OH2 9113   3.005   6.316   5.462
 3057TIP3    H1 9114   3.005   6.292   5.369
 3057TIP3    H2 9115   3.096   6.336   5.482
 3058TIP3   OH2 9116   4.251   7.251   4.409
 3058TIP3    H1 9117   4.279   7.305   4.483
 3058TIP3    H2 9118   4.331   7.234   4.360
 3059TIP3   OH2 9119   1.535   4.218   2.331
 3059TIP3    H1 9120   1.454   4.207   2.280
 3059TIP3    H2 9121   1.546   4.134   2.376
 3060TIP3   OH2 9122   3.343   4.595   4.002
 3060TIP3    H1 9123   3.406   4.636   4.061
 3060TIP3    H2 9124   3.263   4.648   4.011
 3061TIP3   OH2 9125   1.436   4.800   2.755
 3061TIP3    H1 9126   1.396   4.770   2.673
 3061TIP3    H2 9127   1.518   4.752   2.761
 3062TIP3   OH2 9128   1.354   0.539   0.949
 3062TIP3    H1 9129   1.413   0.598   0.902
 3062TIP3    H2 9130   1.269   0.581   0.942
 3063TIP3   OH2 9131   8.253   2.312   5.323
 3063TIP3    H1 9132   8.188   2.282   5.259
 3063TIP3    H2 9133   8.322   2.246   5.321
 3064TIP3   OH2 9134   4.827   1.746   4.375
 3064TIP3    H1 9135   4.806   1.659   4.342
 3064TIP3    H2 9136   4.923   1.752   4.365
 3065TIP3   OH2 9137   8.216   1.994   3.175
 3065TIP3    H1 9138   8.205   2.034   3.089
 3065TIP3    H2 9139   8.155   2.042   3.232
 3066TIP3   OH2 9140   1.241   0.090   4.751
 3066TIP3    H1 9141   1.173   0.067   4.689
 3066TIP3    H2 9142   1.306   0.019   4.744
 3067TIP3   OH2 9143   4.627   0.860   4.898
 3067TIP3    H1 9144   4.621   0.837   4.806
 3067TIP3    H2 9145   4.628   0.776   4.944
 3068TIP3   OH2 9146   7.618   4.174   2.723
 3068TIP3    H1 9147   7.704   4.190   2.763
 3068TIP3    H2 9148   7.608   4.245   2.659
 3069TIP3   OH2 9149   7.682   2.280   2.610
 3069TIP3    H1 9150   7.682   2.364   2.564
 3069TIP3    H2 9151   7.611   2.288   2.675
 3070TIP3   OH2 9152   2.766   4.866   4.575
 3070TIP3    H1 9153   2.714   4.909   4.507
 3070TIP3    H2 9154   2.702   4.820   4.629
 3071TIP3   OH2 9155   1.420   0.531   1.275
 3071TIP3    H1 9156   1.398   0.510   1.365
 3071TIP3    H2 9157   1.490   0.469   1.252
 3072TIP3   OH2 9158   4.759   4.731   5.736
 3072TIP3    H1 9159   4.823   4.786   5.690
 3072TIP3    H2 9160   4.773   4.643   5.700
 3073TIP3   OH2 9161   6.621   6.536   4.566
 3073TIP3    H1 9162   6.715   6.527   4.584
 3073TIP3    H2 9163   6.597   6.619   4.607
 3074TIP3   OH2 9164   2.206   6.992   3.055
 3074TIP3    H1 9165   2.271   7.063   3.053
 3074TIP3    H2 9166   2.259   6.912   3.054
 3075TIP3   OH2 9167   1.787   1.792   2.496
 3075TIP3    H1 9168   1.810   1.806   2.404
 3075TIP3    H2 9169   1.767   1.699   2.502
 3076TIP3   OH2 9170   7.212   7.414   5.697
 3076TIP3    H1 9171   7.183   7.350   5.761
 3076TIP3    H2 9172   7.286   7.373   5.653
 3077TIP3   OH2 9173   0.754   5.586   4.053
 3077TIP3    H1 9174   0.807   5.564   4.130
 3077TIP3    H2 9175   0.668   5.549   4.071
 3078TIP3   OH2 9176   6.309   2.171   4.483
 3078TIP3    H1 9177   6.258   2.097   4.515
 3078TIP3    H2 9178   6.375   2.132   4.426
 3079TIP3   OH2 9179   3.590   5.563   2.566
 3079TIP3    H1 9180   3.562   5.610   2.487
 3079TIP3    H2 9181   3.509   5.546   2.614
 3080TIP3   OH2 9182   5.513   4.424   5.454
 3080TIP3    H1 9183   5.476   4.340   5.425
 3080TIP3    H2 9184   5.542   4.407   5.544
 3081TIP3   OH2 9185   0.467   4.779   4.789
 3081TIP3    H1 9186   0.392   4.762   4.846
 3081TIP3    H2 9187   0.432   4.772   4.700
 3082TIP3   OH2 9188   4.566   4.110   2.513
 3082TIP3    H1 9189   4.542   4.201   2.528
 3082TIP3    H2 9190   4.495   4.060   2.554
 3083TIP3   OH2 9191   6.120   3.608   1.382
 3083TIP3    H1 9192   6.132   3.667   1.457
 3083TIP3    H2 9193   6.200   3.618   1.330
 3084TIP3   OH2 9194   2.717   4.440   0.686
 3084TIP3    H1 9195   2.770   4.405   0.614
 3084TIP3    H2 9196   2.779   4.491   0.738
 3085TIP3   OH2 9197   5.968   4.239   3.116
 3085TIP3    H1 9198   5.951   4.174   3.047
 3085TIP3    H2 9199   5.895   4.230   3.176
 3086TIP3   OH2 9200   6.824   6.151   5.066
 3086TIP3    H1 9201   6.767   6.169   4.992
 3086TIP3    H2 9202   6.866   6.068   5.045
 3087TIP3   OH2 9203   6.458   4.257   1.659
 3087TIP3    H1 9204   6.385   4.252   1.720
 3087TIP3    H2 9205   6.490   4.167   1.652
 3088TIP3   OH2 9206   7.832   7.556   6.465
 3088TIP3    H1 9207   7.826   7.567   6.559
 3088TIP3    H2 9208   7.810   7.463   6.450
 3089TIP3   OH2 9209   5.224   3.210   6.534
 3089TIP3    H1 9210   5.179   3.191   6.453
 3089TIP3    H2 9211   5.306   3.251   6.507
 3090TIP3   OH2 9212   4.515   5.366   5.333
 3090TIP3    H1 9213   4.551   5.453   5.317
 3090TIP3    H2 9214   4.421   5.376   5.322
 3091TIP3   OH2 9215   3.496   0.663   0.256
 3091TIP3    H1 9216   3.503   0.689   0.348
 3091TIP3    H2 9217   3.475   0.744   0.210
 3092TIP3   OH2 9218   7.925   3.629   5.575
 3092TIP3    H1 9219   7.883   3.613   5.491
 3092TIP3    H2 9220   7.887   3.563   5.633
 3093TIP3   OH2 9221   7.818   7.280   1.789
 3093TIP3    H1 9222   7.850   7.238   1.869
 3093TIP3    H2 9223   7.795   7.369   1.817
 3094TIP3   OH2 9224   0.999   5.168   5.934
 3094TIP3    H1 9225   0.955   5.164   6.018
 3094TIP3    H2 9226   0.996   5.077   5.902
 3095TIP3   OH2 9227   4.515   4.083   6.576
 3095TIP3    H1 9228   4.458   4.130   6.637
 3095TIP3    H2 9229   4.603   4.104   6.606
 3096TIP3   OH2 9230   4.147   4.705   1.283
 3096TIP3    H1 9231   4.090   4.775   1.315
 3096TIP3    H2 9232   4.088   4.630   1.270
 3097TIP3   OH2 9233   8.162   2.624   6.502
 3097TIP3    H1 9234   8.197   2.677   6.430
 3097TIP3    H2 9235   8.229   2.630   6.571
 3098TIP3   OH2 9236   3.416   2.758   5.638
 3098TIP3    H1 9237   3.495   2.712   5.610
 3098TIP3    H2 9238   3.442   2.850   5.640
 3099TIP3   OH2 9239   3.676   2.262   4.676
 3099TIP3    H1 9240   3.770   2.274   4.658
 3099TIP3    H2 9241   3.673   2.221   4.762
 3100TIP3   OH2 9242   7.638   6.363   1.813
 3100TIP3    H1 9243   7.664   6.417   1.739
 3100TIP3    H2 9244   7.577   6.417   1.862
 3101TIP3   OH2 9245   2.402   7.734   3.886
 3101TIP3    H1 9246   2.345   7.780   3.947
 3101TIP3    H2 9247   2.361   7.747   3.800
 3102TIP3   OH2 9248   1.226   1.377   0.582
 3102TIP3    H1 9249   1.283   1.422   0.520
 3102TIP3    H2 9250   1.205   1.294   0.540
 3103TIP3   OH2 9251   7.637   5.398   2.132
 3103TIP3    H1 9252   7.688   5.442   2.064
 3103TIP3    H2 9253   7.701   5.376   2.199
 3104TIP3   OH2 9254   5.077   4.125   2.769
 3104TIP3    H1 9255   5.030   4.056   2.722
 3104TIP3    H2 9256   5.034   4.206   2.743
 3105TIP3   OH2 9257   4.235   0.623   5.610
 3105TIP3    H1 9258   4.260   0.571   5.687
 3105TIP3    H2 9259   4.192   0.561   5.552
 3106TIP3   OH2 9260   5.658   6.057   4.465
 3106TIP3    H1 9261   5.741   6.065   4.512
 3106TIP3    H2 9262   5.650   5.964   4.447
 3107TIP3   OH2 9263   7.910   5.262   6.273
 3107TIP3    H1 9264   7.940   5.338   6.322
 3107TIP3    H2 9265   7.908   5.290   6.182
 3108TIP3   OH2 9266   1.668   0.788   0.280
 3108TIP3    H1 9267   1.662   0.823   0.369
 3108TIP3    H2 9268   1.695   0.862   0.227
 3109TIP3   OH2 9269   4.489   5.453   5.959
 3109TIP3    H1 9270   4.439   5.534   5.960
 3109TIP3    H2 9271   4.578   5.480   5.936
 3110TIP3   OH2 9272   3.299   3.275   1.547
 3110TIP3    H1 9273   3.340   3.361   1.556
 3110TIP3    H2 9274   3.211   3.287   1.583
 3111TIP3   OH2 9275   3.336   3.920   6.681
 3111TIP3    H1 9276   3.393   3.892   6.608
 3111TIP3    H2 9277   3.397   3.935   6.754
 3112TIP3   OH2 9278   6.262   0.990   5.127
 3112TIP3    H1 9279   6.311   1.071   5.114
 3112TIP3    H2 9280   6.321   0.922   5.093
 3113TIP3   OH2 9281   2.219   6.161   3.948
 3113TIP3    H1 9282   2.283   6.215   3.901
 3113TIP3    H2 9283   2.204   6.208   4.030
 3114TIP3   OH2 9284   0.502   3.812   1.878
 3114TIP3    H1 9285   0.440   3.751   1.840
 3114TIP3    H2 9286   0.585   3.764   1.882
 3115TIP3   OH2 9287   0.731   7.595   3.794
 3115TIP3    H1 9288   0.640   7.627   3.788
 3115TIP3    H2 9289   0.784   7.673   3.781
 3116TIP3   OH2 9290   5.691   7.228   3.066
 3116TIP3    H1 9291   5.696   7.272   2.981
 3116TIP3    H2 9292   5.716   7.295   3.129
 3117TIP3   OH2 9293   3.036   6.529   5.798
 3117TIP3    H1 9294   2.980   6.605   5.815
 3117TIP3    H2 9295   3.108   6.537   5.860
 3118TIP3   OH2 9296   3.430   5.906   3.192
 3118TIP3    H1 9297   3.397   5.945   3.111
 3118TIP3    H2 9298   3.513   5.865   3.167
 3119TIP3   OH2 9299   8.061   4.495   6.626
 3119TIP3    H1 9300   8.137   4.531   6.580
 3119TIP3    H2 9301   8.057   4.404   6.596
 3120TIP3   OH2 9302   6.573   4.781   5.721
 3120TIP3    H1 9303   6.626   4.815   5.649
 3120TIP3    H2 9304   6.535   4.700   5.687
 3121TIP3   OH2 9305   7.957   7.220   4.542
 3121TIP3    H1 9306   7.998   7.153   4.488
 3121TIP3    H2 9307   7.935   7.176   4.623
 3122TIP3   OH2 9308   7.572   5.512   5.080
 3122TIP3    H1 9309   7.546   5.572   5.150
 3122TIP3    H2 9310   7.636   5.453   5.121
 3123TIP3   OH2 9311   0.527   4.626   3.821
 3123TIP3    H1 9312   0.586   4.691   3.859
 3123TIP3    H2 9313   0.442   4.670   3.815
 3124TIP3   OH2 9314   4.887   1.494   0.942
 3124TIP3    H1 9315   4.924   1.478   0.855
 3124TIP3    H2 9316   4.908   1.585   0.960
 3125TIP3   OH2 9317   5.828   2.308   1.043
 3125TIP3    H1 9318   5.856   2.390   1.003
 3125TIP3    H2 9319   5.771   2.267   0.978
 3126TIP3   OH2 9320   1.570   2.773   4.708
 3126TIP3    H1 9321   1.603   2.793   4.796
 3126TIP3    H2 9322   1.626   2.824   4.649
 3127TIP3   OH2 9323   0.327   1.504   4.624
 3127TIP3    H1 9324   0.369   1.464   4.700
 3127TIP3    H2 9325   0.399   1.540   4.573
 3128TIP3   OH2 9326   5.342   5.784   5.555
 3128TIP3    H1 9327   5.307   5.872   5.546
 3128TIP3    H2 9328   5.414   5.780   5.492
 3129TIP3   OH2 9329   5.681   5.979   2.024
 3129TIP3    H1 9330   5.613   5.965   1.958
 3129TIP3    H2 9331   5.681   5.899   2.076
 3130TIP3   OH2 9332   7.250   3.826   0.301
 3130TIP3    H1 9333   7.254   3.755   0.238
 3130TIP3    H2 9334   7.158   3.833   0.325
 3131TIP3   OH2 9335   5.295   2.470   3.160
 3131TIP3    H1 9336   5.295   2.388   3.209
 3131TIP3    H2 9337   5.268   2.445   3.071
 3132TIP3   OH2 9338   4.115   4.631   2.464
 3132TIP3    H1 9339   4.149   4.545   2.438
 3132TIP3    H2 9340   4.028   4.613   2.499
 3133TIP3   OH2 9341   3.546   6.666   3.044
 3133TIP3    H1 9342   3.529   6.580   3.007
 3133TIP3    H2 9343   3.468   6.717   3.022
 3134TIP3   OH2 9344   0.379   1.162   1.312
 3134TIP3    H1 9345   0.426   1.228   1.260
 3134TIP3    H2 9346   0.397   1.080   1.267
 3135TIP3   OH2 9347   7.369   1.894   0.893
 3135TIP3    H1 9348   7.316   1.870   0.817
 3135TIP3    H2 9349   7.402   1.981   0.872
 3136TIP3   OH2 9350   3.291   4.500   4.497
 3136TIP3    H1 9351   3.273   4.455   4.414
 3136TIP3    H2 9352   3.244   4.583   4.490
 3137TIP3   OH2 9353   0.384   1.185   0.757
 3137TIP3    H1 9354   0.398   1.186   0.851
 3137TIP3    H2 9355   0.296   1.221   0.745
 3138TIP3   OH2 9356   6.380   6.341   0.689
 3138TIP3    H1 9357   6.433   6.334   0.768
 3138TIP3    H2 9358   6.388   6.256   0.647
 3139TIP3   OH2 9359   0.117   3.879   4.933
 3139TIP3    H1 9360   0.053   3.890   4.862
 3139TIP3    H2 9361   0.197   3.919   4.899
 3140TIP3   OH2 9362  -0.005   3.566   0.624
 3140TIP3    H1 9363   0.003   3.547   0.530
 3140TIP3    H2 9364   0.063   3.632   0.641
 3141TIP3   OH2 9365   3.838   5.868   3.861
 3141TIP3    H1 9366   3.834   5.899   3.951
 3141TIP3    H2 9367   3.848   5.773   3.869
 3142TIP3   OH2 9368   4.035   0.316   0.630
 3142TIP3    H1 9369   4.000   0.348   0.547
 3142TIP3    H2 9370   4.016   0.386   0.693
 3143TIP3   OH2 9371   0.170   5.314   2.260
 3143TIP3    H1 9372   0.230   5.307   2.185
 3143TIP3    H2 9373   0.093   5.264   2.233
 3144TIP3   OH2 9374   6.563   2.833   3.324
 3144TIP3    H1 9375   6.645   2.850   3.278
 3144TIP3    H2 9376   6.568   2.742   3.351
 3145TIP3   OH2 9377   6.240   2.540   3.102
 3145TIP3    H1 9378   6.225   2.474   3.034
 3145TIP3    H2 9379   6.323   2.514   3.142
 3146TIP3   OH2 9380   2.385   6.846   2.802
 3146TIP3    H1 9381   2.384   6.814   2.892
 3146TIP3    H2 9382   2.476   6.871   2.786
 3147TIP3   OH2 9383   8.071   3.704   1.752
 3147TIP3    H1 9384   8.020   3.717   1.672
 3147TIP3    H2 9385   8.079   3.791   1.791
 3148TIP3   OH2 9386   7.957   4.642   0.938
 3148TIP3    H1 9387   7.888   4.595   0.985
 3148TIP3    H2 9388   8.038   4.603   0.969
 3149TIP3   OH2 9389   7.557   2.905   0.946
 3149TIP3    H1 9390   7.608   2.824   0.952
 3149TIP3    H2 9391   7.571   2.936   0.856
 3150TIP3   OH2 9392   3.286   6.454   3.778
 3150TIP3    H1 9393   3.303   6.545   3.752
 3150TIP3    H2 9394   3.331   6.401   3.712
 3151TIP3   OH2 9395   5.515   0.292   5.411
 3151TIP3    H1 9396   5.578   0.229   5.444
 3151TIP3    H2 9397   5.521   0.284   5.315
 3152TIP3   OH2 9398   2.397   3.013   2.353
 3152TIP3    H1 9399   2.455   3.064   2.297
 3152TIP3    H2 9400   2.456   2.973   2.417
 3153TIP3   OH2 9401   3.885   7.556   2.816
 3153TIP3    H1 9402   3.920   7.576   2.729
 3153TIP3    H2 9403   3.806   7.504   2.799
 3154TIP3   OH2 9404   3.636   6.227   1.620
 3154TIP3    H1 9405   3.659   6.242   1.712
 3154TIP3    H2 9406   3.542   6.208   1.621
 3155TIP3   OH2 9407   2.926   4.832   6.559
 3155TIP3    H1 9408   2.870   4.760   6.532
 3155TIP3    H2 9409   2.866   4.894   6.600
 3156TIP3   OH2 9410   6.626   4.326   1.056
 3156TIP3    H1 9411   6.583   4.368   1.131
 3156TIP3    H2 9412   6.708   4.375   1.045
 3157TIP3   OH2 9413   2.066   5.407   5.812
 3157TIP3    H1 9414   2.069   5.431   5.904
 3157TIP3    H2 9415   1.987   5.353   5.804
 3158TIP3   OH2 9416   1.019   3.562   4.308
 3158TIP3    H1 9417   1.070   3.507   4.368
 3158TIP3    H2 9418   1.040   3.652   4.335
 3159TIP3   OH2 9419   5.912   1.346   4.464
 3159TIP3    H1 9420   5.877   1.427   4.427
 3159TIP3    H2 9421   5.908   1.360   4.559
 3160TIP3   OH2 9422   8.095   2.690   5.900
 3160TIP3    H1 9423   8.118   2.760   5.962
 3160TIP3    H2 9424   8.176   2.675   5.851
 3161TIP3   OH2 9425   3.505   6.374   5.736
 3161TIP3    H1 9426   3.504   6.320   5.658
 3161TIP3    H2 9427   3.428   6.346   5.786
 3162TIP3   OH2 9428   0.391   0.420   3.690
 3162TIP3    H1 9429   0.392   0.424   3.594
 3162TIP3    H2 9430   0.317   0.363   3.710
 3163TIP3   OH2 9431   0.893   0.881   5.488
 3163TIP3    H1 9432   0.961   0.943   5.515
 3163TIP3    H2 9433   0.942   0.805   5.458
 3164TIP3   OH2 9434   6.214   1.960   0.546
 3164TIP3    H1 9435   6.262   2.032   0.587
 3164TIP3    H2 9436   6.271   1.883   0.559
 3165TIP3   OH2 9437   2.971   0.731   4.409
 3165TIP3    H1 9438   2.951   0.726   4.503
 3165TIP3    H2 9439   3.053   0.779   4.405
 3166TIP3   OH2 9440   2.196   1.850   6.139
 3166TIP3    H1 9441   2.175   1.816   6.226
 3166TIP3    H2 9442   2.292   1.850   6.136
 3167TIP3   OH2 9443   4.375   4.153   1.299
 3167TIP3    H1 9444   4.349   4.069   1.262
 3167TIP3    H2 9445   4.312   4.216   1.264
 3168TIP3   OH2 9446   4.854   6.025   4.992
 3168TIP3    H1 9447   4.854   6.034   5.088
 3168TIP3    H2 9448   4.762   6.015   4.969
 3169TIP3   OH2 9449   7.377   3.796   3.900
 3169TIP3    H1 9450   7.345   3.885   3.885
 3169TIP3    H2 9451   7.469   3.799   3.873
 3170TIP3   OH2 9452   2.570   5.290   0.897
 3170TIP3    H1 9453   2.660   5.311   0.923
 3170TIP3    H2 9454   2.545   5.359   0.836
 3171TIP3   OH2 9455   8.050   7.180   0.502
 3171TIP3    H1 9456   8.056   7.119   0.575
 3171TIP3    H2 9457   8.033   7.124   0.425
 3172TIP3   OH2 9458   7.562   4.146   1.687
 3172TIP3    H1 9459   7.539   4.183   1.772
 3172TIP3    H2 9460   7.625   4.209   1.651
 3173TIP3   OH2 9461   1.297   5.637   0.300
 3173TIP3    H1 9462   1.303   5.542   0.288
 3173TIP3    H2 9463   1.357   5.673   0.235
 3174TIP3   OH2 9464   5.428   1.702   6.286
 3174TIP3    H1 9465   5.392   1.656   6.211
 3174TIP3    H2 9466   5.514   1.662   6.300
 3175TIP3   OH2 9467   0.160   7.044   1.259
 3175TIP3    H1 9468   0.136   7.099   1.333
 3175TIP3    H2 9469   0.213   7.101   1.202
 3176TIP3   OH2 9470   3.805   0.879   3.875
 3176TIP3    H1 9471   3.761   0.932   3.808
 3176TIP3    H2 9472   3.823   0.941   3.946
 3177TIP3   OH2 9473   1.814   6.727   4.714
 3177TIP3    H1 9474   1.759   6.780   4.656
 3177TIP3    H2 9475   1.903   6.747   4.687
 3178TIP3   OH2 9476   0.205   0.218   5.498
 3178TIP3    H1 9477   0.193   0.182   5.586
 3178TIP3    H2 9478   0.166   0.152   5.440
 3179TIP3   OH2 9479   3.926   5.378   2.128
 3179TIP3    H1 9480   3.913   5.460   2.177
 3179TIP3    H2 9481   3.840   5.357   2.093
 3180TIP3   OH2 9482   5.474   5.763   4.914
 3180TIP3    H1 9483   5.414   5.723   4.852
 3180TIP3    H2 9484   5.418   5.813   4.973
 3181TIP3   OH2 9485   1.323   4.495   1.697
 3181TIP3    H1 9486   1.364   4.441   1.765
 3181TIP3    H2 9487   1.251   4.540   1.741
 3182TIP3   OH2 9488   7.841   2.243   5.351
 3182TIP3    H1 9489   7.756   2.215   5.385
 3182TIP3    H2 9490   7.890   2.272   5.428
 3183TIP3   OH2 9491   6.646   5.525   1.586
 3183TIP3    H1 9492   6.688   5.566   1.511
 3183TIP3    H2 9493   6.595   5.596   1.627
 3184TIP3   OH2 9494   0.808   4.425   5.952
 3184TIP3    H1 9495   0.797   4.339   5.910
 3184TIP3    H2 9496   0.763   4.486   5.893
 3185TIP3   OH2 9497   2.556   1.148   1.205
 3185TIP3    H1 9498   2.550   1.093   1.284
 3185TIP3    H2 9499   2.467   1.149   1.170
 3186TIP3   OH2 9500   7.002   6.859   5.740
 3186TIP3    H1 9501   7.046   6.875   5.823
 3186TIP3    H2 9502   6.994   6.945   5.699
 3187TIP3   OH2 9503   0.887   6.201   1.551
 3187TIP3    H1 9504   0.935   6.260   1.610
 3187TIP3    H2 9505   0.895   6.115   1.592
 3188TIP3   OH2 9506   6.072   1.636   2.969
 3188TIP3    H1 9507   6.112   1.550   2.957
 3188TIP3    H2 9508   6.085   1.680   2.884
 3189TIP3   OH2 9509   6.435   4.927   4.321
 3189TIP3    H1 9510   6.478   4.847   4.291
 3189TIP3    H2 9511   6.468   4.939   4.411
 3190TIP3   OH2 9512   4.003   4.629   1.762
 3190TIP3    H1 9513   3.955   4.569   1.705
 3190TIP3    H2 9514   4.071   4.574   1.801
 3191TIP3   OH2 9515   1.894   3.466   4.284
 3191TIP3    H1 9516   1.890   3.373   4.304
 3191TIP3    H2 9517   1.986   3.484   4.266
 3192TIP3   OH2 9518   7.779   5.022   2.644
 3192TIP3    H1 9519   7.726   5.091   2.686
 3192TIP3    H2 9520   7.764   4.945   2.698
 3193TIP3   OH2 9521   3.225   4.940   6.074
 3193TIP3    H1 9522   3.224   5.020   6.021
 3193TIP3    H2 9523   3.307   4.896   6.049
 3194TIP3   OH2 9524   1.057   5.185   6.612
 3194TIP3    H1 9525   1.129   5.147   6.663
 3194TIP3    H2 9526   0.991   5.116   6.610
 3195TIP3   OH2 9527   4.130   1.170   4.876
 3195TIP3    H1 9528   4.199   1.220   4.832
 3195TIP3    H2 9529   4.116   1.093   4.820
 3196TIP3   OH2 9530   6.553   1.053   4.049
 3196TIP3    H1 9531   6.615   1.012   3.989
 3196TIP3    H2 9532   6.544   0.991   4.122
 3197TIP3   OH2 9533   1.449   1.498   1.411
 3197TIP3    H1 9534   1.384   1.429   1.399
 3197TIP3    H2 9535   1.404   1.578   1.383
 3198TIP3   OH2 9536   3.587   3.051   0.060
 3198TIP3    H1 9537   3.646   3.062  -0.015
 3198TIP3    H2 9538   3.549   2.964   0.047
 3199TIP3   OH2 9539   6.373   2.715   4.402
 3199TIP3    H1 9540   6.320   2.655   4.350
 3199TIP3    H2 9541   6.374   2.678   4.490
 3200TIP3   OH2 9542   1.467   6.997   1.321
 3200TIP3    H1 9543   1.458   6.928   1.386
 3200TIP3    H2 9544   1.552   6.982   1.280
 3201TIP3   OH2 9545   5.024   5.385   0.612
 3201TIP3    H1 9546   5.088   5.346   0.672
 3201TIP3    H2 9547   4.999   5.467   0.654
 3202TIP3   OH2 9548   1.519   4.700   4.471
 3202TIP3    H1 9549   1.471   4.690   4.389
 3202TIP3    H2 9550   1.489   4.784   4.507
 3203TIP3   OH2 9551   3.102   5.596   5.227
 3203TIP3    H1 9552   3.135   5.659   5.163
 3203TIP3    H2 9553   3.156   5.611   5.305
 3204TIP3   OH2 9554   5.819   2.493   2.290
 3204TIP3    H1 9555   5.792   2.505   2.199
 3204TIP3    H2 9556   5.738   2.473   2.337
 3205TIP3   OH2 9557   1.929   2.771   4.885
 3205TIP3    H1 9558   1.942   2.809   4.972
 3205TIP3    H2 9559   2.010   2.790   4.838
 3206TIP3   OH2 9560   5.904   4.181   2.303
 3206TIP3    H1 9561   5.954   4.244   2.354
 3206TIP3    H2 9562   5.824   4.167   2.353
 3207TIP3   OH2 9563   0.206   0.725   4.849
 3207TIP3    H1 9564   0.140   0.758   4.910
 3207TIP3    H2 9565   0.195   0.630   4.851
 3208TIP3   OH2 9566   2.443   4.358   4.598
 3208TIP3    H1 9567   2.383   4.283   4.602
 3208TIP3    H2 9568   2.530   4.320   4.604
 3209TIP3   OH2 9569   0.661   3.367   5.976
 3209TIP3    H1 9570   0.686   3.382   5.885
 3209TIP3    H2 9571   0.713   3.430   6.026
 3210TIP3   OH2 9572   0.084   0.327   0.980
 3210TIP3    H1 9573   0.090   0.258   1.046
 3210TIP3    H2 9574   0.001   0.311   0.936
 3211TIP3   OH2 9575   4.300   4.579   5.060
 3211TIP3    H1 9576   4.368   4.544   5.003
 3211TIP3    H2 9577   4.336   4.662   5.092
 3212TIP3   OH2 9578   4.784   2.355   5.601
 3212TIP3    H1 9579   4.760   2.446   5.622
 3212TIP3    H2 9580   4.702   2.307   5.609
 3213TIP3   OH2 9581   6.739   7.435   3.055
 3213TIP3    H1 9582   6.660   7.456   3.006
 3213TIP3    H2 9583   6.708   7.385   3.130
 3214TIP3   OH2 9584   7.077   5.488   2.346
 3214TIP3    H1 9585   7.108   5.476   2.257
 3214TIP3    H2 9586   7.093   5.580   2.365
 3215TIP3   OH2 9587   2.490   6.692   3.279
 3215TIP3    H1 9588   2.538   6.634   3.220
 3215TIP3    H2 9589   2.528   6.674   3.365
 3216TIP3   OH2 9590   1.312   1.112   5.721
 3216TIP3    H1 9591   1.238   1.136   5.777
 3216TIP3    H2 9592   1.388   1.115   5.780
 3217TIP3   OH2 9593   3.453   1.036   6.432
 3217TIP3    H1 9594   3.532   1.087   6.450
 3217TIP3    H2 9595   3.381   1.098   6.441
 3218TIP3   OH2 9596   7.153   4.604   4.780
 3218TIP3    H1 9597   7.101   4.525   4.796
 3218TIP3    H2 9598   7.205   4.583   4.702
 3219TIP3   OH2 9599   7.601   7.578   0.400
 3219TIP3    H1 9600   7.518   7.622   0.418
 3219TIP3    H2 9601   7.607   7.509   0.466
 3220TIP3   OH2 9602   5.657   1.876   1.940
 3220TIP3    H1 9603   5.625   1.808   1.881
 3220TIP3    H2 9604   5.696   1.942   1.883
 3221TIP3   OH2 9605   6.924   4.379   2.986
 3221TIP3    H1 9606   6.868   4.345   2.916
 3221TIP3    H2 9607   7.008   4.334   2.973
 3222TIP3   OH2 9608   6.832   1.939   4.463
 3222TIP3    H1 9609   6.825   2.035   4.463
 3222TIP3    H2 9610   6.922   1.922   4.435
 3223TIP3   OH2 9611   1.284   0.848   2.763
 3223TIP3    H1 9612   1.232   0.768   2.773
 3223TIP3    H2 9613   1.361   0.820   2.712
 3224TIP3   OH2 9614   0.837   3.152   4.135
 3224TIP3    H1 9615   0.850   3.247   4.139
 3224TIP3    H2 9616   0.789   3.138   4.054
 3225TIP3   OH2 9617   7.818   3.555   6.018
 3225TIP3    H1 9618   7.788   3.532   5.930
 3225TIP3    H2 9619   7.816   3.651   6.019
 3226TIP3   OH2 9620   8.104   6.233   1.442
 3226TIP3    H1 9621   8.095   6.236   1.347
 3226TIP3    H2 9622   8.162   6.158   1.458
 3227TIP3   OH2 9623   4.750   1.071   1.107
 3227TIP3    H1 9624   4.736   1.165   1.121
 3227TIP3    H2 9625   4.834   1.053   1.148
 3228TIP3   OH2 9626   1.854   5.734   1.603
 3228TIP3    H1 9627   1.764   5.703   1.600
 3228TIP3    H2 9628   1.855   5.798   1.675
 3229TIP3   OH2 9629   5.334   3.318   6.184
 3229TIP3    H1 9630   5.352   3.341   6.276
 3229TIP3    H2 9631   5.238   3.320   6.177
 3230TIP3   OH2 9632   4.434   3.631   2.995
 3230TIP3    H1 9633   4.463   3.687   2.924
 3230TIP3    H2 9634   4.509   3.627   3.054
 3231TIP3   OH2 9635   0.440   5.652   5.135
 3231TIP3    H1 9636   0.508   5.716   5.158
 3231TIP3    H2 9637   0.464   5.623   5.047
 3232TIP3   OH2 9638   0.446   4.141   1.112
 3232TIP3    H1 9639   0.472   4.138   1.204
 3232TIP3    H2 9640   0.444   4.049   1.085
 3233TIP3   OH2 9641   3.920   4.881   1.358
 3233TIP3    H1 9642   3.961   4.967   1.351
 3233TIP3    H2 9643   3.849   4.883   1.293
 3234TIP3   OH2 9644   1.316   1.025   2.515
 3234TIP3    H1 9645   1.266   1.000   2.592
 3234TIP3    H2 9646   1.278   1.109   2.487
 3235TIP3   OH2 9647   1.248   3.798   4.053
 3235TIP3    H1 9648   1.185   3.730   4.028
 3235TIP3    H2 9649   1.238   3.807   4.148
 3236TIP3   OH2 9650   8.199   4.906   5.045
 3236TIP3    H1 9651   8.170   4.961   4.973
 3236TIP3    H2 9652   8.134   4.836   5.050
 3237TIP3   OH2 9653   5.158   3.151   3.765
 3237TIP3    H1 9654   5.121   3.113   3.845
 3237TIP3    H2 9655   5.123   3.240   3.763
 3238TIP3   OH2 9656   2.462   4.155   1.741
 3238TIP3    H1 9657   2.423   4.187   1.821
 3238TIP3    H2 9658   2.544   4.204   1.733
 3239TIP3   OH2 9659   0.990   5.340   5.631
 3239TIP3    H1 9660   0.922   5.366   5.569
 3239TIP3    H2 9661   0.943   5.328   5.714
 3240TIP3   OH2 9662   0.407   5.086   4.562
 3240TIP3    H1 9663   0.442   5.032   4.492
 3240TIP3    H2 9664   0.458   5.167   4.558
 3241TIP3   OH2 9665   6.337   6.531   1.947
 3241TIP3    H1 9666   6.371   6.449   1.982
 3241TIP3    H2 9667   6.379   6.599   2.000
 3242TIP3   OH2 9668   2.035   4.956   4.239
 3242TIP3    H1 9669   1.943   4.975   4.260
 3242TIP3    H2 9670   2.031   4.917   4.151
 3243TIP3   OH2 9671   2.087   1.321   3.765
 3243TIP3    H1 9672   2.125   1.406   3.740
 3243TIP3    H2 9673   2.070   1.330   3.859
 3244TIP3   OH2 9674   7.963   6.854   4.181
 3244TIP3    H1 9675   8.013   6.929   4.150
 3244TIP3    H2 9676   8.029   6.796   4.220
 3245TIP3   OH2 9677   4.960   7.663   2.994
 3245TIP3    H1 9678   5.010   7.672   2.913
 3245TIP3    H2 9679   5.017   7.614   3.053
 3246TIP3   OH2 9680   5.611   4.605   3.459
 3246TIP3    H1 9681   5.522   4.638   3.445
 3246TIP3    H2 9682   5.624   4.541   3.390
 3247TIP3   OH2 9683   1.407   1.952   4.518
 3247TIP3    H1 9684   1.486   1.907   4.487
 3247TIP3    H2 9685   1.381   1.903   4.595
 3248TIP3   OH2 9686   6.849   4.830   0.246
 3248TIP3    H1 9687   6.761   4.806   0.275
 3248TIP3    H2 9688   6.897   4.747   0.246
 3249TIP3   OH2 9689   7.797   6.759   3.106
 3249TIP3    H1 9690   7.741   6.682   3.099
 3249TIP3    H2 9691   7.793   6.799   3.019
 3250TIP3   OH2 9692   4.743   1.639   1.795
 3250TIP3    H1 9693   4.776   1.556   1.763
 3250TIP3    H2 9694   4.650   1.638   1.773
 3251TIP3   OH2 9695   2.270   4.722   5.876
 3251TIP3    H1 9696   2.288   4.814   5.854
 3251TIP3    H2 9697   2.332   4.702   5.946
 3252TIP3   OH2 9698   0.217   2.816   5.813
 3252TIP3    H1 9699   0.149   2.870   5.773
 3252TIP3    H2 9700   0.187   2.726   5.800
 3253TIP3   OH2 9701   5.551   1.185   6.037
 3253TIP3    H1 9702   5.620   1.122   6.015
 3253TIP3    H2 9703   5.598   1.269   6.046
 3254TIP3   OH2 9704   1.630   5.500   5.428
 3254TIP3    H1 9705   1.661   5.482   5.339
 3254TIP3    H2 9706   1.649   5.593   5.441
 3255TIP3   OH2 9707   7.776   6.941   2.277
 3255TIP3    H1 9708   7.816   7.022   2.309
 3255TIP3    H2 9709   7.835   6.872   2.307
 3256TIP3   OH2 9710   4.952   3.211   3.544
 3256TIP3    H1 9711   4.903   3.173   3.618
 3256TIP3    H2 9712   4.885   3.227   3.477
 3257TIP3   OH2 9713   5.409   5.712   5.817
 3257TIP3    H1 9714   5.347   5.680   5.752
 3257TIP3    H2 9715   5.479   5.752   5.766
 3258TIP3   OH2 9716   5.019   5.970   3.105
 3258TIP3    H1 9717   4.962   5.956   3.180
 3258TIP3    H2 9718   5.100   5.923   3.127
 3259TIP3   OH2 9719   2.579   5.770   3.690
 3259TIP3    H1 9720   2.597   5.685   3.649
 3259TIP3    H2 9721   2.639   5.830   3.646
 3260TIP3   OH2 9722   4.406   7.179   5.334
 3260TIP3    H1 9723   4.442   7.149   5.417
 3260TIP3    H2 9724   4.382   7.271   5.350
 3261TIP3   OH2 9725   4.847   3.816   5.007
 3261TIP3    H1 9726   4.808   3.820   4.920
 3261TIP3    H2 9727   4.904   3.740   5.005
 3262TIP3   OH2 9728   0.019   1.914   3.712
 3262TIP3    H1 9729   0.077   1.856   3.662
 3262TIP3    H2 9730  -0.029   1.855   3.770
 3263TIP3   OH2 9731   5.442   1.984   1.043
 3263TIP3    H1 9732   5.529   1.998   1.081
 3263TIP3    H2 9733   5.387   2.051   1.083
 3264TIP3   OH2 9734   4.550   3.055   5.932
 3264TIP3    H1 9735   4.465   3.014   5.917
 3264TIP3    H2 9736   4.595   2.997   5.992
 3265TIP3   OH2 9737   3.167   4.431   0.371
 3265TIP3    H1 9738   3.094   4.428   0.432
 3265TIP3    H2 9739   3.126   4.442   0.285
 3266TIP3   OH2 9740   4.018   2.654   0.387
 3266TIP3    H1 9741   4.112   2.660   0.406
 3266TIP3    H2 9742   4.007   2.702   0.305
 3267TIP3   OH2 9743   4.468   6.543   3.658
 3267TIP3    H1 9744   4.556   6.525   3.623
 3267TIP3    H2 9745   4.468   6.502   3.744
 3268TIP3   OH2 9746   7.184   7.068   5.634
 3268TIP3    H1 9747   7.126   7.103   5.567
 3268TIP3    H2 9748   7.266   7.050   5.588
 3269TIP3   OH2 9749   1.668   4.347   4.514
 3269TIP3    H1 9750   1.611   4.407   4.563
 3269TIP3    H2 9751   1.676   4.388   4.428
 3270TIP3   OH2 9752   1.792   5.203   5.586
 3270TIP3    H1 9753   1.794   5.191   5.681
 3270TIP3    H2 9754   1.738   5.131   5.554
 3271TIP3   OH2 9755   6.643   2.547   6.400
 3271TIP3    H1 9756   6.604   2.465   6.428
 3271TIP3    H2 9757   6.732   2.523   6.374
 3272TIP3   OH2 9758   1.126   1.403   0.164
 3272TIP3    H1 9759   1.095   1.468   0.227
 3272TIP3    H2 9760   1.048   1.353   0.140
 3273TIP3   OH2 9761   7.245   5.112   1.032
 3273TIP3    H1 9762   7.263   5.200   1.066
 3273TIP3    H2 9763   7.316   5.096   0.969
 3274TIP3   OH2 9764   4.270   3.406   5.490
 3274TIP3    H1 9765   4.241   3.467   5.422
 3274TIP3    H2 9766   4.252   3.319   5.454
 3275TIP3   OH2 9767   1.984   3.907   1.710
 3275TIP3    H1 9768   1.929   3.983   1.692
 3275TIP3    H2 9769   2.053   3.939   1.768
 3276TIP3   OH2 9770   3.474   0.057   2.278
 3276TIP3    H1 9771   3.444   0.140   2.240
 3276TIP3    H2 9772   3.519   0.083   2.358
 3277TIP3   OH2 9773   1.806   0.073   6.616
 3277TIP3    H1 9774   1.725   0.080   6.667
 3277TIP3    H2 9775   1.875   0.063   6.681
 3278TIP3   OH2 9776   0.738   7.378   3.314
 3278TIP3    H1 9777   0.762   7.296   3.270
 3278TIP3    H2 9778   0.804   7.388   3.383
 3279TIP3   OH2 9779   6.258   6.882   5.271
 3279TIP3    H1 9780   6.197   6.808   5.276
 3279TIP3    H2 9781   6.327   6.852   5.213
 3280TIP3   OH2 9782   0.087   1.705   1.329
 3280TIP3    H1 9783   0.066   1.770   1.396
 3280TIP3    H2 9784   0.060   1.622   1.367
 3281TIP3   OH2 9785   0.311   3.456   5.807
 3281TIP3    H1 9786   0.258   3.393   5.856
 3281TIP3    H2 9787   0.369   3.402   5.753
 3282TIP3   OH2 9788   5.604   5.569   5.079
 3282TIP3    H1 9789   5.557   5.487   5.067
 3282TIP3    H2 9790   5.554   5.633   5.028
 3283TIP3   OH2 9791   6.514   0.247   6.498
 3283TIP3    H1 9792   6.475   0.198   6.570
 3283TIP3    H2 9793   6.608   0.231   6.507
 3284TIP3   OH2 9794   5.900   3.389   6.741
 3284TIP3    H1 9795   5.861   3.302   6.740
 3284TIP3    H2 9796   5.964   3.388   6.670
 3285TIP3   OH2 9797   0.573   1.577   3.714
 3285TIP3    H1 9798   0.616   1.496   3.687
 3285TIP3    H2 9799   0.622   1.605   3.792
 3286TIP3   OH2 9800   2.267   3.417   6.460
 3286TIP3    H1 9801   2.252   3.511   6.467
 3286TIP3    H2 9802   2.247   3.397   6.368
 3287TIP3   OH2 9803   2.305   5.713   1.785
 3287TIP3    H1 9804   2.353   5.697   1.704
 3287TIP3    H2 9805   2.214   5.690   1.765
 3288TIP3   OH2 9806   7.662   3.706   4.668
 3288TIP3    H1 9807   7.617   3.623   4.649
 3288TIP3    H2 9808   7.755   3.687   4.652
 3289TIP3   OH2 9809   5.577   0.127   4.004
 3289TIP3    H1 9810   5.577   0.212   3.962
 3289TIP3    H2 9811   5.622   0.142   4.087
 3290TIP3   OH2 9812   3.273   6.527   4.986
 3290TIP3    H1 9813   3.317   6.611   4.993
 3290TIP3    H2 9814   3.186   6.548   4.953
 3291TIP3   OH2 9815   7.146   4.922   6.460
 3291TIP3    H1 9816   7.226   4.902   6.509
 3291TIP3    H2 9817   7.075   4.907   6.523
 3292TIP3   OH2 9818   3.067   4.912   5.254
 3292TIP3    H1 9819   3.115   4.928   5.172
 3292TIP3    H2 9820   2.977   4.935   5.232
 3293TIP3   OH2 9821   4.394   1.593   0.681
 3293TIP3    H1 9822   4.311   1.637   0.663
 3293TIP3    H2 9823   4.409   1.539   0.604
 3294TIP3   OH2 9824   6.139   1.455   6.148
 3294TIP3    H1 9825   6.181   1.429   6.067
 3294TIP3    H2 9826   6.211   1.483   6.205
 3295TIP3   OH2 9827   8.251   2.751   0.472
 3295TIP3    H1 9828   8.305   2.698   0.531
 3295TIP3    H2 9829   8.184   2.690   0.440
 3296TIP3   OH2 9830   6.813   2.971   3.231
 3296TIP3    H1 9831   6.811   2.937   3.142
 3296TIP3    H2 9832   6.906   2.967   3.256
 3297TIP3   OH2 9833   2.031   0.259   2.086
 3297TIP3    H1 9834   2.030   0.218   2.173
 3297TIP3    H2 9835   1.944   0.241   2.051
 3298TIP3   OH2 9836   3.433   1.520   5.473
 3298TIP3    H1 9837   3.431   1.532   5.568
 3298TIP3    H2 9838   3.506   1.461   5.457
 3299TIP3   OH2 9839   7.046   2.773   4.185
 3299TIP3    H1 9840   7.111   2.801   4.250
 3299TIP3    H2 9841   6.988   2.714   4.233
 3300TIP3   OH2 9842   4.344   4.381   5.297
 3300TIP3    H1 9843   4.410   4.330   5.342
 3300TIP3    H2 9844   4.269   4.322   5.287
 3301TIP3   OH2 9845   5.815   3.468   3.305
 3301TIP3    H1 9846   5.902   3.484   3.341
 3301TIP3    H2 9847   5.777   3.401   3.362
 3302TIP3   OH2 9848   0.754   4.163   1.396
 3302TIP3    H1 9849   0.768   4.073   1.425
 3302TIP3    H2 9850   0.754   4.158   1.300
 3303TIP3   OH2 9851   4.761   6.964   3.045
 3303TIP3    H1 9852   4.823   7.033   3.021
 3303TIP3    H2 9853   4.789   6.887   2.996
 3304TIP3   OH2 9854   2.425   3.476   0.736
 3304TIP3    H1 9855   2.344   3.443   0.698
 3304TIP3    H2 9856   2.458   3.538   0.672
 3305TIP3   OH2 9857   5.137   7.063   5.347
 3305TIP3    H1 9858   5.114   7.143   5.300
 3305TIP3    H2 9859   5.100   7.075   5.434
 3306TIP3   OH2 9860   1.365   5.095   4.657
 3306TIP3    H1 9861   1.417   5.150   4.597
 3306TIP3    H2 9862   1.277   5.094   4.618
 3307TIP3   OH2 9863   2.676   5.565   4.495
 3307TIP3    H1 9864   2.678   5.660   4.481
 3307TIP3    H2 9865   2.766   5.537   4.479
 3308TIP3   OH2 9866   2.002   1.889   0.975
 3308TIP3    H1 9867   1.974   1.904   0.885
 3308TIP3    H2 9868   1.930   1.839   1.014
 3309TIP3   OH2 9869   2.021   6.817   3.274
 3309TIP3    H1 9870   2.035   6.895   3.220
 3309TIP3    H2 9871   1.965   6.761   3.220
 3310TIP3   OH2 9872   1.733   6.433   5.081
 3310TIP3    H1 9873   1.747   6.435   4.986
 3310TIP3    H2 9874   1.818   6.456   5.118
 3311TIP3   OH2 9875   7.074   6.810   5.134
 3311TIP3    H1 9876   6.986   6.781   5.108
 3311TIP3    H2 9877   7.063   6.844   5.223
 3312TIP3   OH2 9878   6.042   4.636   1.131
 3312TIP3    H1 9879   6.135   4.632   1.152
 3312TIP3    H2 9880   5.999   4.588   1.201
 3313TIP3   OH2 9881   2.011   4.468   1.767
 3313TIP3    H1 9882   1.933   4.522   1.758
 3313TIP3    H2 9883   2.072   4.522   1.817
 3314TIP3   OH2 9884   3.040   5.727   6.557
 3314TIP3    H1 9885   2.952   5.762   6.549
 3314TIP3    H2 9886   3.095   5.804   6.570
 3315TIP3   OH2 9887   0.443   2.331   2.373
 3315TIP3    H1 9888   0.353   2.323   2.404
 3315TIP3    H2 9889   0.488   2.254   2.407
 3316TIP3   OH2 9890   4.748   1.447   3.891
 3316TIP3    H1 9891   4.775   1.539   3.893
 3316TIP3    H2 9892   4.657   1.450   3.861
 3317TIP3   OH2 9893   2.320   4.510   3.434
 3317TIP3    H1 9894   2.289   4.549   3.515
 3317TIP3    H2 9895   2.415   4.522   3.435
 3318TIP3   OH2 9896   1.297   3.805   3.060
 3318TIP3    H1 9897   1.275   3.884   3.108
 3318TIP3    H2 9898   1.295   3.831   2.968
 3319TIP3   OH2 9899   6.666   7.131   4.802
 3319TIP3    H1 9900   6.588   7.115   4.854
 3319TIP3    H2 9901   6.727   7.061   4.828
 3320TIP3   OH2 9902   5.425   2.054   4.601
 3320TIP3    H1 9903   5.487   1.992   4.564
 3320TIP3    H2 9904   5.382   2.006   4.672
 3321TIP3   OH2 9905   5.085   3.633   5.029
 3321TIP3    H1 9906   5.178   3.655   5.036
 3321TIP3    H2 9907   5.065   3.587   5.111
 3322TIP3   OH2 9908   6.983   3.025   4.047
 3322TIP3    H1 9909   7.011   2.951   4.102
 3322TIP3    H2 9910   6.891   3.038   4.069
 3323TIP3   OH2 9911   0.451   5.678   2.808
 3323TIP3    H1 9912   0.379   5.627   2.846
 3323TIP3    H2 9913   0.439   5.766   2.843
 3324TIP3   OH2 9914   6.901   6.033   0.362
 3324TIP3    H1 9915   6.940   6.117   0.339
 3324TIP3    H2 9916   6.974   5.971   0.358
 3325TIP3   OH2 9917   2.530   2.055   1.171
 3325TIP3    H1 9918   2.602   2.106   1.135
 3325TIP3    H2 9919   2.451   2.096   1.135
 3326TIP3   OH2 9920   3.426   7.669   6.789
 3326TIP3    H1 9921   3.408   7.711   6.705
 3326TIP3    H2 9922   3.421   7.575   6.771
 3327TIP3   OH2 9923   0.093   5.086   4.839
 3327TIP3    H1 9924   0.069   5.000   4.806
 3327TIP3    H2 9925   0.015   5.140   4.827
 3328TIP3   OH2 9926   5.140   6.022   2.499
 3328TIP3    H1 9927   5.111   6.112   2.511
 3328TIP3    H2 9928   5.078   5.986   2.435
 3329TIP3   OH2 9929   8.234   3.157   2.744
 3329TIP3    H1 9930   8.211   3.064   2.733
 3329TIP3    H2 9931   8.247   3.167   2.839
 3330TIP3   OH2 9932   3.416   0.978   3.420
 3330TIP3    H1 9933   3.413   0.883   3.411
 3330TIP3    H2 9934   3.381   1.011   3.337
 3331TIP3   OH2 9935   0.142   5.573   4.048
 3331TIP3    H1 9936   0.170   5.575   4.139
 3331TIP3    H2 9937   0.096   5.656   4.035
 3332TIP3   OH2 9938   3.513   4.102   3.534
 3332TIP3    H1 9939   3.478   4.022   3.494
 3332TIP3    H2 9940   3.544   4.154   3.460
 3333TIP3   OH2 9941   3.263   1.538   6.637
 3333TIP3    H1 9942   3.235   1.624   6.668
 3333TIP3    H2 9943   3.230   1.476   6.702
 3334TIP3   OH2 9944   5.485   0.808   0.878
 3334TIP3    H1 9945   5.511   0.772   0.793
 3334TIP3    H2 9946   5.395   0.837   0.866
 3335TIP3   OH2 9947   1.047   4.141   2.050
 3335TIP3    H1 9948   1.008   4.065   2.007
 3335TIP3    H2 9949   0.975   4.203   2.059
 3336TIP3   OH2 9950   6.889   6.470   6.253
 3336TIP3    H1 9951   6.960   6.407   6.242
 3336TIP3    H2 9952   6.878   6.476   6.348
 3337TIP3   OH2 9953   5.559   1.818   4.513
 3337TIP3    H1 9954   5.527   1.756   4.579
 3337TIP3    H2 9955   5.644   1.784   4.487
 3338TIP3   OH2 9956   4.265   4.991   6.418
 3338TIP3    H1 9957   4.231   5.069   6.375
 3338TIP3    H2 9958   4.248   5.005   6.511
 3339TIP3   OH2 9959   3.458   3.386   3.018
 3339TIP3    H1 9960   3.421   3.451   3.077
 3339TIP3    H2 9961   3.500   3.322   3.077
 3340TIP3   OH2 9962   3.545   3.825   1.619
 3340TIP3    H1 9963   3.603   3.848   1.692
 3340TIP3    H2 9964   3.551   3.900   1.559
 3341TIP3   OH2 9965   0.445   0.756   2.767
 3341TIP3    H1 9966   0.438   0.682   2.827
 3341TIP3    H2 9967   0.529   0.797   2.790
 3342TIP3   OH2 9968   3.466   0.650   5.565
 3342TIP3    H1 9969   3.423   0.596   5.631
 3342TIP3    H2 9970   3.407   0.648   5.490
 3343TIP3   OH2 9971   1.021   5.591   1.697
 3343TIP3    H1 9972   1.104   5.629   1.725
 3343TIP3    H2 9973   1.045   5.506   1.659
 3344TIP3   OH2 9974   2.500   1.657   1.511
 3344TIP3    H1 9975   2.499   1.695   1.423
 3344TIP3    H2 9976   2.409   1.662   1.540
 3345TIP3   OH2 9977   4.613   2.143   4.348
 3345TIP3    H1 9978   4.654   2.212   4.295
 3345TIP3    H2 9979   4.558   2.190   4.410
 3346TIP3   OH2 9980   0.449   1.758   5.024
 3346TIP3    H1 9981   0.486   1.843   5.002
 3346TIP3    H2 9982   0.492   1.732   5.105
 3347TIP3   OH2 9983   0.374   2.909   2.297
 3347TIP3    H1 9984   0.449   2.871   2.344
 3347TIP3    H2 9985   0.395   2.894   2.205
 3348TIP3   OH2 9986   2.483   2.237   4.838
 3348TIP3    H1 9987   2.559   2.272   4.885
 3348TIP3    H2 9988   2.454   2.162   4.890
 3349TIP3   OH2 9989   5.971   1.258   4.013
 3349TIP3    H1 9990   5.912   1.207   3.958
 3349TIP3    H2 9991   6.020   1.313   3.951
 3350TIP3   OH2 9992   6.446   4.158   2.497
 3350TIP3    H1 9993   6.491   4.124   2.574
 3350TIP3    H2 9994   6.415   4.245   2.523
 3351TIP3   OH2 9995   3.592   1.475   1.805
 3351TIP3    H1 9996   3.603   1.525   1.886
 3351TIP3    H2 9997   3.529   1.525   1.753
 3352TIP3   OH2 9998   0.268   1.569   1.194
 3352TIP3    H1 9999   0.207   1.628   1.238
 3352TIP3    H210000   0.354   1.593   1.230
 3353TIP3   OH210001   2.802   3.808   3.564
 3353TIP3    H110002   2.788   3.887   3.513
 3353TIP3    H210003   2.759   3.739   3.513
 3354TIP3   OH210004   7.354   5.252   1.553
 3354TIP3    H110005   7.302   5.205   1.487
 3354TIP3    H210006   7.389   5.327   1.506
 3355TIP3   OH210007   4.691   4.984   3.047
 3355TIP3    H110008   4.600   4.983   3.077
 3355TIP3    H210009   4.692   5.048   2.976
 3356TIP3   OH210010   4.023   2.949   4.710
 3356TIP3    H110011   3.999   3.017   4.773
 3356TIP3    H210012   4.118   2.940   4.721
 3357TIP3   OH210013   3.975   1.730   0.418
 3357TIP3    H110014   4.031   1.678   0.361
 3357TIP3    H210015   3.994   1.821   0.394
 3358TIP3   OH210016   5.905   6.086   0.851
 3358TIP3    H110017   5.939   6.172   0.878
 3358TIP3    H210018   5.881   6.043   0.932
 3359TIP3   OH210019   1.995   4.378   5.095
 3359TIP3    H110020   1.957   4.453   5.049
 3359TIP3    H210021   2.041   4.417   5.170
 3360TIP3   OH210022   0.894   3.912   0.772
 3360TIP3    H110023   0.905   3.846   0.841
 3360TIP3    H210024   0.928   3.993   0.811
 3361TIP3   OH210025   4.204   6.377   1.434
 3361TIP3    H110026   4.166   6.368   1.521
 3361TIP3    H210027   4.236   6.468   1.431
 3362TIP3   OH210028   7.077   2.671   5.344
 3362TIP3    H110029   7.021   2.742   5.377
 3362TIP3    H210030   7.040   2.650   5.258
 3363TIP3   OH210031   2.049   5.892   5.773
 3363TIP3    H110032   2.051   5.808   5.726
 3363TIP3    H210033   2.135   5.931   5.757
 3364TIP3   OH210034   3.156   1.655   3.268
 3364TIP3    H110035   3.120   1.619   3.349
 3364TIP3    H210036   3.248   1.673   3.289
 3365TIP3   OH210037   6.812   7.506   2.617
 3365TIP3    H110038   6.817   7.503   2.713
 3365TIP3    H210039   6.815   7.414   2.590
 3366TIP3   OH210040   0.349   1.235   0.345
 3366TIP3    H110041   0.429   1.189   0.372
 3366TIP3    H210042   0.355   1.239   0.250
 3367TIP3   OH210043   3.871   6.988   2.479
 3367TIP3    H110044   3.777   7.001   2.488
 3367TIP3    H210045   3.897   7.045   2.407
 3368TIP3   OH210046   2.728   4.285   4.335
 3368TIP3    H110047   2.678   4.236   4.400
 3368TIP3    H210048   2.778   4.348   4.386
 3369TIP3   OH210049   1.336   2.140   4.120
 3369TIP3    H110050   1.307   2.053   4.149
 3369TIP3    H210051   1.322   2.196   4.197
 3370TIP3   OH210052   2.242   5.867   4.014
 3370TIP3    H110053   2.226   5.827   4.099
 3370TIP3    H210054   2.224   5.960   4.027
 3371TIP3   OH210055   2.771   0.282   6.517
 3371TIP3    H110056   2.862   0.260   6.496
 3371TIP3    H210057   2.743   0.213   6.577
 3372TIP3   OH210058   2.960   3.286   4.093
 3372TIP3    H110059   3.021   3.218   4.066
 3372TIP3    H210060   2.973   3.357   4.031
 3373TIP3   OH210061   5.752   3.768   3.534
 3373TIP3    H110062   5.709   3.692   3.573
 3373TIP3    H210063   5.740   3.838   3.598
 3374TIP3   OH210064   2.144   1.044   4.716
 3374TIP3    H110065   2.115   1.017   4.803
 3374TIP3    H210066   2.083   1.112   4.689
 3375TIP3   OH210067   1.172   6.714   1.600
 3375TIP3    H110068   1.106   6.762   1.550
 3375TIP3    H210069   1.173   6.627   1.559
 3376TIP3   OH210070   2.831   3.949   2.369
 3376TIP3    H110071   2.831   3.857   2.343
 3376TIP3    H210072   2.745   3.963   2.408
 3377TIP3   OH210073   8.246   1.453   0.373
 3377TIP3    H110074   8.151   1.444   0.382
 3377TIP3    H210075   8.264   1.543   0.398
 3378TIP3   OH210076   8.215   4.486   4.407
 3378TIP3    H110077   8.126   4.519   4.400
 3378TIP3    H210078   8.266   4.562   4.435
 3379TIP3   OH210079   5.967   4.916   6.749
 3379TIP3    H110080   5.968   4.996   6.801
 3379TIP3    H210081   5.935   4.943   6.663
 3380TIP3   OH210082   3.516   7.667   2.060
 3380TIP3    H110083   3.447   7.634   2.118
 3380TIP3    H210084   3.578   7.710   2.119
 3381TIP3   OH210085   5.680   1.717   6.732
 3381TIP3    H110086   5.621   1.786   6.701
 3381TIP3    H210087   5.749   1.713   6.666
 3382TIP3   OH210088   5.722   4.783   0.210
 3382TIP3    H110089   5.760   4.810   0.127
 3382TIP3    H210090   5.734   4.688   0.213
 3383TIP3   OH210091   6.132   2.364   1.588
 3383TIP3    H110092   6.064   2.299   1.568
 3383TIP3    H210093   6.086   2.431   1.638
 3384TIP3   OH210094   6.510   5.394   6.072
 3384TIP3    H110095   6.466   5.349   6.145
 3384TIP3    H210096   6.439   5.423   6.016
 3385TIP3   OH210097   6.652   1.215   1.989
 3385TIP3    H110098   6.679   1.207   1.897
 3385TIP3    H210099   6.632   1.126   2.016
 3386TIP3   OH210100   4.376   1.468   0.448
 3386TIP3    H110101   4.428   1.522   0.388
 3386TIP3    H210102   4.306   1.432   0.395
 3387TIP3   OH210103   6.442   2.410   3.214
 3387TIP3    H110104   6.387   2.363   3.277
 3387TIP3    H210105   6.499   2.343   3.177
 3388TIP3   OH210106   2.113   6.158   6.147
 3388TIP3    H110107   2.193   6.196   6.109
 3388TIP3    H210108   2.094   6.214   6.222
 3389TIP3   OH210109   0.326   0.667   3.831
 3389TIP3    H110110   0.258   0.639   3.892
 3389TIP3    H210111   0.333   0.595   3.768
 3390TIP3   OH210112   7.101   0.235   4.034
 3390TIP3    H110113   7.183   0.282   4.019
 3390TIP3    H210114   7.037   0.304   4.053
 3391TIP3   OH210115   3.350   0.352   5.545
 3391TIP3    H110116   3.313   0.400   5.471
 3391TIP3    H210117   3.289   0.279   5.558
 3392TIP3   OH210118   4.210   2.023   3.461
 3392TIP3    H110119   4.182   2.000   3.550
 3392TIP3    H210120   4.196   2.118   3.455
 3393TIP3   OH210121   0.595   1.534   1.405
 3393TIP3    H110122   0.673   1.570   1.450
 3393TIP3    H210123   0.556   1.610   1.362
 3394TIP3   OH210124   2.794   3.864   0.158
 3394TIP3    H110125   2.751   3.833   0.078
 3394TIP3    H210126   2.725   3.909   0.207
 3395TIP3   OH210127   1.891   4.781   5.409
 3395TIP3    H110128   1.869   4.690   5.430
 3395TIP3    H210129   1.889   4.826   5.493
 3396TIP3   OH210130   7.818   1.933   5.716
 3396TIP3    H110131   7.862   1.927   5.801
 3396TIP3    H210132   7.816   1.843   5.684
 3397TIP3   OH210133   3.010   0.332   1.319
 3397TIP3    H110134   2.961   0.254   1.293
 3397TIP3    H210135   3.048   0.364   1.237
 3398TIP3   OH210136   0.976   5.290   2.062
 3398TIP3    H110137   1.015   5.203   2.069
 3398TIP3    H210138   0.913   5.281   1.990
 3399TIP3   OH210139   7.000   3.655   2.559
 3399TIP3    H110140   7.026   3.716   2.628
 3399TIP3    H210141   7.053   3.577   2.575
 3400TIP3   OH210142   3.235   3.633   6.728
 3400TIP3    H110143   3.170   3.688   6.684
 3400TIP3    H210144   3.211   3.635   6.820
 3401TIP3   OH210145   7.357   2.414   3.759
 3401TIP3    H110146   7.435   2.448   3.715
 3401TIP3    H210147   7.351   2.464   3.840
 3402TIP3   OH210148   7.368   3.001   3.499
 3402TIP3    H110149   7.284   3.039   3.525
 3402TIP3    H210150   7.357   2.907   3.512
 3403TIP3   OH210151   7.708   3.227   6.175
 3403TIP3    H110152   7.646   3.300   6.180
 3403TIP3    H210153   7.794   3.269   6.170
 3404TIP3   OH210154   5.570   2.176   3.927
 3404TIP3    H110155   5.615   2.232   3.990
 3404TIP3    H210156   5.638   2.118   3.894
 3405TIP3   OH210157   2.665   0.242   1.004
 3405TIP3    H110158   2.579   0.237   1.044
 3405TIP3    H210159   2.722   0.190   1.060
 3406TIP3   OH210160   7.648   3.023   3.307
 3406TIP3    H110161   7.618   2.947   3.355
 3406TIP3    H210162   7.645   3.095   3.371
 3407TIP3   OH210163   6.062   3.813   5.187
 3407TIP3    H110164   6.093   3.862   5.111
 3407TIP3    H210165   6.089   3.866   5.262
 3408TIP3   OH210166   5.645   3.466   4.154
 3408TIP3    H110167   5.694   3.549   4.156
 3408TIP3    H210168   5.706   3.401   4.188
 3409TIP3   OH210169   6.502   1.996   4.381
 3409TIP3    H110170   6.431   1.975   4.321
 3409TIP3    H210171   6.510   1.918   4.436
 3410TIP3   OH210172   1.555   0.358   5.790
 3410TIP3    H110173   1.572   0.424   5.857
 3410TIP3    H210174   1.460   0.356   5.782
 3411TIP3   OH210175   7.622   7.040   0.688
 3411TIP3    H110176   7.563   7.053   0.613
 3411TIP3    H210177   7.574   6.981   0.746
 3412TIP3   OH210178   3.177   7.497   2.611
 3412TIP3    H110179   3.183   7.592   2.614
 3412TIP3    H210180   3.154   7.476   2.521
 3413TIP3   OH210181   0.140   0.251   2.563
 3413TIP3    H110182   0.103   0.191   2.498
 3413TIP3    H210183   0.228   0.270   2.529
 3414TIP3   OH210184   5.050   3.444   6.217
 3414TIP3    H110185   4.981   3.501   6.252
 3414TIP3    H210186   5.110   3.503   6.173
 3415TIP3   OH210187   2.162   4.250   0.364
 3415TIP3    H110188   2.074   4.271   0.395
 3415TIP3    H210189   2.160   4.271   0.270
 3416TIP3   OH210190   0.035   5.832   6.726
 3416TIP3    H110191  -0.053   5.834   6.763
 3416TIP3    H210192   0.068   5.921   6.737
 3417TIP3   OH210193   8.059   1.956   2.473
 3417TIP3    H110194   8.091   1.884   2.528
 3417TIP3    H210195   8.078   2.035   2.523
 3418TIP3   OH210196   4.082   0.837   2.888
 3418TIP3    H110197   3.992   0.864   2.904
 3418TIP3    H210198   4.121   0.909   2.838
 3419TIP3   OH210199   2.820   4.947   2.016
 3419TIP3    H110200   2.827   5.040   2.035
 3419TIP3    H210201   2.839   4.940   1.922
 3420TIP3   OH210202   7.061   4.424   1.151
 3420TIP3    H110203   7.098   4.341   1.118
 3420TIP3    H210204   6.981   4.436   1.101
 3421TIP3   OH210205   6.826   4.929   4.592
 3421TIP3    H110206   6.874   4.891   4.666
 3421TIP3    H210207   6.882   4.999   4.560
 3422TIP3   OH210208   2.409   2.803   0.771
 3422TIP3    H110209   2.405   2.708   0.762
 3422TIP3    H210210   2.492   2.819   0.815
 3423TIP3   OH210211   5.064   1.514  -0.012
 3423TIP3    H110212   5.048   1.535   0.080
 3423TIP3    H210213   5.030   1.588  -0.061
 3424TIP3   OH210214   7.050   7.572   2.462
 3424TIP3    H110215   7.030   7.522   2.382
 3424TIP3    H210216   6.966   7.576   2.509
 3425TIP3   OH210217   2.526   7.247   4.789
 3425TIP3    H110218   2.591   7.179   4.807
 3425TIP3    H210219   2.477   7.256   4.871
 3426TIP3   OH210220   5.100   5.477   3.509
 3426TIP3    H110221   5.195   5.474   3.499
 3426TIP3    H210222   5.077   5.567   3.489
 3427TIP3   OH210223   0.489   6.006   5.060
 3427TIP3    H110224   0.504   5.957   5.141
 3427TIP3    H210225   0.561   5.981   5.002
 3428TIP3   OH210226   7.270   1.782   3.036
 3428TIP3    H110227   7.290   1.798   3.128
 3428TIP3    H210228   7.175   1.787   3.030
 3429TIP3   OH210229   1.167   3.395   5.865
 3429TIP3    H110230   1.136   3.369   5.778
 3429TIP3    H210231   1.191   3.487   5.855
 3430TIP3   OH210232   4.864   5.618   1.565
 3430TIP3    H110233   4.941   5.563   1.552
 3430TIP3    H210234   4.901   5.705   1.583
 3431TIP3   OH210235   5.932   3.011   1.603
 3431TIP3    H110236   6.020   3.049   1.602
 3431TIP3    H210237   5.873   3.085   1.590
 3432TIP3   OH210238   7.966   3.157   0.210
 3432TIP3    H110239   7.977   3.218   0.283
 3432TIP3    H210240   7.872   3.159   0.192
 3433TIP3   OH210241   3.034   3.145   2.531
 3433TIP3    H110242   2.949   3.176   2.501
 3433TIP3    H210243   3.015   3.098   2.612
 3434TIP3   OH210244   4.527   3.810   1.810
 3434TIP3    H110245   4.569   3.725   1.799
 3434TIP3    H210246   4.454   3.809   1.747
 3435TIP3   OH210247   6.367   4.413   2.574
 3435TIP3    H110248   6.449   4.440   2.616
 3435TIP3    H210249   6.300   4.462   2.621
 3436TIP3   OH210250   5.830   2.145   5.494
 3436TIP3    H110251   5.879   2.063   5.492
 3436TIP3    H210252   5.876   2.199   5.559
 3437TIP3   OH210253   7.911   4.988   4.389
 3437TIP3    H110254   7.992   4.943   4.415
 3437TIP3    H210255   7.938   5.078   4.371
 3438TIP3   OH210256   8.212   6.149   1.745
 3438TIP3    H110257   8.251   6.077   1.696
 3438TIP3    H210258   8.143   6.181   1.687
 3439TIP3   OH210259   1.857   0.939   5.034
 3439TIP3    H110260   1.795   0.983   4.976
 3439TIP3    H210261   1.856   0.991   5.114
 3440TIP3   OH210262   6.364   0.527   5.664
 3440TIP3    H110263   6.336   0.438   5.640
 3440TIP3    H210264   6.286   0.581   5.653
 3441TIP3   OH210265   1.124   5.384   5.231
 3441TIP3    H110266   1.218   5.368   5.243
 3441TIP3    H210267   1.089   5.298   5.207
 3442TIP3   OH210268   4.007   7.792   4.514
 3442TIP3    H110269   4.103   7.799   4.511
 3442TIP3    H210270   3.982   7.776   4.423
 3443TIP3   OH210271   1.836   5.843   6.267
 3443TIP3    H110272   1.913   5.887   6.233
 3443TIP3    H210273   1.831   5.761   6.217
 3444TIP3   OH210274   1.734   7.585   1.485
 3444TIP3    H110275   1.661   7.564   1.545
 3444TIP3    H210276   1.755   7.676   1.503
 3445TIP3   OH210277   4.768   0.691   0.913
 3445TIP3    H110278   4.748   0.621   0.852
 3445TIP3    H210279   4.737   0.770   0.870
 3446TIP3   OH210280   7.620   2.497   4.110
 3446TIP3    H110281   7.658   2.421   4.065
 3446TIP3    H210282   7.695   2.541   4.150
 3447TIP3   OH210283   6.240   6.512   2.393
 3447TIP3    H110284   6.203   6.593   2.358
 3447TIP3    H210285   6.272   6.535   2.480
 3448TIP3   OH210286   1.664   0.089   1.143
 3448TIP3    H110287   1.676   0.163   1.084
 3448TIP3    H210288   1.634   0.018   1.086
 3449TIP3   OH210289   5.553   0.216   3.445
 3449TIP3    H110290   5.535   0.198   3.353
 3449TIP3    H210291   5.581   0.132   3.481
 3450TIP3   OH210292   5.567   4.808   4.287
 3450TIP3    H110293   5.643   4.835   4.235
 3450TIP3    H210294   5.504   4.777   4.223
 3451TIP3   OH210295   7.268   5.842   3.632
 3451TIP3    H110296   7.295   5.772   3.574
 3451TIP3    H210297   7.298   5.922   3.589
 3452TIP3   OH210298   4.569   7.371   1.851
 3452TIP3    H110299   4.482   7.408   1.838
 3452TIP3    H210300   4.625   7.447   1.866
 3453TIP3   OH210301   1.041   7.658   6.726
 3453TIP3    H110302   0.964   7.623   6.770
 3453TIP3    H210303   1.114   7.608   6.764
 3454TIP3   OH210304   6.655   0.721   2.048
 3454TIP3    H110305   6.665   0.631   2.016
 3454TIP3    H210306   6.720   0.730   2.117
 3455TIP3   OH210307   2.701   2.497   5.810
 3455TIP3    H110308   2.752   2.537   5.741
 3455TIP3    H210309   2.765   2.474   5.878
 3456TIP3   OH210310   7.080   0.527   5.565
 3456TIP3    H110311   7.155   0.585   5.579
 3456TIP3    H210312   7.053   0.545   5.475
 3457TIP3   OH210313   3.102   3.010   2.094
 3457TIP3    H110314   3.194   2.991   2.114
 3457TIP3    H210315   3.057   2.928   2.113
 3458TIP3   OH210316   1.220   2.188   5.271
 3458TIP3    H110317   1.246   2.231   5.353
 3458TIP3    H210318   1.139   2.231   5.246
 3459TIP3   OH210319   3.315   0.903   3.125
 3459TIP3    H110320   3.406   0.935   3.126
 3459TIP3    H210321   3.323   0.811   3.099
 3460TIP3   OH210322   3.296   5.379   3.204
 3460TIP3    H110323   3.354   5.306   3.186
 3460TIP3    H210324   3.265   5.364   3.293
 3461TIP3   OH210325   0.794   2.354   3.891
 3461TIP3    H110326   0.839   2.410   3.828
 3461TIP3    H210327   0.834   2.376   3.975
 3462TIP3   OH210328   1.974   0.063   5.357
 3462TIP3    H110329   2.009   0.123   5.424
 3462TIP3    H210330   2.049   0.007   5.334
 3463TIP3   OH210331   3.739   6.096   5.785
 3463TIP3    H110332   3.660   6.102   5.732
 3463TIP3    H210333   3.740   6.177   5.836
 3464TIP3   OH210334   1.632   6.880   3.257
 3464TIP3    H110335   1.607   6.839   3.340
 3464TIP3    H210336   1.683   6.957   3.283
 3465TIP3   OH210337   1.604   5.677   6.473
 3465TIP3    H110338   1.531   5.669   6.535
 3465TIP3    H210339   1.594   5.601   6.415
 3466TIP3   OH210340   0.165   6.860   2.924
 3466TIP3    H110341   0.119   6.776   2.924
 3466TIP3    H210342   0.136   6.903   3.005
 3467TIP3   OH210343   7.697   5.113   2.897
 3467TIP3    H110344   7.617   5.127   2.846
 3467TIP3    H210345   7.671   5.054   2.967
 3468TIP3   OH210346   7.586   4.015   0.424
 3468TIP3    H110347   7.539   3.936   0.452
 3468TIP3    H210348   7.668   4.013   0.473
 3469TIP3   OH210349   5.860   1.162   0.121
 3469TIP3    H110350   5.946   1.202   0.133
 3469TIP3    H210351   5.818   1.171   0.206
 3470TIP3   OH210352   6.230   2.622   6.373
 3470TIP3    H110353   6.238   2.527   6.385
 3470TIP3    H210354   6.173   2.631   6.297
 3471TIP3   OH210355   1.317   2.776   4.625
 3471TIP3    H110356   1.384   2.735   4.680
 3471TIP3    H210357   1.282   2.847   4.680
 3472TIP3   OH210358   0.230   5.072   0.579
 3472TIP3    H110359   0.176   5.112   0.510
 3472TIP3    H210360   0.198   5.111   0.660
 3473TIP3   OH210361   6.037   2.186   0.014
 3473TIP3    H110362   6.026   2.197   0.109
 3473TIP3    H210363   6.105   2.118   0.006
 3474TIP3   OH210364   2.097   2.751   5.736
 3474TIP3    H110365   2.002   2.751   5.751
 3474TIP3    H210366   2.105   2.769   5.642
 3475TIP3   OH210367   3.040   2.484   1.680
 3475TIP3    H110368   3.099   2.533   1.622
 3475TIP3    H210369   2.973   2.547   1.706
 3476TIP3   OH210370   2.254   4.578   3.696
 3476TIP3    H110371   2.195   4.609   3.765
 3476TIP3    H210372   2.333   4.551   3.742
 3477TIP3   OH210373   0.335   2.163   2.904
 3477TIP3    H110374   0.331   2.072   2.876
 3477TIP3    H210375   0.260   2.205   2.861
 3478TIP3   OH210376   5.358   0.777   1.521
 3478TIP3    H110377   5.285   0.733   1.564
 3478TIP3    H210378   5.426   0.784   1.589
 3479TIP3   OH210379   7.919   6.283   2.746
 3479TIP3    H110380   7.841   6.280   2.802
 3479TIP3    H210381   7.977   6.215   2.782
 3480TIP3   OH210382   0.923   3.684   0.578
 3480TIP3    H110383   0.904   3.759   0.635
 3480TIP3    H210384   0.873   3.701   0.499
 3481TIP3   OH210385   0.972   4.000   2.717
 3481TIP3    H110386   0.883   4.018   2.748
 3481TIP3    H210387   0.969   4.020   2.623
 3482TIP3   OH210388   6.732   7.726   6.679
 3482TIP3    H110389   6.806   7.775   6.643
 3482TIP3    H210390   6.771   7.646   6.714
 3483TIP3   OH210391   5.799   7.281   0.105
 3483TIP3    H110392   5.753   7.232   0.037
 3483TIP3    H210393   5.750   7.263   0.185
 3484TIP3   OH210394   7.197   4.911   5.214
 3484TIP3    H110395   7.213   4.839   5.153
 3484TIP3    H210396   7.183   4.868   5.298
 3485TIP3   OH210397   7.940   1.738   2.772
 3485TIP3    H110398   8.005   1.753   2.702
 3485TIP3    H210399   7.889   1.819   2.775
 3486TIP3   OH210400   3.570   6.471   0.167
 3486TIP3    H110401   3.486   6.498   0.205
 3486TIP3    H210402   3.547   6.425   0.087
 3487TIP3   OH210403   2.155   7.390   5.165
 3487TIP3    H110404   2.152   7.469   5.110
 3487TIP3    H210405   2.210   7.415   5.239
 3488TIP3   OH210406  -0.014   6.865   1.107
 3488TIP3    H110407   0.032   6.916   1.173
 3488TIP3    H210408   0.034   6.882   1.026
 3489TIP3   OH210409   6.798   7.277   0.513
 3489TIP3    H110410   6.817   7.243   0.425
 3489TIP3    H210411   6.722   7.333   0.501
 3490TIP3   OH210412   6.941   2.537   5.743
 3490TIP3    H110413   6.862   2.572   5.701
 3490TIP3    H210414   7.001   2.611   5.747
 3491TIP3   OH210415   6.855   7.588   4.142
 3491TIP3    H110416   6.877   7.673   4.181
 3491TIP3    H210417   6.814   7.539   4.212
 3492TIP3   OH210418   5.617   6.203   4.764
 3492TIP3    H110419   5.522   6.198   4.751
 3492TIP3    H210420   5.642   6.116   4.792
 3493TIP3   OH210421   5.643   5.438   0.335
 3493TIP3    H110422   5.694   5.357   0.343
 3493TIP3    H210423   5.698   5.505   0.376
 3494TIP3   OH210424   0.979   1.855   2.061
 3494TIP3    H110425   0.974   1.761   2.080
 3494TIP3    H210426   1.059   1.864   2.009
 3495TIP3   OH210427   3.207   3.995   0.203
 3495TIP3    H110428   3.173   4.069   0.253
 3495TIP3    H210429   3.260   3.945   0.265
 3496TIP3   OH210430   6.248   3.771   2.210
 3496TIP3    H110431   6.188   3.825   2.261
 3496TIP3    H210432   6.208   3.767   2.123
 3497TIP3   OH210433   6.931   5.570   1.914
 3497TIP3    H110434   6.873   5.646   1.918
 3497TIP3    H210435   6.994   5.584   1.985
 3498TIP3   OH210436   2.287   2.815   1.043
 3498TIP3    H110437   2.332   2.800   0.959
 3498TIP3    H210438   2.334   2.759   1.105
 3499TIP3   OH210439   2.984   6.107   0.628
 3499TIP3    H110440   2.908   6.049   0.637
 3499TIP3    H210441   3.042   6.081   0.700
 3500TIP3   OH210442   1.782   3.256   1.212
 3500TIP3    H110443   1.826   3.175   1.188
 3500TIP3    H210444   1.772   3.304   1.130
 3501TIP3   OH210445   5.012   1.539   5.721
 3501TIP3    H110446   4.935   1.589   5.695
 3501TIP3    H210447   5.011   1.540   5.817
 3502TIP3   OH210448   2.377   2.180   0.559
 3502TIP3    H110449   2.338   2.097   0.532
 3502TIP3    H210450   2.356   2.241   0.488
 3503TIP3   OH210451   4.584   2.271   3.794
 3503TIP3    H110452   4.563   2.342   3.734
 3503TIP3    H210453   4.680   2.264   3.790
 3504TIP3   OH210454   1.483   1.532   2.529
 3504TIP3    H110455   1.444   1.618   2.511
 3504TIP3    H210456   1.557   1.526   2.469
 3505TIP3   OH210457   8.228   1.534   6.133
 3505TIP3    H110458   8.205   1.470   6.065
 3505TIP3    H210459   8.304   1.496   6.177
 3506TIP3   OH210460   0.100   7.198   4.524
 3506TIP3    H110461   0.180   7.200   4.471
 3506TIP3    H210462   0.040   7.257   4.479
 3507TIP3   OH210463   7.324   1.313   6.413
 3507TIP3    H110464   7.376   1.360   6.348
 3507TIP3    H210465   7.366   1.334   6.496
 3508TIP3   OH210466   7.741   5.088   5.719
 3508TIP3    H110467   7.721   5.150   5.789
 3508TIP3    H210468   7.757   5.143   5.642
 3509TIP3   OH210469   4.110   1.788   1.667
 3509TIP3    H110470   4.111   1.782   1.571
 3509TIP3    H210471   4.181   1.732   1.696
 3510TIP3   OH210472   1.423   2.584   3.866
 3510TIP3    H110473   1.406   2.500   3.908
 3510TIP3    H210474   1.393   2.573   3.776
 3511TIP3   OH210475   0.495   7.135   2.789
 3511TIP3    H110476   0.547   7.197   2.738
 3511TIP3    H210477   0.526   7.049   2.761
 3512TIP3   OH210478   1.756   3.813   1.284
 3512TIP3    H110479   1.833   3.835   1.232
 3512TIP3    H210480   1.710   3.896   1.296
 3513TIP3   OH210481   6.847   7.753   5.049
 3513TIP3    H110482   6.816   7.810   4.979
 3513TIP3    H210483   6.773   7.745   5.109
 3514TIP3   OH210484   5.277   5.771   2.901
 3514TIP3    H110485   5.183   5.782   2.913
 3514TIP3    H210486   5.285   5.687   2.855
 3515TIP3   OH210487   6.325   3.527   4.959
 3515TIP3    H110488   6.258   3.472   5.000
 3515TIP3    H210489   6.356   3.583   5.030
 3516TIP3   OH210490   1.688   1.292   4.202
 3516TIP3    H110491   1.701   1.197   4.214
 3516TIP3    H210492   1.596   1.306   4.223
 3517TIP3   OH210493   1.751   5.310   2.465
 3517TIP3    H110494   1.797   5.227   2.475
 3517TIP3    H210495   1.676   5.304   2.524
 3518TIP3   OH210496   5.340   5.137   1.724
 3518TIP3    H110497   5.431   5.136   1.694
 3518TIP3    H210498   5.333   5.064   1.785
 3519TIP3   OH210499   6.771   0.664   5.999
 3519TIP3    H110500   6.741   0.694   6.084
 3519TIP3    H210501   6.696   0.616   5.962
 3520TIP3   OH210502   0.575   0.103   0.515
 3520TIP3    H110503   0.529   0.114   0.598
 3520TIP3    H210504   0.588   0.009   0.506
 3521TIP3   OH210505   8.047   4.630   1.283
 3521TIP3    H110506   8.042   4.552   1.227
 3521TIP3    H210507   8.140   4.637   1.306
 3522TIP3   OH210508   4.938   4.283   5.659
 3522TIP3    H110509   4.996   4.228   5.606
 3522TIP3    H210510   4.998   4.334   5.714
 3523TIP3   OH210511   3.864   1.167   3.524
 3523TIP3    H110512   3.772   1.173   3.500
 3523TIP3    H210513   3.877   1.236   3.588
 3524TIP3   OH210514   4.004   2.317   0.569
 3524TIP3    H110515   4.046   2.380   0.510
 3524TIP3    H210516   4.050   2.328   0.652
 3525TIP3   OH210517   2.012   7.165   1.692
 3525TIP3    H110518   1.924   7.136   1.668
 3525TIP3    H210519   2.068   7.090   1.672
 3526TIP3   OH210520   3.858   1.899   1.558
 3526TIP3    H110521   3.893   1.815   1.527
 3526TIP3    H210522   3.837   1.947   1.478
 3527TIP3   OH210523   0.836   0.144   3.399
 3527TIP3    H110524   0.836   0.085   3.324
 3527TIP3    H210525   0.907   0.112   3.454
 3528TIP3   OH210526   0.143   5.949   1.295
 3528TIP3    H110527   0.069   5.892   1.277
 3528TIP3    H210528   0.220   5.896   1.275
 3529TIP3   OH210529   7.483   5.100   0.900
 3529TIP3    H110530   7.568   5.134   0.928
 3529TIP3    H210531   7.497   5.006   0.888
 3530TIP3   OH210532   2.975   2.042   2.894
 3530TIP3    H110533   3.056   1.998   2.920
 3530TIP3    H210534   2.918   1.972   2.864
 3531TIP3   OH210535   6.206   5.678   0.217
 3531TIP3    H110536   6.208   5.593   0.173
 3531TIP3    H210537   6.267   5.669   0.289
 3532TIP3   OH210538   2.198   0.478   5.983
 3532TIP3    H110539   2.258   0.411   5.953
 3532TIP3    H210540   2.220   0.492   6.075
 3533TIP3   OH210541   7.719   4.894   3.211
 3533TIP3    H110542   7.634   4.886   3.169
 3533TIP3    H210543   7.702   4.875   3.304
 3534TIP3   OH210544   5.375   6.454   0.074
 3534TIP3    H110545   5.464   6.456   0.108
 3534TIP3    H210546   5.324   6.410   0.141
 3535TIP3   OH210547   1.328   7.299   6.311
 3535TIP3    H110548   1.354   7.240   6.241
 3535TIP3    H210549   1.233   7.306   6.303
 3536TIP3   OH210550   0.483   4.652   0.794
 3536TIP3    H110551   0.436   4.609   0.865
 3536TIP3    H210552   0.421   4.716   0.758
 3537TIP3   OH210553   5.978   4.076   3.687
 3537TIP3    H110554   5.984   4.139   3.615
 3537TIP3    H210555   5.888   4.044   3.683
 3538TIP3   OH210556   3.998   3.581   3.226
 3538TIP3    H110557   4.004   3.513   3.158
 3538TIP3    H210558   3.906   3.579   3.253
 3539TIP3   OH210559   7.575   1.711   1.068
 3539TIP3    H110560   7.646   1.767   1.036
 3539TIP3    H210561   7.617   1.650   1.129
 3540TIP3   OH210562   5.837   3.700   4.132
 3540TIP3    H110563   5.873   3.762   4.068
 3540TIP3    H210564   5.816   3.754   4.208
 3541TIP3   OH210565   5.543   3.732   1.265
 3541TIP3    H110566   5.449   3.733   1.246
 3541TIP3    H210567   5.563   3.641   1.287
 3542TIP3   OH210568   0.413   7.598   6.631
 3542TIP3    H110569   0.487   7.538   6.646
 3542TIP3    H210570   0.339   7.540   6.612
 3543TIP3   OH210571   1.605   6.787   0.851
 3543TIP3    H110572   1.691   6.825   0.868
 3543TIP3    H210573   1.569   6.839   0.779
 3544TIP3   OH210574   6.742   3.857   5.812
 3544TIP3    H110575   6.721   3.776   5.766
 3544TIP3    H210576   6.687   3.854   5.890
 3545TIP3   OH210577   8.025   3.303   5.826
 3545TIP3    H110578   8.095   3.359   5.858
 3545TIP3    H210579   8.015   3.235   5.893
 3546TIP3   OH210580   2.976   7.188   5.527
 3546TIP3    H110581   3.032   7.122   5.567
 3546TIP3    H210582   2.939   7.144   5.450
 3547TIP3   OH210583   3.565   6.866   5.688
 3547TIP3    H110584   3.493   6.817   5.727
 3547TIP3    H210585   3.602   6.915   5.761
 3548TIP3   OH210586   2.228   0.830   5.919
 3548TIP3    H110587   2.310   0.785   5.898
 3548TIP3    H210588   2.219   0.818   6.014
 3549TIP3   OH210589   5.144   5.563   4.054
 3549TIP3    H110590   5.120   5.632   4.116
 3549TIP3    H210591   5.159   5.486   4.109
 3550TIP3   OH210592   4.920   7.062   6.461
 3550TIP3    H110593   4.825   7.053   6.473
 3550TIP3    H210594   4.948   6.978   6.427
 3551TIP3   OH210595   0.585   7.268   4.315
 3551TIP3    H110596   0.638   7.274   4.235
 3551TIP3    H210597   0.614   7.187   4.357
 3552TIP3   OH210598   3.342   4.277   2.415
 3552TIP3    H110599   3.349   4.339   2.343
 3552TIP3    H210600   3.306   4.198   2.377
 3553TIP3   OH210601   2.399   2.021   2.109
 3553TIP3    H110602   2.412   2.066   2.193
 3553TIP3    H210603   2.341   2.078   2.060
 3554TIP3   OH210604   6.752   7.096   6.759
 3554TIP3    H110605   6.675   7.109   6.703
 3554TIP3    H210606   6.774   7.004   6.748
 3555TIP3   OH210607   2.331   6.008   5.718
 3555TIP3    H110608   2.359   5.957   5.642
 3555TIP3    H210609   2.388   5.978   5.789
 3556TIP3   OH210610   4.400   7.525   6.343
 3556TIP3    H110611   4.333   7.588   6.369
 3556TIP3    H210612   4.482   7.560   6.379
 3557TIP3   OH210613   0.574   3.208   4.550
 3557TIP3    H110614   0.656   3.209   4.601
 3557TIP3    H210615   0.505   3.202   4.616
 3558TIP3   OH210616   6.737   2.661   5.533
 3558TIP3    H110617   6.702   2.742   5.494
 3558TIP3    H210618   6.672   2.637   5.599
 3559TIP3   OH210619   3.984   0.456   6.454
 3559TIP3    H110620   4.074   0.431   6.435
 3559TIP3    H210621   3.988   0.550   6.470
 3560TIP3   OH210622   4.635   3.366   3.662
 3560TIP3    H110623   4.603   3.281   3.693
 3560TIP3    H210624   4.567   3.397   3.602
 3561TIP3   OH210625   2.523   0.526   0.449
 3561TIP3    H110626   2.548   0.617   0.433
 3561TIP3    H210627   2.531   0.515   0.544
 3562TIP3   OH210628   1.469   4.928   3.681
 3562TIP3    H110629   1.409   4.987   3.727
 3562TIP3    H210630   1.414   4.884   3.616
 3563TIP3   OH210631   4.514   0.426   1.344
 3563TIP3    H110632   4.595   0.451   1.301
 3563TIP3    H210633   4.510   0.331   1.334
 3564TIP3   OH210634   0.445   2.544   0.408
 3564TIP3    H110635   0.508   2.544   0.480
 3564TIP3    H210636   0.364   2.576   0.448
 3565TIP3   OH210637   5.674   5.065   6.723
 3565TIP3    H110638   5.588   5.027   6.707
 3565TIP3    H210639   5.656   5.143   6.775
 3566TIP3   OH210640   3.911   1.371   4.943
 3566TIP3    H110641   3.959   1.291   4.922
 3566TIP3    H210642   3.977   1.439   4.946
 3567TIP3   OH210643   2.782   7.648   4.968
 3567TIP3    H110644   2.715   7.584   4.995
 3567TIP3    H210645   2.741   7.733   4.983
 3568TIP3   OH210646   8.241   6.378   4.002
 3568TIP3    H110647   8.243   6.386   3.906
 3568TIP3    H210648   8.153   6.406   4.027
 3569TIP3   OH210649   7.062   1.330   4.982
 3569TIP3    H110650   7.019   1.310   4.899
 3569TIP3    H210651   7.110   1.412   4.964
 3570TIP3   OH210652   7.235   7.036   3.620
 3570TIP3    H110653   7.315   6.992   3.590
 3570TIP3    H210654   7.186   7.054   3.540
 3571TIP3   OH210655   1.909   0.915   3.936
 3571TIP3    H110656   1.899   0.820   3.925
 3571TIP3    H210657   1.955   0.924   4.020
 3572TIP3   OH210658   4.671   6.257   4.875
 3572TIP3    H110659   4.577   6.275   4.870
 3572TIP3    H210660   4.682   6.173   4.831
 3573TIP3   OH210661   1.954   0.587   3.243
 3573TIP3    H110662   1.980   0.611   3.154
 3573TIP3    H210663   1.862   0.613   3.250
 3574TIP3   OH210664   0.443   0.947   6.254
 3574TIP3    H110665   0.509   1.014   6.272
 3574TIP3    H210666   0.493   0.868   6.235
 3575TIP3   OH210667   3.152   1.144   3.289
 3575TIP3    H110668   3.093   1.122   3.217
 3575TIP3    H210669   3.223   1.193   3.247
 3576TIP3   OH210670   7.715   4.211   6.442
 3576TIP3    H110671   7.715   4.250   6.530
 3576TIP3    H210672   7.696   4.119   6.457
 3577TIP3   OH210673   7.296   1.272   2.696
 3577TIP3    H110674   7.288   1.181   2.668
 3577TIP3    H210675   7.210   1.310   2.677
 3578TIP3   OH210676   2.181   5.314   3.547
 3578TIP3    H110677   2.090   5.345   3.552
 3578TIP3    H210678   2.175   5.219   3.555
 3579TIP3   OH210679   3.973   3.027   5.774
 3579TIP3    H110680   3.964   3.122   5.773
 3579TIP3    H210681   3.918   2.999   5.847
 3580TIP3   OH210682   0.373   4.528   2.150
 3580TIP3    H110683   0.428   4.605   2.136
 3580TIP3    H210684   0.319   4.551   2.227
 3581TIP3   OH210685   6.775   3.965   2.639
 3581TIP3    H110686   6.758   3.887   2.585
 3581TIP3    H210687   6.689   3.993   2.669
 3582TIP3   OH210688   0.313   0.565   4.505
 3582TIP3    H110689   0.328   0.652   4.541
 3582TIP3    H210690   0.297   0.581   4.411
 3583TIP3   OH210691   6.476   4.646   3.474
 3583TIP3    H110692   6.415   4.709   3.513
 3583TIP3    H210693   6.425   4.566   3.467
 3584TIP3   OH210694   4.233   1.449   6.392
 3584TIP3    H110695   4.164   1.508   6.425
 3584TIP3    H210696   4.189   1.364   6.383
 3585TIP3   OH210697   0.369   5.468   1.844
 3585TIP3    H110698   0.462   5.493   1.845
 3585TIP3    H210699   0.329   5.528   1.781
 3586TIP3   OH210700   6.090   7.014   4.258
 3586TIP3    H110701   6.150   7.029   4.331
 3586TIP3    H210702   6.043   6.934   4.282
 3587TIP3   OH210703   5.663   6.198   2.199
 3587TIP3    H110704   5.603   6.258   2.155
 3587TIP3    H210705   5.653   6.115   2.153
 3588TIP3   OH210706   4.230   4.405   2.613
 3588TIP3    H110707   4.211   4.371   2.700
 3588TIP3    H210708   4.172   4.481   2.603
 3589TIP3   OH210709   2.033   4.083   3.081
 3589TIP3    H110710   2.124   4.102   3.106
 3589TIP3    H210711   2.013   4.148   3.014
 3590TIP3   OH210712   3.194   1.121   5.733
 3590TIP3    H110713   3.151   1.192   5.780
 3590TIP3    H210714   3.264   1.092   5.792
 3591TIP3   OH210715   7.436   1.742   5.921
 3591TIP3    H110716   7.356   1.706   5.883
 3591TIP3    H210717   7.495   1.667   5.929
 3592TIP3   OH210718   7.841   5.828   6.611
 3592TIP3    H110719   7.881   5.830   6.523
 3592TIP3    H210720   7.786   5.749   6.611
 3593TIP3   OH210721   2.761   6.008   3.605
 3593TIP3    H110722   2.819   5.970   3.539
 3593TIP3    H210723   2.794   5.975   3.688
 3594TIP3   OH210724   2.689   0.836   6.271
 3594TIP3    H110725   2.611   0.784   6.254
 3594TIP3    H210726   2.758   0.772   6.288
 3595TIP3   OH210727   2.687   5.826   2.667
 3595TIP3    H110728   2.726   5.826   2.754
 3595TIP3    H210729   2.606   5.875   2.677
 3596TIP3   OH210730   4.363   7.708   2.275
 3596TIP3    H110731   4.279   7.725   2.233
 3596TIP3    H210732   4.370   7.775   2.343
 3597TIP3   OH210733   3.565   0.150   6.816
 3597TIP3    H110734   3.656   0.176   6.802
 3597TIP3    H210735   3.560   0.061   6.779
 3598TIP3   OH210736   7.241   5.386   1.213
 3598TIP3    H110737   7.169   5.372   1.274
 3598TIP3    H210738   7.309   5.428   1.265
 3599TIP3   OH210739   7.202   6.720   1.649
 3599TIP3    H110740   7.122   6.675   1.621
 3599TIP3    H210741   7.215   6.694   1.740
 3600TIP3   OH210742   7.399   0.922   0.138
 3600TIP3    H110743   7.347   0.939   0.217
 3600TIP3    H210744   7.425   1.009   0.107
 3601TIP3   OH210745   5.908   4.736   2.004
 3601TIP3    H110746   6.003   4.742   2.010
 3601TIP3    H210747   5.887   4.758   1.913
 3602TIP3   OH210748   5.627   1.913   6.067
 3602TIP3    H110749   5.706   1.937   6.115
 3602TIP3    H210750   5.655   1.904   5.976
 3603TIP3   OH210751   4.042   5.615   3.670
 3603TIP3    H110752   4.133   5.620   3.640
 3603TIP3    H210753   3.993   5.586   3.593
 3604TIP3   OH210754   6.142   0.896   2.075
 3604TIP3    H110755   6.195   0.975   2.084
 3604TIP3    H210756   6.108   0.879   2.163
 3605TIP3   OH210757   5.241   2.658   3.582
 3605TIP3    H110758   5.188   2.655   3.502
 3605TIP3    H210759   5.251   2.751   3.601
 3606TIP3   OH210760   2.223   3.980   1.240
 3606TIP3    H110761   2.236   4.047   1.308
 3606TIP3    H210762   2.271   4.013   1.165
 3607TIP3   OH210763   2.775   1.692   3.353
 3607TIP3    H110764   2.812   1.752   3.288
 3607TIP3    H210765   2.714   1.638   3.304
 3608TIP3   OH210766   0.511   2.378   6.233
 3608TIP3    H110767   0.468   2.351   6.152
 3608TIP3    H210768   0.541   2.467   6.216
 3609TIP3   OH210769   5.727   0.158   1.232
 3609TIP3    H110770   5.769   0.096   1.292
 3609TIP3    H210771   5.663   0.204   1.285
 3610TIP3   OH210772   3.244   5.596   6.123
 3610TIP3    H110773   3.166   5.641   6.156
 3610TIP3    H210774   3.309   5.666   6.113
 3611TIP3   OH210775   3.827   6.565   5.817
 3611TIP3    H110776   3.769   6.622   5.767
 3611TIP3    H210777   3.885   6.526   5.751
 3612TIP3   OH210778   2.088   3.638   6.466
 3612TIP3    H110779   2.022   3.684   6.414
 3612TIP3    H210780   2.091   3.686   6.549
 3613TIP3   OH210781   3.357   3.110   0.604
 3613TIP3    H110782   3.309   3.085   0.684
 3613TIP3    H210783   3.408   3.032   0.582
 3614TIP3   OH210784   4.933   7.326   0.765
 3614TIP3    H110785   4.873   7.252   0.752
 3614TIP3    H210786   4.930   7.373   0.681
 3615TIP3   OH210787   2.195   4.623   1.533
 3615TIP3    H110788   2.266   4.559   1.530
 3615TIP3    H210789   2.213   4.676   1.611
 3616TIP3   OH210790   3.933   5.806   0.082
 3616TIP3    H110791   3.999   5.818   0.149
 3616TIP3    H210792   3.870   5.876   0.097
 3617TIP3   OH210793   4.362   0.647   4.109
 3617TIP3    H110794   4.370   0.568   4.162
 3617TIP3    H210795   4.367   0.616   4.018
 3618TIP3   OH210796   5.711   1.864   6.462
 3618TIP3    H110797   5.691   1.897   6.375
 3618TIP3    H210798   5.788   1.913   6.489
 3619TIP3   OH210799   0.299   7.490   3.915
 3619TIP3    H110800   0.216   7.455   3.883
 3619TIP3    H210801   0.358   7.488   3.839
 3620TIP3   OH210802   8.033   4.333   0.892
 3620TIP3    H110803   8.103   4.384   0.931
 3620TIP3    H210804   8.078   4.272   0.833
 3621TIP3   OH210805   3.998   2.009   3.061
 3621TIP3    H110806   3.994   1.916   3.081
 3621TIP3    H210807   4.036   2.014   2.974
 3622TIP3   OH210808   7.591   1.360   2.419
 3622TIP3    H110809   7.517   1.333   2.366
 3622TIP3    H210810   7.598   1.294   2.487
 3623TIP3   OH210811   6.836   0.405   5.378
 3623TIP3    H110812   6.909   0.466   5.365
 3623TIP3    H210813   6.868   0.322   5.345
 3624TIP3   OH210814   8.255   6.818   3.326
 3624TIP3    H110815   8.243   6.806   3.232
 3624TIP3    H210816   8.349   6.805   3.340
 3625TIP3   OH210817   7.057   7.880   5.225
 3625TIP3    H110818   7.008   7.810   5.182
 3625TIP3    H210819   7.105   7.922   5.155
 3626TIP3   OH210820   6.234   2.354   2.886
 3626TIP3    H110821   6.311   2.316   2.845
 3626TIP3    H210822   6.177   2.279   2.905
 3627TIP3   OH210823   7.309   5.167   2.993
 3627TIP3    H110824   7.216   5.159   3.015
 3627TIP3    H210825   7.331   5.257   3.017
 3628TIP3   OH210826   6.400   6.280   2.047
 3628TIP3    H110827   6.391   6.318   2.135
 3628TIP3    H210828   6.346   6.201   2.050
 3629TIP3   OH210829   7.858   2.810   1.692
 3629TIP3    H110830   7.915   2.736   1.712
 3629TIP3    H210831   7.918   2.885   1.689
 3630TIP3   OH210832   6.659   3.168   3.373
 3630TIP3    H110833   6.589   3.163   3.308
 3630TIP3    H210834   6.730   3.114   3.337
 3631TIP3   OH210835   6.397   5.314   3.278
 3631TIP3    H110836   6.349   5.324   3.196
 3631TIP3    H210837   6.331   5.326   3.347
 3632TIP3   OH210838   4.387   0.781   6.247
 3632TIP3    H110839   4.366   0.861   6.199
 3632TIP3    H210840   4.326   0.716   6.212
 3633TIP3   OH210841   4.405   6.814   3.579
 3633TIP3    H110842   4.318   6.845   3.606
 3633TIP3    H210843   4.394   6.719   3.571
 3634TIP3   OH210844   0.328   5.650   6.448
 3634TIP3    H110845   0.249   5.605   6.480
 3634TIP3    H210846   0.359   5.701   6.523
 3635TIP3   OH210847   0.862   1.151   2.518
 3635TIP3    H110848   0.898   1.206   2.448
 3635TIP3    H210849   0.892   1.193   2.599
 3636TIP3   OH210850   2.168   1.959   3.091
 3636TIP3    H110851   2.099   1.896   3.070
 3636TIP3    H210852   2.174   2.015   3.014
 3637TIP3   OH210853   7.059   0.082   4.525
 3637TIP3    H110854   7.099   0.122   4.448
 3637TIP3    H210855   7.113   0.005   4.543
 3638TIP3   OH210856   6.250   5.729   0.804
 3638TIP3    H110857   6.342   5.703   0.801
 3638TIP3    H210858   6.207   5.670   0.743
 3639TIP3   OH210859   4.720   2.625   0.274
 3639TIP3    H110860   4.786   2.622   0.205
 3639TIP3    H210861   4.743   2.702   0.326
 3640TIP3   OH210862   6.210   1.058   4.182
 3640TIP3    H110863   6.158   1.138   4.170
 3640TIP3    H210864   6.190   1.005   4.105
 3641TIP3   OH210865   1.981   2.764   0.843
 3641TIP3    H110866   2.051   2.819   0.878
 3641TIP3    H210867   1.991   2.681   0.890
 3642TIP3   OH210868   3.971   7.406   3.346
 3642TIP3    H110869   3.950   7.375   3.258
 3642TIP3    H210870   4.064   7.387   3.357
 3643TIP3   OH210871   1.825   0.287   5.238
 3643TIP3    H110872   1.823   0.199   5.275
 3643TIP3    H210873   1.734   0.304   5.211
 3644TIP3   OH210874   7.008   3.925   0.420
 3644TIP3    H110875   7.080   3.955   0.476
 3644TIP3    H210876   6.932   3.974   0.452
 3645TIP3   OH210877   8.086   2.081   5.025
 3645TIP3    H110878   8.081   2.051   4.935
 3645TIP3    H210879   8.159   2.033   5.063
 3646TIP3   OH210880   5.851   5.253   1.652
 3646TIP3    H110881   5.848   5.301   1.735
 3646TIP3    H210882   5.897   5.313   1.592
 3647TIP3   OH210883   4.919   5.445   0.333
 3647TIP3    H110884   4.953   5.533   0.350
 3647TIP3    H210885   4.961   5.389   0.398
 3648TIP3   OH210886   3.418   4.667   5.677
 3648TIP3    H110887   3.456   4.736   5.731
 3648TIP3    H210888   3.490   4.605   5.663
 3649TIP3   OH210889   7.061   5.847   4.730
 3649TIP3    H110890   6.974   5.814   4.709
 3649TIP3    H210891   7.116   5.768   4.731
 3650TIP3   OH210892   7.463   3.705   1.467
 3650TIP3    H110893   7.526   3.721   1.396
 3650TIP3    H210894   7.471   3.782   1.523
 3651TIP3   OH210895   3.570   0.260   6.502
 3651TIP3    H110896   3.641   0.266   6.567
 3651TIP3    H210897   3.598   0.318   6.431
 3652TIP3   OH210898   0.361   2.326   3.641
 3652TIP3    H110899   0.342   2.377   3.562
 3652TIP3    H210900   0.439   2.367   3.678
 3653TIP3   OH210901   7.421   2.238   3.478
 3653TIP3    H110902   7.481   2.185   3.530
 3653TIP3    H210903   7.446   2.328   3.497
 3654TIP3   OH210904   8.084   7.358   4.773
 3654TIP3    H110905   8.059   7.431   4.716
 3654TIP3    H210906   8.018   7.357   4.842
 3655TIP3   OH210907   7.755   6.460   6.105
 3655TIP3    H110908   7.829   6.520   6.094
 3655TIP3    H210909   7.755   6.439   6.199
 3656TIP3   OH210910   5.214   1.619   6.779
 3656TIP3    H110911   5.167   1.536   6.771
 3656TIP3    H210912   5.249   1.637   6.692
 3657TIP3   OH210913   0.550   6.228   1.065
 3657TIP3    H110914   0.578   6.228   1.156
 3657TIP3    H210915   0.578   6.313   1.031
 3658TIP3   OH210916   0.234   7.158   0.915
 3658TIP3    H110917   0.268   7.226   0.857
 3658TIP3    H210918   0.311   7.111   0.945
 3659TIP3   OH210919   1.923   2.999   1.676
 3659TIP3    H110920   1.967   3.072   1.634
 3659TIP3    H210921   1.877   2.954   1.605
 3660TIP3   OH210922   4.130   2.496   2.770
 3660TIP3    H110923   4.105   2.420   2.717
 3660TIP3    H210924   4.226   2.494   2.772
 3661TIP3   OH210925   1.442   1.102   0.886
 3661TIP3    H110926   1.376   1.034   0.871
 3661TIP3    H210927   1.524   1.054   0.897
 3662TIP3   OH210928   1.569   7.392   1.105
 3662TIP3    H110929   1.493   7.448   1.121
 3662TIP3    H210930   1.533   7.315   1.060
 3663TIP3   OH210931   5.773   7.406   0.816
 3663TIP3    H110932   5.720   7.397   0.895
 3663TIP3    H210933   5.772   7.319   0.777
 3664TIP3   OH210934   2.582   6.959   3.186
 3664TIP3    H110935   2.544   6.872   3.176
 3664TIP3    H210936   2.558   6.987   3.274
 3665TIP3   OH210937   5.114   2.995   3.362
 3665TIP3    H110938   5.135   3.037   3.278
 3665TIP3    H210939   5.078   3.065   3.416
 3666TIP3   OH210940   4.287   0.791   2.474
 3666TIP3    H110941   4.223   0.750   2.532
 3666TIP3    H210942   4.269   0.885   2.481
 3667TIP3   OH210943   4.691   6.080   0.875
 3667TIP3    H110944   4.627   6.147   0.898
 3667TIP3    H210945   4.656   5.999   0.911
 3668TIP3   OH210946   2.274   6.401   6.516
 3668TIP3    H110947   2.270   6.335   6.585
 3668TIP3    H210948   2.343   6.461   6.544
 3669TIP3   OH210949   0.536   6.112   2.237
 3669TIP3    H110950   0.548   6.171   2.313
 3669TIP3    H210951   0.461   6.058   2.261
 3670TIP3   OH210952   6.872   4.417   1.384
 3670TIP3    H110953   6.849   4.330   1.419
 3670TIP3    H210954   6.924   4.398   1.306
 3671TIP3   OH210955   0.804   5.685   1.574
 3671TIP3    H110956   0.821   5.638   1.492
 3671TIP3    H210957   0.876   5.659   1.632
 3672TIP3   OH210958   4.620   0.747   1.959
 3672TIP3    H110959   4.540   0.719   2.004
 3672TIP3    H210960   4.589   0.803   1.888
 3673TIP3   OH210961   5.273   2.296   3.476
 3673TIP3    H110962   5.181   2.278   3.454
 3673TIP3    H210963   5.270   2.375   3.530
 3674TIP3   OH210964   1.804   3.287   3.658
 3674TIP3    H110965   1.814   3.224   3.586
 3674TIP3    H210966   1.712   3.279   3.683
 3675TIP3   OH210967   5.892   4.637   6.701
 3675TIP3    H110968   5.882   4.725   6.737
 3675TIP3    H210969   5.960   4.645   6.635
 3676TIP3   OH210970   7.316   6.057   5.824
 3676TIP3    H110971   7.408   6.041   5.803
 3676TIP3    H210972   7.269   5.980   5.792
 3677TIP3   OH210973   6.940   6.400   3.960
 3677TIP3    H110974   7.018   6.420   3.908
 3677TIP3    H210975   6.917   6.310   3.934
 3678TIP3   OH210976   0.792   3.701   1.937
 3678TIP3    H110977   0.750   3.689   2.022
 3678TIP3    H210978   0.852   3.627   1.930
 3679TIP3   OH210979   0.042   0.669   1.832
 3679TIP3    H110980  -0.021   0.721   1.882
 3679TIP3    H210981   0.125   0.717   1.840
 3680TIP3   OH210982   1.779   1.452   3.975
 3680TIP3    H110983   1.757   1.401   4.052
 3680TIP3    H210984   1.733   1.408   3.903
 3681TIP3   OH210985   2.635   0.512   0.139
 3681TIP3    H110986   2.612   0.506   0.232
 3681TIP3    H210987   2.561   0.470   0.094
 3682TIP3   OH210988   1.024   0.532   0.672
 3682TIP3    H110989   0.974   0.612   0.651
 3682TIP3    H210990   1.021   0.480   0.591
 3683TIP3   OH210991   5.941   4.102   0.188
 3683TIP3    H110992   5.926   4.065   0.101
 3683TIP3    H210993   5.854   4.110   0.226
 3684TIP3   OH210994   7.650   5.117   4.017
 3684TIP3    H110995   7.710   5.168   3.962
 3684TIP3    H210996   7.612   5.053   3.958
 3685TIP3   OH210997   1.443   2.174   1.254
 3685TIP3    H110998   1.519   2.205   1.204
 3685TIP3    H210999   1.381   2.246   1.251
 3686TIP3   OH211000   2.411   2.860   6.228
 3686TIP3    H111001   2.435   2.951   6.246
 3686TIP3    H211002   2.317   2.855   6.246
 3687TIP3   OH211003   2.480   3.651   4.041
 3687TIP3    H111004   2.435   3.701   3.973
 3687TIP3    H211005   2.488   3.711   4.115
 3688TIP3   OH211006   2.195   5.638   2.060
 3688TIP3    H111007   2.204   5.703   2.129
 3688TIP3    H211008   2.194   5.689   1.979
 3689TIP3   OH211009   7.428   0.408   3.451
 3689TIP3    H111010   7.433   0.482   3.391
 3689TIP3    H211011   7.421   0.331   3.395
 3690TIP3   OH211012   5.245   5.269   0.694
 3690TIP3    H111013   5.291   5.343   0.733
 3690TIP3    H211014   5.305   5.236   0.627
 3691TIP3   OH211015   7.331   6.735   5.266
 3691TIP3    H111016   7.265   6.773   5.209
 3691TIP3    H211017   7.303   6.645   5.279
 3692TIP3   OH211018   6.051   6.311   6.619
 3692TIP3    H111019   6.145   6.312   6.607
 3692TIP3    H211020   6.020   6.393   6.582
 3693TIP3   OH211021   1.221   2.971   2.360
 3693TIP3    H111022   1.130   2.990   2.380
 3693TIP3    H211023   1.218   2.898   2.298
 3694TIP3   OH211024   1.321   7.773   1.581
 3694TIP3    H111025   1.337   7.679   1.591
 3694TIP3    H211026   1.230   7.778   1.551
 3695TIP3   OH211027   7.884   5.191   3.379
 3695TIP3    H111028   7.831   5.221   3.305
 3695TIP3    H211029   7.923   5.271   3.415
 3696TIP3   OH211030   1.806   5.584   1.939
 3696TIP3    H111031   1.815   5.675   1.909
 3696TIP3    H211032   1.801   5.533   1.859
 3697TIP3   OH211033   4.524   3.012   3.118
 3697TIP3    H111034   4.615   3.030   3.142
 3697TIP3    H211035   4.489   2.962   3.192
 3698TIP3   OH211036   5.904   7.025   3.360
 3698TIP3    H111037   5.946   7.097   3.313
 3698TIP3    H211038   5.867   6.969   3.292
 3699TIP3   OH211039   0.608   0.709   6.313
 3699TIP3    H111040   0.597   0.615   6.322
 3699TIP3    H211041   0.661   0.735   6.388
 3700TIP3   OH211042   8.108   5.000   4.191
 3700TIP3    H111043   8.084   5.076   4.138
 3700TIP3    H211044   8.118   4.929   4.127
 3701TIP3   OH211045   1.370   5.866   6.555
 3701TIP3    H111046   1.406   5.915   6.480
 3701TIP3    H211047   1.294   5.821   6.520
 3702TIP3   OH211048   3.098   4.511   5.255
 3702TIP3    H111049   3.087   4.443   5.188
 3702TIP3    H211050   3.012   4.554   5.258
 3703TIP3   OH211051   0.414   1.909   6.004
 3703TIP3    H111052   0.421   1.971   6.077
 3703TIP3    H211053   0.478   1.841   6.024
 3704TIP3   OH211054   7.198   0.742   2.223
 3704TIP3    H111055   7.213   0.813   2.160
 3704TIP3    H211056   7.273   0.684   2.212
 3705TIP3   OH211057   5.251   3.811   2.280
 3705TIP3    H111058   5.229   3.735   2.227
 3705TIP3    H211059   5.278   3.877   2.217
 3706TIP3   OH211060   2.552   3.774   3.271
 3706TIP3    H111061   2.485   3.743   3.211
 3706TIP3    H211062   2.503   3.817   3.342
 3707TIP3   OH211063   5.068   3.123   5.289
 3707TIP3    H111064   4.994   3.156   5.339
 3707TIP3    H211065   5.035   3.045   5.244
 3708TIP3   OH211066   7.018   0.623   5.317
 3708TIP3    H111067   7.084   0.634   5.249
 3708TIP3    H211068   6.976   0.708   5.323
 3709TIP3   OH211069   0.686   0.727   2.930
 3709TIP3    H111070   0.713   0.724   3.021
 3709TIP3    H211071   0.699   0.818   2.903
 3710TIP3   OH211072   5.774   7.502   3.174
 3710TIP3    H111073   5.733   7.499   3.261
 3710TIP3    H211074   5.868   7.509   3.191
 3711TIP3   OH211075   8.282   2.565   0.032
 3711TIP3    H111076   8.317   2.601   0.113
 3711TIP3    H211077   8.259   2.642  -0.020
 3712TIP3   OH211078   5.190   1.105   0.979
 3712TIP3    H111079   5.186   1.089   0.884
 3712TIP3    H211080   5.246   1.182   0.987
 3713TIP3   OH211081   5.007   7.280   2.071
 3713TIP3    H111082   5.048   7.222   2.007
 3713TIP3    H211083   4.914   7.256   2.068
 3714TIP3   OH211084   2.161   1.223   5.906
 3714TIP3    H111085   2.095   1.206   5.973
 3714TIP3    H211086   2.112   1.243   5.827
 3715TIP3   OH211087   2.056   5.287   0.839
 3715TIP3    H111088   2.035   5.330   0.923
 3715TIP3    H211089   2.118   5.218   0.863
 3716TIP3   OH211090   2.368   6.352   0.444
 3716TIP3    H111091   2.326   6.355   0.530
 3716TIP3    H211092   2.397   6.261   0.435
 3717TIP3   OH211093   6.574   0.060   5.203
 3717TIP3    H111094   6.595  -0.023   5.159
 3717TIP3    H211095   6.624   0.126   5.154
 3718TIP3   OH211096   1.320   4.203   6.490
 3718TIP3    H111097   1.371   4.170   6.415
 3718TIP3    H211098   1.368   4.172   6.567
 3719TIP3   OH211099   5.906   1.595   6.019
 3719TIP3    H111100   5.932   1.678   6.060
 3719TIP3    H211101   5.971   1.532   6.051
 3720TIP3   OH211102   6.970   6.521   5.710
 3720TIP3    H111103   7.039   6.454   5.709
 3720TIP3    H211104   6.971   6.555   5.800
 3721TIP3   OH211105   0.222   4.987   1.168
 3721TIP3    H111106   0.196   5.052   1.233
 3721TIP3    H211107   0.188   5.020   1.086
 3722TIP3   OH211108   7.911   7.731   4.717
 3722TIP3    H111109   7.872   7.818   4.722
 3722TIP3    H211110   7.851   7.674   4.765
 3723TIP3   OH211111   3.316   1.452   2.018
 3723TIP3    H111112   3.286   1.496   2.097
 3723TIP3    H211113   3.379   1.387   2.049
 3724TIP3   OH211114   8.223   0.765   4.103
 3724TIP3    H111115   8.265   0.807   4.178
 3724TIP3    H211116   8.171   0.834   4.063
 3725TIP3   OH211117   2.527   5.498   2.748
 3725TIP3    H111118   2.586   5.430   2.779
 3725TIP3    H211119   2.514   5.556   2.823
 3726TIP3   OH211120   0.402   3.044   5.945
 3726TIP3    H111121   0.336   3.099   5.902
 3726TIP3    H211122   0.471   3.033   5.880
 3727TIP3   OH211123   2.310   7.117   5.517
 3727TIP3    H111124   2.286   7.197   5.564
 3727TIP3    H211125   2.244   7.110   5.448
 3728TIP3   OH211126   1.231   5.007   6.384
 3728TIP3    H111127   1.219   5.094   6.346
 3728TIP3    H211128   1.146   4.964   6.375
 3729TIP3   OH211129   2.714   3.523   0.752
 3729TIP3    H111130   2.713   3.459   0.680
 3729TIP3    H211131   2.622   3.534   0.776
 3730TIP3   OH211132   1.695   3.336   5.045
 3730TIP3    H111133   1.674   3.392   5.120
 3730TIP3    H211134   1.762   3.276   5.078
 3731TIP3   OH211135   7.697   0.808   4.092
 3731TIP3    H111136   7.690   0.902   4.076
 3731TIP3    H211137   7.754   0.776   4.022
 3732TIP3   OH211138   7.121   7.549   1.863
 3732TIP3    H111139   7.037   7.590   1.842
 3732TIP3    H211140   7.187   7.614   1.836
 3733TIP3   OH211141   4.969   5.890   4.428
 3733TIP3    H111142   4.893   5.874   4.483
 3733TIP3    H211143   5.028   5.943   4.483
 3734TIP3   OH211144   5.579   0.879   3.679
 3734TIP3    H111145   5.505   0.931   3.646
 3734TIP3    H211146   5.566   0.875   3.773
 3735TIP3   OH211147   1.002   2.945   5.644
 3735TIP3    H111148   1.026   3.036   5.661
 3735TIP3    H211149   0.981   2.908   5.730
 3736TIP3   OH211150   1.550   2.129   6.511
 3736TIP3    H111151   1.462   2.141   6.545
 3736TIP3    H211152   1.581   2.218   6.492
 3737TIP3   OH211153   7.214   2.955   5.925
 3737TIP3    H111154   7.130   2.998   5.911
 3737TIP3    H211155   7.263   3.014   5.983
 3738TIP3   OH211156   2.930   7.059   3.367
 3738TIP3    H111157   2.903   7.140   3.411
 3738TIP3    H211158   2.946   7.086   3.276
 3739TIP3   OH211159   4.678   0.431   2.962
 3739TIP3    H111160   4.639   0.364   3.018
 3739TIP3    H211161   4.677   0.393   2.874
 3740TIP3   OH211162   1.740   0.377   2.325
 3740TIP3    H111163   1.723   0.386   2.231
 3740TIP3    H211164   1.825   0.417   2.338
 3741TIP3   OH211165   2.660   4.869   2.754
 3741TIP3    H111166   2.667   4.874   2.659
 3741TIP3    H211167   2.729   4.808   2.780
 3742TIP3   OH211168   6.384   2.540   1.988
 3742TIP3    H111169   6.362   2.447   1.987
 3742TIP3    H211170   6.320   2.581   1.930
 3743TIP3   OH211171   1.811   4.181   5.215
 3743TIP3    H111172   1.857   4.257   5.181
 3743TIP3    H211173   1.718   4.198   5.197
 3744TIP3   OH211174   3.803   6.145   4.072
 3744TIP3    H111175   3.780   6.236   4.091
 3744TIP3    H211176   3.765   6.128   3.986
 3745TIP3   OH211177   8.202   4.461   1.748
 3745TIP3    H111178   8.253   4.498   1.676
 3745TIP3    H211179   8.200   4.530   1.814
 3746TIP3   OH211180   7.310   6.594   0.207
 3746TIP3    H111181   7.380   6.618   0.146
 3746TIP3    H211182   7.268   6.519   0.166
 3747TIP3   OH211183   7.678   0.445   5.435
 3747TIP3    H111184   7.699   0.353   5.451
 3747TIP3    H211185   7.614   0.443   5.364
 3748TIP3   OH211186   0.838   6.941   2.493
 3748TIP3    H111187   0.890   6.976   2.420
 3748TIP3    H211188   0.884   6.862   2.519
 3749TIP3   OH211189   4.587   0.247   1.956
 3749TIP3    H111190   4.679   0.229   1.938
 3749TIP3    H211191   4.584   0.342   1.970
 3750TIP3   OH211192   2.506   3.414   5.134
 3750TIP3    H111193   2.508   3.319   5.146
 3750TIP3    H211194   2.535   3.449   5.218
 3751TIP3   OH211195   3.923   3.025   0.369
 3751TIP3    H111196   3.968   3.072   0.439
 3751TIP3    H211197   3.851   3.083   0.344
 3752TIP3   OH211198   7.260   5.265   5.009
 3752TIP3    H111199   7.214   5.188   4.975
 3752TIP3    H211200   7.317   5.230   5.077
 3753TIP3   OH211201   4.240   5.332   5.223
 3753TIP3    H111202   4.249   5.409   5.168
 3753TIP3    H211203   4.146   5.313   5.224
 3754TIP3   OH211204   1.442   5.088   2.453
 3754TIP3    H111205   1.433   5.175   2.413
 3754TIP3    H211206   1.470   5.106   2.542
 3755TIP3   OH211207   7.996   4.688   3.419
 3755TIP3    H111208   7.996   4.602   3.460
 3755TIP3    H211209   8.087   4.702   3.391
 3756TIP3   OH211210   0.551   5.664   4.460
 3756TIP3    H111211   0.549   5.633   4.551
 3756TIP3    H211212   0.462   5.693   4.443
 3757TIP3   OH211213   5.203   3.605   3.349
 3757TIP3    H111214   5.241   3.551   3.279
 3757TIP3    H211215   5.182   3.543   3.418
 3758TIP3   OH211216   6.351   6.640   3.327
 3758TIP3    H111217   6.323   6.636   3.236
 3758TIP3    H211218   6.444   6.616   3.325
 3759TIP3   OH211219   6.844   3.830   3.939
 3759TIP3    H111220   6.832   3.814   3.845
 3759TIP3    H211221   6.939   3.833   3.951
 3760TIP3   OH211222   4.687   6.837   6.456
 3760TIP3    H111223   4.617   6.781   6.422
 3760TIP3    H211224   4.766   6.784   6.445
 3761TIP3   OH211225   1.993   0.682   5.834
 3761TIP3    H111226   2.038   0.617   5.888
 3761TIP3    H211227   2.040   0.764   5.849
 3762TIP3   OH211228   0.461   5.415   4.242
 3762TIP3    H111229   0.471   5.434   4.148
 3762TIP3    H211230   0.433   5.498   4.280
 3763TIP3   OH211231   3.046   3.821   0.056
 3763TIP3    H111232   3.086   3.892   0.106
 3763TIP3    H211233   2.957   3.814   0.091
 3764TIP3   OH211234   1.036   6.509   1.871
 3764TIP3    H111235   1.067   6.458   1.796
 3764TIP3    H211236   0.942   6.517   1.857
 3765TIP3   OH211237   7.165   5.419   2.104
 3765TIP3    H111238   7.249   5.440   2.064
 3765TIP3    H211239   7.122   5.362   2.041
 3766TIP3   OH211240   3.939   4.986   5.458
 3766TIP3    H111241   3.855   4.998   5.413
 3766TIP3    H211242   3.916   4.943   5.540
 3767TIP3   OH211243   5.698   0.831   6.379
 3767TIP3    H111244   5.610   0.802   6.354
 3767TIP3    H211245   5.694   0.926   6.374
 3768TIP3   OH211246   0.572   0.257   1.671
 3768TIP3    H111247   0.541   0.199   1.742
 3768TIP3    H211248   0.495   0.267   1.614
 3769TIP3   OH211249   5.149   5.893   0.740
 3769TIP3    H111250   5.187   5.891   0.652
 3769TIP3    H211251   5.225   5.896   0.798
 3770TIP3   OH211252   7.231   1.568   5.539
 3770TIP3    H111253   7.223   1.486   5.490
 3770TIP3    H211254   7.208   1.636   5.476
 3771TIP3   OH211255   3.308   2.164   1.526
 3771TIP3    H111256   3.310   2.068   1.529
 3771TIP3    H211257   3.352   2.191   1.607
 3772TIP3   OH211258   3.823   3.554   4.422
 3772TIP3    H111259   3.870   3.495   4.481
 3772TIP3    H211260   3.750   3.587   4.475
 3773TIP3   OH211261   2.254   0.379   4.290
 3773TIP3    H111262   2.311   0.359   4.216
 3773TIP3    H211263   2.225   0.293   4.322
 3774TIP3   OH211264   2.543   6.284   1.193
 3774TIP3    H111265   2.453   6.316   1.197
 3774TIP3    H211266   2.539   6.195   1.228
 3775TIP3   OH211267   7.169   4.148   4.427
 3775TIP3    H111268   7.145   4.055   4.420
 3775TIP3    H211269   7.263   4.149   4.414
 3776TIP3   OH211270   2.075   7.588   1.446
 3776TIP3    H111271   1.987   7.617   1.421
 3776TIP3    H211272   2.090   7.627   1.532
 3777TIP3   OH211273   1.763   2.048   2.228
 3777TIP3    H111274   1.830   2.080   2.168
 3777TIP3    H211275   1.774   1.953   2.228
 3778TIP3   OH211276   0.396   5.120   3.583
 3778TIP3    H111277   0.389   5.160   3.496
 3778TIP3    H211278   0.337   5.045   3.579
 3779TIP3   OH211279   6.866   4.986   3.354
 3779TIP3    H111280   6.804   5.010   3.285
 3779TIP3    H211281   6.879   5.067   3.404
 3780TIP3   OH211282   7.129   5.480   3.264
 3780TIP3    H111283   7.087   5.476   3.178
 3780TIP3    H211284   7.115   5.393   3.301
 3781TIP3   OH211285   0.860   3.569   1.666
 3781TIP3    H111286   0.822   3.570   1.753
 3781TIP3    H211287   0.936   3.627   1.672
 3782TIP3   OH211288   1.314   7.184   5.148
 3782TIP3    H111289   1.336   7.097   5.180
 3782TIP3    H211290   1.233   7.206   5.194
 3783TIP3   OH211291   6.379   1.113   1.040
 3783TIP3    H111292   6.409   1.033   0.996
 3783TIP3    H211293   6.449   1.177   1.025
 3784TIP3   OH211294   0.456   0.349   0.933
 3784TIP3    H111295   0.489   0.270   0.890
 3784TIP3    H211296   0.498   0.350   1.019
 3785TIP3   OH211297   5.505   2.881   5.917
 3785TIP3    H111298   5.535   2.810   5.860
 3785TIP3    H211299   5.462   2.836   5.991
 3786TIP3   OH211300   5.386   4.545   0.281
 3786TIP3    H111301   5.416   4.620   0.229
 3786TIP3    H211302   5.425   4.469   0.238
 3787TIP3   OH211303   5.744   5.265   4.175
 3787TIP3    H111304   5.724   5.172   4.190
 3787TIP3    H211305   5.757   5.301   4.263
 3788TIP3   OH211306   8.096   1.033   1.693
 3788TIP3    H111307   8.127   1.109   1.644
 3788TIP3    H211308   8.133   1.045   1.781
 3789TIP3   OH211309   0.333   1.101   4.044
 3789TIP3    H111310   0.247   1.132   4.019
 3789TIP3    H211311   0.336   1.111   4.139
 3790TIP3   OH211312   6.497   0.487   6.699
 3790TIP3    H111313   6.413   0.532   6.700
 3790TIP3    H211314   6.479   0.400   6.734
 3791TIP3   OH211315   7.513   4.530   0.478
 3791TIP3    H111316   7.487   4.530   0.570
 3791TIP3    H211317   7.452   4.590   0.436
 3792TIP3   OH211318   7.412   4.859   4.621
 3792TIP3    H111319   7.500   4.872   4.587
 3792TIP3    H211320   7.424   4.809   4.702
 3793TIP3   OH211321   7.274   4.376   6.503
 3793TIP3    H111322   7.289   4.433   6.428
 3793TIP3    H211323   7.357   4.375   6.550
 3794TIP3   OH211324   3.959   7.588   2.133
 3794TIP3    H111325   3.922   7.549   2.213
 3794TIP3    H211326   3.884   7.630   2.090
 3795TIP3   OH211327   0.436   6.747   6.135
 3795TIP3    H111328   0.372   6.722   6.068
 3795TIP3    H211329   0.391   6.812   6.189
 3796TIP3   OH211330   6.689   5.114   2.255
 3796TIP3    H111331   6.605   5.156   2.233
 3796TIP3    H211332   6.739   5.183   2.299
 3797TIP3   OH211333   0.442   4.772   2.045
 3797TIP3    H111334   0.463   4.860   2.016
 3797TIP3    H211335   0.407   4.728   1.967
 3798TIP3   OH211336   7.423   1.070   6.387
 3798TIP3    H111337   7.374   1.151   6.397
 3798TIP3    H211338   7.444   1.044   6.477
 3799TIP3   OH211339   7.697   3.386   1.313
 3799TIP3    H111340   7.635   3.370   1.242
 3799TIP3    H211341   7.672   3.325   1.382
 3800TIP3   OH211342   7.406   4.518   0.081
 3800TIP3    H111343   7.415   4.574   0.004
 3800TIP3    H211344   7.468   4.447   0.067
 3801TIP3   OH211345   3.463   1.586   5.207
 3801TIP3    H111346   3.541   1.539   5.178
 3801TIP3    H211347   3.446   1.552   5.295
 3802TIP3   OH211348   3.521   3.961   0.907
 3802TIP3    H111349   3.572   4.010   0.972
 3802TIP3    H211350   3.561   3.983   0.823
 3803TIP3   OH211351   7.520   4.945   5.674
 3803TIP3    H111352   7.612   4.969   5.688
 3803TIP3    H211353   7.515   4.853   5.701
 3804TIP3   OH211354   6.148   7.628   5.057
 3804TIP3    H111355   6.066   7.616   5.009
 3804TIP3    H211356   6.126   7.604   5.147
 3805TIP3   OH211357   8.136   0.209   3.301
 3805TIP3    H111358   8.143   0.296   3.262
 3805TIP3    H211359   8.183   0.152   3.240
 3806TIP3   OH211360   5.506   6.831   2.818
 3806TIP3    H111361   5.546   6.805   2.735
 3806TIP3    H211362   5.553   6.779   2.883
 3807TIP3   OH211363   6.310   4.906   3.494
 3807TIP3    H111364   6.351   4.887   3.409
 3807TIP3    H211365   6.333   4.997   3.511
 3808TIP3   OH211366   1.956   7.398   6.833
 3808TIP3    H111367   1.940   7.318   6.782
 3808TIP3    H211368   1.913   7.381   6.917
 3809TIP3   OH211369   6.354   7.402   4.751
 3809TIP3    H111370   6.426   7.383   4.691
 3809TIP3    H211371   6.394   7.405   4.838
 3810TIP3   OH211372   8.093   6.771   1.260
 3810TIP3    H111373   8.157   6.809   1.201
 3810TIP3    H211374   8.144   6.733   1.332
 3811TIP3   OH211375   6.942   2.358   3.365
 3811TIP3    H111376   7.021   2.407   3.386
 3811TIP3    H211377   6.950   2.338   3.271
 3812TIP3   OH211378   7.956   1.884   3.703
 3812TIP3    H111379   7.910   1.916   3.625
 3812TIP3    H211380   8.029   1.832   3.668
 3813TIP3   OH211381   1.745   4.565   0.993
 3813TIP3    H111382   1.781   4.476   0.994
 3813TIP3    H211383   1.821   4.622   0.984
 3814TIP3   OH211384   7.698   7.303   5.163
 3814TIP3    H111385   7.695   7.358   5.242
 3814TIP3    H211386   7.609   7.270   5.154
 3815TIP3   OH211387   7.750   7.562   4.879
 3815TIP3    H111388   7.666   7.600   4.905
 3815TIP3    H211389   7.727   7.476   4.843
 3816TIP3   OH211390   6.320   0.930   1.269
 3816TIP3    H111391   6.320   0.986   1.191
 3816TIP3    H211392   6.409   0.935   1.303
 3817TIP3   OH211393   4.796   3.746   1.616
 3817TIP3    H111394   4.774   3.694   1.693
 3817TIP3    H211395   4.711   3.776   1.583
 3818TIP3   OH211396   6.631   3.905   3.082
 3818TIP3    H111397   6.657   3.902   3.174
 3818TIP3    H211398   6.535   3.900   3.084
 3819TIP3   OH211399   4.698   0.428   3.341
 3819TIP3    H111400   4.720   0.517   3.313
 3819TIP3    H211401   4.652   0.390   3.265
 3820TIP3   OH211402   0.406   6.120   5.506
 3820TIP3    H111403   0.497   6.097   5.490
 3820TIP3    H211404   0.377   6.059   5.574
 3821TIP3   OH211405   5.543   2.105   2.661
 3821TIP3    H111406   5.589   2.189   2.653
 3821TIP3    H211407   5.612   2.041   2.675
 3822TIP3   OH211408   5.896   1.100   3.151
 3822TIP3    H111409   5.829   1.164   3.127
 3822TIP3    H211410   5.922   1.125   3.240
 3823TIP3   OH211411   3.861   3.574   2.636
 3823TIP3    H111412   3.831   3.645   2.579
 3823TIP3    H211413   3.891   3.619   2.715
 3824TIP3   OH211414   3.436   4.887   1.951
 3824TIP3    H111415   3.503   4.844   1.898
 3824TIP3    H211416   3.453   4.980   1.940
 3825TIP3   OH211417   7.730   4.055   5.483
 3825TIP3    H111418   7.747   3.995   5.556
 3825TIP3    H211419   7.727   4.142   5.524
 3826TIP3   OH211420   1.216   2.384   0.344
 3826TIP3    H111421   1.207   2.445   0.416
 3826TIP3    H211422   1.246   2.302   0.385
 3827TIP3   OH211423   4.387   2.359   1.993
 3827TIP3    H111424   4.444   2.436   1.994
 3827TIP3    H211425   4.336   2.368   1.913
 3828TIP3   OH211426   4.126   6.937   2.953
 3828TIP3    H111427   4.078   6.882   2.891
 3828TIP3    H211428   4.133   6.884   3.032
 3829TIP3   OH211429   5.866   0.571   4.614
 3829TIP3    H111430   5.893   0.486   4.582
 3829TIP3    H211431   5.943   0.605   4.660
 3830TIP3   OH211432   3.059   2.247   1.517
 3830TIP3    H111433   3.062   2.338   1.547
 3830TIP3    H211434   3.149   2.226   1.494
 3831TIP3   OH211435   7.175   7.013   4.925
 3831TIP3    H111436   7.162   6.969   5.009
 3831TIP3    H211437   7.255   6.974   4.890
 3832TIP3   OH211438   4.993   5.271   6.097
 3832TIP3    H111439   5.051   5.346   6.112
 3832TIP3    H211440   4.913   5.310   6.062
 3833TIP3   OH211441   0.953   5.507   3.317
 3833TIP3    H111442   1.002   5.587   3.302
 3833TIP3    H211443   0.933   5.508   3.411
 3834TIP3   OH211444   4.877   4.043   6.540
 3834TIP3    H111445   4.862   3.951   6.561
 3834TIP3    H211446   4.856   4.090   6.621
 3835TIP3   OH211447   3.632   5.878   2.727
 3835TIP3    H111448   3.715   5.925   2.734
 3835TIP3    H211449   3.654   5.800   2.675
 3836TIP3   OH211450   5.995   5.303   6.559
 3836TIP3    H111451   5.957   5.303   6.647
 3836TIP3    H211452   5.922   5.279   6.502
 3837TIP3   OH211453   1.302   4.215   5.926
 3837TIP3    H111454   1.234   4.276   5.898
 3837TIP3    H211455   1.381   4.269   5.933
 3838TIP3   OH211456   2.512   3.450   2.171
 3838TIP3    H111457   2.563   3.369   2.179
 3838TIP3    H211458   2.536   3.502   2.248
 3839TIP3   OH211459   2.168   5.922   1.969
 3839TIP3    H111460   2.201   6.011   1.974
 3839TIP3    H211461   2.154   5.905   1.876
 3840TIP3   OH211462   2.599   5.479   0.081
 3840TIP3    H111463   2.606   5.574   0.086
 3840TIP3    H211464   2.679   5.452   0.036
 3841TIP3   OH211465   8.001   4.034   6.745
 3841TIP3    H111466   7.979   3.981   6.668
 3841TIP3    H211467   7.922   4.032   6.798
 3842TIP3   OH211468   5.094   5.800   3.686
 3842TIP3    H111469   5.156   5.765   3.750
 3842TIP3    H211470   5.079   5.891   3.713
 3843TIP3   OH211471   7.568   2.821   2.739
 3843TIP3    H111472   7.636   2.887   2.724
 3843TIP3    H211473   7.542   2.794   2.651
 3844TIP3   OH211474   1.999   6.803   4.534
 3844TIP3    H111475   2.016   6.847   4.451
 3844TIP3    H211476   2.080   6.813   4.584
 3845TIP3   OH211477   6.217   0.928   4.417
 3845TIP3    H111478   6.220   0.996   4.349
 3845TIP3    H211479   6.165   0.858   4.377
 3846TIP3   OH211480   2.599   5.698   3.372
 3846TIP3    H111481   2.541   5.679   3.445
 3846TIP3    H211482   2.646   5.617   3.357
 3847TIP3   OH211483   7.824   7.455   0.760
 3847TIP3    H111484   7.876   7.447   0.680
 3847TIP3    H211485   7.832   7.371   0.803
 3848TIP3   OH211486   5.149   2.898   1.364
 3848TIP3    H111487   5.222   2.948   1.402
 3848TIP3    H211488   5.142   2.820   1.418
 3849TIP3   OH211489   6.681   7.341   6.049
 3849TIP3    H111490   6.701   7.430   6.078
 3849TIP3    H211491   6.704   7.341   5.956
 3850TIP3   OH211492   7.073   0.732   3.366
 3850TIP3    H111493   7.099   0.652   3.320
 3850TIP3    H211494   7.039   0.701   3.450
 3851TIP3   OH211495   2.204   3.460   4.286
 3851TIP3    H111496   2.207   3.390   4.352
 3851TIP3    H211497   2.268   3.434   4.220
 3852TIP3   OH211498   5.983   7.542   6.429
 3852TIP3    H111499   5.999   7.448   6.426
 3852TIP3    H211500   6.071   7.580   6.439
 3853TIP3   OH211501   2.568   2.587   3.047
 3853TIP3    H111502   2.555   2.495   3.022
 3853TIP3    H211503   2.481   2.616   3.076
 3854TIP3   OH211504   0.710   2.839   4.378
 3854TIP3    H111505   0.665   2.915   4.342
 3854TIP3    H211506   0.647   2.768   4.372
 3855TIP3   OH211507   4.451   3.919   3.865
 3855TIP3    H111508   4.537   3.879   3.853
 3855TIP3    H211509   4.393   3.865   3.811
 3856TIP3   OH211510   0.213   6.855   2.231
 3856TIP3    H111511   0.176   6.937   2.263
 3856TIP3    H211512   0.267   6.880   2.156
 3857TIP3   OH211513   4.379   2.821   2.677
 3857TIP3    H111514   4.461   2.862   2.651
 3857TIP3    H211515   4.382   2.733   2.638
 3858TIP3   OH211516   8.021   4.419   1.497
 3858TIP3    H111517   8.049   4.510   1.510
 3858TIP3    H211518   8.024   4.407   1.402
 3859TIP3   OH211519   0.601   3.021   5.774
 3859TIP3    H111520   0.664   3.091   5.790
 3859TIP3    H211521   0.648   2.958   5.719
 3860TIP3   OH211522   6.000   5.650   1.493
 3860TIP3    H111523   6.059   5.657   1.418
 3860TIP3    H211524   6.029   5.718   1.553
 3861TIP3   OH211525   4.011   5.696   6.179
 3861TIP3    H111526   4.076   5.670   6.114
 3861TIP3    H211527   3.938   5.636   6.165
 3862TIP3   OH211528   1.760   3.851   4.891
 3862TIP3    H111529   1.713   3.928   4.922
 3862TIP3    H211530   1.691   3.785   4.878
 3863TIP3   OH211531   3.944   6.289   2.275
 3863TIP3    H111532   3.985   6.203   2.286
 3863TIP3    H211533   4.005   6.338   2.219
 3864TIP3   OH211534   6.139   7.719   1.836
 3864TIP3    H111535   6.184   7.686   1.914
 3864TIP3    H211536   6.082   7.789   1.868
 3865TIP3   OH211537   4.062   5.373   1.680
 3865TIP3    H111538   4.120   5.317   1.629
 3865TIP3    H211539   4.014   5.313   1.737
 3866TIP3   OH211540   6.739   4.134   1.821
 3866TIP3    H111541   6.796   4.203   1.786
 3866TIP3    H211542   6.703   4.091   1.744
 3867TIP3   OH211543   7.057   2.270   1.954
 3867TIP3    H111544   7.055   2.202   2.022
 3867TIP3    H211545   7.129   2.244   1.897
 3868TIP3   OH211546   2.501   7.616   0.652
 3868TIP3    H111547   2.476   7.559   0.724
 3868TIP3    H211548   2.587   7.651   0.677
 3869TIP3   OH211549   7.735   0.097   3.666
 3869TIP3    H111550   7.742   0.048   3.584
 3869TIP3    H211551   7.645   0.128   3.668
 3870TIP3   OH211552   0.775   1.765   0.854
 3870TIP3    H111553   0.865   1.798   0.853
 3870TIP3    H211554   0.768   1.718   0.938
 3871TIP3   OH211555   2.546   3.959   5.056
 3871TIP3    H111556   2.636   3.966   5.087
 3871TIP3    H211557   2.528   3.865   5.056
 3872TIP3   OH211558   2.068   1.223   0.983
 3872TIP3    H111559   2.115   1.153   1.029
 3872TIP3    H211560   2.136   1.286   0.959
 3873TIP3   OH211561   8.228   0.503   3.767
 3873TIP3    H111562   8.187   0.435   3.715
 3873TIP3    H211563   8.172   0.511   3.845
 3874TIP3   OH211564   3.828   0.587   2.813
 3874TIP3    H111565   3.848   0.584   2.720
 3874TIP3    H211566   3.770   0.513   2.828
 3875TIP3   OH211567   0.823   1.774   6.250
 3875TIP3    H111568   0.894   1.837   6.236
 3875TIP3    H211569   0.757   1.823   6.299
 3876TIP3   OH211570   1.340   6.505   3.594
 3876TIP3    H111571   1.281   6.455   3.538
 3876TIP3    H211572   1.290   6.582   3.619
 3877TIP3   OH211573   8.167   3.490   0.930
 3877TIP3    H111574   8.194   3.427   0.997
 3877TIP3    H211575   8.248   3.513   0.885
 3878TIP3   OH211576   1.017   6.760   0.230
 3878TIP3    H111577   1.030   6.842   0.183
 3878TIP3    H211578   0.941   6.720   0.187
 3879TIP3   OH211579   7.510   0.760   6.096
 3879TIP3    H111580   7.550   0.844   6.072
 3879TIP3    H211581   7.418   0.770   6.075
 3880TIP3   OH211582   6.891   7.580   1.744
 3880TIP3    H111583   6.862   7.490   1.728
 3880TIP3    H211584   6.812   7.633   1.731
 3881TIP3   OH211585   1.919   7.589   2.716
 3881TIP3    H111586   1.891   7.525   2.782
 3881TIP3    H211587   1.838   7.630   2.687
 3882TIP3   OH211588   3.194   2.190   4.331
 3882TIP3    H111589   3.225   2.100   4.344
 3882TIP3    H211590   3.174   2.195   4.237
 3883TIP3   OH211591   3.160   1.072   0.918
 3883TIP3    H111592   3.175   1.038   0.830
 3883TIP3    H211593   3.069   1.048   0.937
 3884TIP3   OH211594   5.890   4.452   4.339
 3884TIP3    H111595   5.877   4.474   4.431
 3884TIP3    H211596   5.975   4.490   4.317
 3885TIP3   OH211597   3.463   2.659   3.916
 3885TIP3    H111598   3.453   2.596   3.987
 3885TIP3    H211599   3.483   2.605   3.839
 3886TIP3   OH211600   5.643   7.675   2.806
 3886TIP3    H111601   5.717   7.658   2.864
 3886TIP3    H211602   5.637   7.771   2.802
 3887TIP3   OH211603   7.224   2.843   4.372
 3887TIP3    H111604   7.208   2.936   4.390
 3887TIP3    H211605   7.225   2.802   4.458
 3888TIP3   OH211606   7.501   2.307   1.913
 3888TIP3    H111607   7.453   2.333   1.992
 3888TIP3    H211608   7.501   2.385   1.858
 3889TIP3   OH211609   1.738   5.006   1.717
 3889TIP3    H111610   1.794   5.015   1.794
 3889TIP3    H211611   1.652   5.036   1.747
 3890TIP3   OH211612   3.939   7.557   0.263
 3890TIP3    H111613   3.935   7.464   0.240
 3890TIP3    H211614   3.899   7.601   0.188
 3891TIP3   OH211615   7.054   0.289   5.706
 3891TIP3    H111616   7.065   0.370   5.656
 3891TIP3    H211617   7.050   0.318   5.797
 3892TIP3   OH211618   8.018   1.110   5.770
 3892TIP3    H111619   7.958   1.064   5.829
 3892TIP3    H211620   7.962   1.140   5.698
 3893TIP3   OH211621   6.615   1.871   1.927
 3893TIP3    H111622   6.656   1.785   1.918
 3893TIP3    H211623   6.603   1.902   1.837
 3894TIP3   OH211624   6.160   2.676   2.157
 3894TIP3    H111625   6.096   2.722   2.210
 3894TIP3    H211626   6.112   2.601   2.121
 3895TIP3   OH211627   5.523  -0.005   1.960
 3895TIP3    H111628   5.510   0.083   1.997
 3895TIP3    H211629   5.618  -0.015   1.957
 3896TIP3   OH211630   3.672   3.825   0.544
 3896TIP3    H111631   3.647   3.829   0.451
 3896TIP3    H211632   3.755   3.777   0.544
 3897TIP3   OH211633   0.226   1.784   3.915
 3897TIP3    H111634   0.132   1.793   3.927
 3897TIP3    H211635   0.238   1.768   3.822
 3898TIP3   OH211636   7.251   0.512   3.641
 3898TIP3    H111637   7.321   0.484   3.582
 3898TIP3    H211638   7.296   0.562   3.709
 3899TIP3   OH211639   6.349   0.683   0.352
 3899TIP3    H111640   6.420   0.727   0.306
 3899TIP3    H211641   6.286   0.752   0.372
 3900TIP3   OH211642   6.513   5.633   0.773
 3900TIP3    H111643   6.500   5.599   0.861
 3900TIP3    H211644   6.597   5.595   0.745
 3901TIP3   OH211645   3.924   4.301   6.449
 3901TIP3    H111646   3.869   4.284   6.372
 3901TIP3    H211647   3.975   4.221   6.460
 3902TIP3   OH211648   1.110   0.773   1.263
 3902TIP3    H111649   1.042   0.787   1.197
 3902TIP3    H211650   1.192   0.784   1.215
 3903TIP3   OH211651   1.408   2.065   1.732
 3903TIP3    H111652   1.462   2.138   1.763
 3903TIP3    H211653   1.462   1.987   1.747
 3904TIP3   OH211654   6.982   6.883   0.866
 3904TIP3    H111655   6.899   6.884   0.914
 3904TIP3    H211656   7.046   6.921   0.927
 3905TIP3   OH211657   6.040   6.680   4.670
 3905TIP3    H111658   6.098   6.604   4.660
 3905TIP3    H211659   6.091   6.754   4.639
 3906TIP3   OH211660   2.992   6.858   4.947
 3906TIP3    H111661   2.991   6.904   4.863
 3906TIP3    H211662   2.902   6.862   4.978
 3907TIP3   OH211663   2.832   7.632   1.615
 3907TIP3    H111664   2.810   7.725   1.627
 3907TIP3    H211665   2.756   7.585   1.650
 3908TIP3   OH211666   6.561   2.870   2.065
 3908TIP3    H111667   6.567   2.795   2.006
 3908TIP3    H211668   6.594   2.837   2.149
 3909TIP3   OH211669   4.923   0.216   6.310
 3909TIP3    H111670   4.840   0.170   6.314
 3909TIP3    H211671   4.964   0.185   6.229
 3910TIP3   OH211672   7.735   6.317   2.220
 3910TIP3    H111673   7.737   6.244   2.158
 3910TIP3    H211674   7.781   6.285   2.297
 3911TIP3   OH211675   2.132   7.842   1.614
 3911TIP3    H111676   2.140   7.795   1.697
 3911TIP3    H211677   2.197   7.911   1.619
 3912TIP3   OH211678   4.704   0.554   1.144
 3912TIP3    H111679   4.734   0.607   1.218
 3912TIP3    H211680   4.699   0.617   1.071
 3913TIP3   OH211681   7.761   0.388   0.176
 3913TIP3    H111682   7.740   0.449   0.246
 3913TIP3    H211683   7.754   0.439   0.096
 3914TIP3   OH211684   0.069   1.609   2.054
 3914TIP3    H111685   0.100   1.542   2.115
 3914TIP3    H211686  -0.007   1.570   2.011
 3915TIP3   OH211687   4.911   0.327   1.450
 3915TIP3    H111688   4.834   0.343   1.504
 3915TIP3    H211689   4.963   0.264   1.500
 3916TIP3   OH211690   2.735   0.088   1.225
 3916TIP3    H111691   2.790   0.027   1.273
 3916TIP3    H211692   2.691   0.139   1.293
 3917TIP3   OH211693   7.481   0.616   5.034
 3917TIP3    H111694   7.501   0.703   5.000
 3917TIP3    H211695   7.519   0.556   4.970
 3918TIP3   OH211696   2.786   4.838   3.071
 3918TIP3    H111697   2.862   4.789   3.040
 3918TIP3    H211698   2.722   4.770   3.095
 3919TIP3   OH211699   7.405   1.382   4.229
 3919TIP3    H111700   7.353   1.306   4.201
 3919TIP3    H211701   7.467   1.346   4.293
 3920TIP3   OH211702   1.481   3.621   5.219
 3920TIP3    H111703   1.444   3.597   5.134
 3920TIP3    H211704   1.566   3.660   5.199
 3921TIP3   OH211705   0.128   7.166   5.646
 3921TIP3    H111706   0.106   7.244   5.697
 3921TIP3    H211707   0.189   7.117   5.702
 3922TIP3   OH211708   2.220   1.234   1.708
 3922TIP3    H111709   2.144   1.218   1.652
 3922TIP3    H211710   2.230   1.330   1.707
 3923TIP3   OH211711   0.809   3.272   2.706
 3923TIP3    H111712   0.890   3.293   2.753
 3923TIP3    H211713   0.803   3.177   2.710
 3924TIP3   OH211714   2.077   6.743   2.551
 3924TIP3    H111715   2.073   6.770   2.643
 3924TIP3    H211716   2.037   6.816   2.503
 3925TIP3   OH211717   6.904   4.942   0.857
 3925TIP3    H111718   6.961   4.930   0.782
 3925TIP3    H211719   6.954   4.904   0.931
 3926TIP3   OH211720   6.732   0.141   6.638
 3926TIP3    H111721   6.781   0.132   6.557
 3926TIP3    H211722   6.770   0.076   6.697
 3927TIP3   OH211723   5.694   3.064   0.934
 3927TIP3    H111724   5.739   3.070   1.019
 3927TIP3    H211725   5.603   3.047   0.957
 3928TIP3   OH211726   4.524   4.145   4.660
 3928TIP3    H111727   4.505   4.069   4.606
 3928TIP3    H211728   4.566   4.208   4.601
 3929TIP3   OH211729   3.035   2.058   1.185
 3929TIP3    H111730   3.002   2.138   1.226
 3929TIP3    H211731   2.990   1.988   1.230
 3930TIP3   OH211732   5.565   6.818   2.544
 3930TIP3    H111733   5.544   6.897   2.493
 3930TIP3    H211734   5.645   6.785   2.503
 3931TIP3   OH211735   5.986   1.310   1.295
 3931TIP3    H111736   5.909   1.312   1.238
 3931TIP3    H211737   6.059   1.293   1.236
 3932TIP3   OH211738   5.957   7.323   6.649
 3932TIP3    H111739   5.988   7.410   6.675
 3932TIP3    H211740   5.896   7.297   6.718
 3933TIP3   OH211741   2.303   2.483   2.386
 3933TIP3    H111742   2.236   2.437   2.436
 3933TIP3    H211743   2.383   2.434   2.403
 3934TIP3   OH211744   1.041   0.647   5.366
 3934TIP3    H111745   1.106   0.636   5.297
 3934TIP3    H211746   1.090   0.686   5.439
 3935TIP3   OH211747   1.644   5.808   4.256
 3935TIP3    H111748   1.638   5.880   4.318
 3935TIP3    H211749   1.673   5.733   4.308
 3936TIP3   OH211750   3.234   1.207   0.133
 3936TIP3    H111751   3.182   1.275   0.091
 3936TIP3    H211752   3.239   1.234   0.225
 3937TIP3   OH211753   5.281   4.472   3.611
 3937TIP3    H111754   5.310   4.544   3.555
 3937TIP3    H211755   5.349   4.465   3.678
 3938TIP3   OH211756   7.237   6.037   0.866
 3938TIP3    H111757   7.184   6.036   0.945
 3938TIP3    H211758   7.265   6.128   0.857
 3939TIP3   OH211759   5.658   3.949   4.710
 3939TIP3    H111760   5.661   4.041   4.734
 3939TIP3    H211761   5.589   3.943   4.644
 3940TIP3   OH211762   0.849   5.737   5.716
 3940TIP3    H111763   0.807   5.662   5.673
 3940TIP3    H211764   0.940   5.710   5.728
 3941TIP3   OH211765   2.034   2.271   1.854
 3941TIP3    H111766   1.986   2.320   1.921
 3941TIP3    H211767   2.126   2.280   1.879
 3942TIP3   OH211768   7.160   2.304   5.058
 3942TIP3    H111769   7.227   2.237   5.070
 3942TIP3    H211770   7.200   2.385   5.089
 3943TIP3   OH211771   7.937   5.213   2.907
 3943TIP3    H111772   7.849   5.187   2.882
 3943TIP3    H211773   7.952   5.170   2.991
 3944TIP3   OH211774   1.818   4.238   2.476
 3944TIP3    H111775   1.849   4.269   2.391
 3944TIP3    H211776   1.729   4.207   2.460
 3945TIP3   OH211777   5.370   4.099   2.077
 3945TIP3    H111778   5.350   4.144   2.159
 3945TIP3    H211779   5.372   4.168   2.011
 3946TIP3   OH211780   5.346   6.909   4.038
 3946TIP3    H111781   5.354   6.938   3.947
 3946TIP3    H211782   5.257   6.934   4.063
 3947TIP3   OH211783   7.329   7.868   4.956
 3947TIP3    H111784   7.266   7.796   4.962
 3947TIP3    H211785   7.388   7.841   4.885
 3948TIP3   OH211786   5.355   0.574   4.388
 3948TIP3    H111787   5.432   0.624   4.413
 3948TIP3    H211788   5.390   0.490   4.358
 3949TIP3   OH211789   2.493   5.776   4.667
 3949TIP3    H111790   2.538   5.702   4.626
 3949TIP3    H211791   2.461   5.742   4.751
 3950TIP3   OH211792   7.997   4.191   5.595
 3950TIP3    H111793   8.064   4.172   5.661
 3950TIP3    H211794   7.916   4.154   5.632
 3951TIP3   OH211795   8.166   4.306   2.512
 3951TIP3    H111796   8.124   4.260   2.440
 3951TIP3    H211797   8.120   4.390   2.518
 3952TIP3   OH211798   0.792   2.962   2.717
 3952TIP3    H111799   0.829   2.874   2.721
 3952TIP3    H211800   0.766   2.982   2.807
 3953TIP3   OH211801   2.428   3.392   4.092
 3953TIP3    H111802   2.499   3.362   4.148
 3953TIP3    H211803   2.443   3.485   4.080
 3954TIP3   OH211804   6.685   5.981   5.740
 3954TIP3    H111805   6.657   5.891   5.722
 3954TIP3    H211806   6.722   6.011   5.657
 3955TIP3   OH211807   0.187   5.544   5.210
 3955TIP3    H111808   0.171   5.471   5.151
 3955TIP3    H211809   0.259   5.593   5.169
 3956TIP3   OH211810   7.095   1.670   1.711
 3956TIP3    H111811   7.008   1.634   1.695
 3956TIP3    H211812   7.152   1.594   1.719
 3957TIP3   OH211813   0.666   3.547   5.406
 3957TIP3    H111814   0.675   3.460   5.445
 3957TIP3    H211815   0.602   3.536   5.336
 3958TIP3   OH211816   2.851   0.559   0.542
 3958TIP3    H111817   2.921   0.590   0.599
 3958TIP3    H211818   2.771   0.580   0.590
 3959TIP3   OH211819   8.233   7.476   6.723
 3959TIP3    H111820   8.167   7.540   6.750
 3959TIP3    H211821   8.261   7.435   6.804
 3960TIP3   OH211822   1.987   0.573   5.081
 3960TIP3    H111823   2.018   0.539   4.997
 3960TIP3    H211824   2.051   0.640   5.106
 3961TIP3   OH211825   6.117   1.899   3.312
 3961TIP3    H111826   6.143   1.927   3.400
 3961TIP3    H211827   6.133   1.976   3.257
 3962TIP3   OH211828   4.965   5.462   1.880
 3962TIP3    H111829   5.018   5.514   1.819
 3962TIP3    H211830   5.028   5.424   1.941
 3963TIP3   OH211831   4.140   5.263   6.794
 3963TIP3    H111832   4.147   5.334   6.730
 3963TIP3    H211833   4.046   5.256   6.812
 3964TIP3   OH211834   6.155   4.567   2.678
 3964TIP3    H111835   6.149   4.521   2.762
 3964TIP3    H211836   6.064   4.588   2.655
 3965TIP3   OH211837   5.641   0.311   0.294
 3965TIP3    H111838   5.673   0.292   0.382
 3965TIP3    H211839   5.721   0.330   0.244
 3966TIP3   OH211840   7.063   0.482   4.676
 3966TIP3    H111841   7.026   0.475   4.588
 3966TIP3    H211842   7.061   0.392   4.709
 3967TIP3   OH211843   7.732   3.198   4.190
 3967TIP3    H111844   7.760   3.269   4.132
 3967TIP3    H211845   7.813   3.153   4.213
 3968TIP3   OH211846   7.577   4.220   1.973
 3968TIP3    H111847   7.592   4.161   2.047
 3968TIP3    H211848   7.664   4.255   1.953
 3969TIP3   OH211849   6.789   2.263   5.678
 3969TIP3    H111850   6.811   2.311   5.598
 3969TIP3    H211851   6.844   2.302   5.745
 3970TIP3   OH211852   5.492   6.396   2.036
 3970TIP3    H111853   5.418   6.457   2.044
 3970TIP3    H211854   5.462   6.330   1.974
 3971TIP3   OH211855   5.616   2.697   6.551
 3971TIP3    H111856   5.681   2.668   6.616
 3971TIP3    H211857   5.566   2.618   6.531
 3972TIP3   OH211858   1.633   1.102   1.578
 3972TIP3    H111859   1.575   1.042   1.624
 3972TIP3    H211860   1.722   1.072   1.599
 3973TIP3   OH211861   4.730   3.008   5.442
 3973TIP3    H111862   4.812   2.993   5.489
 3973TIP3    H211863   4.732   3.101   5.418
 3974TIP3   OH211864   2.237   0.264   5.123
 3974TIP3    H111865   2.245   0.182   5.075
 3974TIP3    H211866   2.161   0.307   5.083
 3975TIP3   OH211867   0.101   7.116   1.666
 3975TIP3    H111868   0.075   7.174   1.595
 3975TIP3    H211869   0.043   7.140   1.739
 3976TIP3   OH211870   2.631   0.247   6.137
 3976TIP3    H111871   2.652   0.156   6.154
 3976TIP3    H211872   2.544   0.245   6.097
 3977TIP3   OH211873   1.947   6.374   3.461
 3977TIP3    H111874   2.012   6.434   3.423
 3977TIP3    H211875   1.940   6.401   3.552
 3978TIP3   OH211876   2.974   5.007   4.723
 3978TIP3    H111877   2.922   4.965   4.654
 3978TIP3    H211878   2.988   4.937   4.788
 3979TIP3   OH211879   1.509   2.565   5.980
 3979TIP3    H111880   1.585   2.615   6.011
 3979TIP3    H211881   1.547   2.487   5.939
 3980TIP3   OH211882   7.218   6.590   0.691
 3980TIP3    H111883   7.242   6.635   0.772
 3980TIP3    H211884   7.220   6.658   0.624
 3981TIP3   OH211885   1.354   4.712   2.493
 3981TIP3    H111886   1.364   4.622   2.461
 3981TIP3    H211887   1.339   4.764   2.414
 3982TIP3   OH211888   0.169   4.192   2.521
 3982TIP3    H111889   0.172   4.196   2.616
 3982TIP3    H211890   0.075   4.190   2.500
 3983TIP3   OH211891   2.559   0.073   0.035
 3983TIP3    H111892   2.531   0.000  -0.020
 3983TIP3    H211893   2.649   0.052   0.059
 3984TIP3   OH211894   0.839   0.292   6.247
 3984TIP3    H111895   0.928   0.256   6.259
 3984TIP3    H211896   0.842   0.336   6.163
 3985TIP3   OH211897   1.361   1.715   2.071
 3985TIP3    H111898   1.377   1.808   2.088
 3985TIP3    H211899   1.448   1.675   2.071
 3986TIP3   OH211900   3.747   4.726   2.285
 3986TIP3    H111901   3.772   4.713   2.377
 3986TIP3    H211902   3.731   4.638   2.251
 3987TIP3   OH211903   7.898   7.438   0.493
 3987TIP3    H111904   7.894   7.453   0.398
 3987TIP3    H211905   7.966   7.372   0.504
 3988TIP3   OH211906   5.382   6.745   6.350
 3988TIP3    H111907   5.386   6.761   6.256
 3988TIP3    H211908   5.471   6.760   6.381
 3989TIP3   OH211909   2.283   5.129   0.167
 3989TIP3    H111910   2.372   5.161   0.156
 3989TIP3    H211911   2.291   5.051   0.222
 3990TIP3   OH211912   3.552   6.870   2.558
 3990TIP3    H111913   3.492   6.851   2.630
 3990TIP3    H211914   3.561   6.965   2.559
 3991TIP3   OH211915   1.708   1.535   6.289
 3991TIP3    H111916   1.708   1.452   6.336
 3991TIP3    H211917   1.617   1.564   6.290
 3992TIP3   OH211918   5.448   4.447   4.961
 3992TIP3    H111919   5.449   4.512   4.891
 3992TIP3    H211920   5.502   4.485   5.030
 3993TIP3   OH211921   6.503   5.874   4.891
 3993TIP3    H111922   6.461   5.894   4.807
 3993TIP3    H211923   6.457   5.929   4.954
 3994TIP3   OH211924   4.876   2.988   6.354
 3994TIP3    H111925   4.904   2.899   6.373
 3994TIP3    H211926   4.781   2.986   6.365
 3995TIP3   OH211927   1.855   4.759   3.812
 3995TIP3    H111928   1.772   4.743   3.767
 3995TIP3    H211929   1.832   4.758   3.905
 3996TIP3   OH211930   1.750   1.513   2.423
 3996TIP3    H111931   1.737   1.474   2.336
 3996TIP3    H211932   1.805   1.450   2.469
 3997TIP3   OH211933   7.482   0.079   6.224
 3997TIP3    H111934   7.507   0.063   6.315
 3997TIP3    H211935   7.564   0.068   6.175
 3998TIP3   OH211936   4.900   5.614   0.722
 3998TIP3    H111937   4.810   5.641   0.706
 3998TIP3    H211938   4.943   5.693   0.754
 3999TIP3   OH211939   5.914   1.089   6.704
 3999TIP3    H111940   5.918   0.999   6.736
 3999TIP3    H211941   5.978   1.137   6.757
 4000TIP3   OH211942   4.989   3.197   0.712
 4000TIP3    H111943   4.960   3.280   0.749
 4000TIP3    H211944   4.946   3.130   0.765
 4001TIP3   OH211945   0.656   5.611   2.386
 4001TIP3    H111946   0.672   5.544   2.320
 4001TIP3    H211947   0.660   5.694   2.338
 4002TIP3   OH211948   3.398   7.013   0.571
 4002TIP3    H111949   3.393   6.918   0.576
 4002TIP3    H211950   3.459   7.038   0.640
 4003TIP3   OH211951   1.706   1.839   3.205
 4003TIP3    H111952   1.775   1.781   3.239
 4003TIP3    H211953   1.626   1.808   3.246
 4004TIP3   OH211954   1.472   1.058   5.229
 4004TIP3    H111955   1.423   1.046   5.148
 4004TIP3    H211956   1.559   1.087   5.200
 4005TIP3   OH211957   4.797   4.589   4.948
 4005TIP3    H111958   4.802   4.548   4.861
 4005TIP3    H211959   4.704   4.606   4.961
 4006TIP3   OH211960   2.176   6.235   5.766
 4006TIP3    H111961   2.237   6.163   5.749
 4006TIP3    H211962   2.091   6.192   5.775
 4007TIP3   OH211963   3.091   2.624   5.883
 4007TIP3    H111964   3.074   2.688   5.814
 4007TIP3    H211965   3.182   2.597   5.869
 4008TIP3   OH211966   5.446   4.640   4.743
 4008TIP3    H111967   5.489   4.705   4.688
 4008TIP3    H211968   5.354   4.644   4.718
 4009TIP3   OH211969   6.830   6.696   5.105
 4009TIP3    H111970   6.847   6.684   5.198
 4009TIP3    H211971   6.824   6.607   5.070
 4010TIP3   OH211972   7.635   5.632   1.243
 4010TIP3    H111973   7.570   5.690   1.203
 4010TIP3    H211974   7.717   5.682   1.240
 4011TIP3   OH211975   3.138   0.463   0.290
 4011TIP3    H111976   3.178   0.534   0.341
 4011TIP3    H211977   3.180   0.383   0.321
 4012TIP3   OH211978   0.826   2.527   0.959
 4012TIP3    H111979   0.780   2.598   0.914
 4012TIP3    H211980   0.918   2.544   0.941
 4013TIP3   OH211981   1.955   1.220   2.304
 4013TIP3    H111982   2.030   1.213   2.245
 4013TIP3    H211983   1.936   1.129   2.328
 4014TIP3   OH211984   4.844   0.655   0.473
 4014TIP3    H111985   4.844   0.733   0.528
 4014TIP3    H211986   4.811   0.585   0.530
 4015TIP3   OH211987   0.661   5.271   6.284
 4015TIP3    H111988   0.720   5.313   6.347
 4015TIP3    H211989   0.719   5.241   6.214
 4016TIP3   OH211990   0.718   4.859   3.861
 4016TIP3    H111991   0.778   4.796   3.822
 4016TIP3    H211992   0.692   4.916   3.789
 4017TIP3   OH211993   7.117   1.927   4.932
 4017TIP3    H111994   7.169   2.002   4.904
 4017TIP3    H211995   7.057   1.910   4.859
 4018TIP3   OH211996   7.565   6.104   5.395
 4018TIP3    H111997   7.484   6.057   5.376
 4018TIP3    H211998   7.536   6.194   5.411
 4019TIP3   OH211999   6.070   0.948   5.958
 4019TIP3    H112000   6.161   0.921   5.947
 4019TIP3    H212001   6.026   0.872   5.995
 4020TIP3   OH212002   6.724   0.963   2.935
 4020TIP3    H112003   6.803   1.015   2.951
 4020TIP3    H212004   6.694   0.991   2.848
 4021TIP3   OH212005   4.594   6.802   6.131
 4021TIP3    H112006   4.679   6.846   6.126
 4021TIP3    H212007   4.605   6.725   6.076
 4022TIP3   OH212008   7.556   6.051   3.330
 4022TIP3    H112009   7.584   5.981   3.389
 4022TIP3    H212010   7.619   6.121   3.343
 4023TIP3   OH212011   4.493   1.129   0.937
 4023TIP3    H112012   4.442   1.071   0.993
 4023TIP3    H212013   4.550   1.177   0.997
 4024TIP3   OH212014   7.444   4.736   2.905
 4024TIP3    H112015   7.503   4.709   2.835
 4024TIP3    H212016   7.486   4.704   2.985
 4025TIP3   OH212017   2.164   2.614   6.121
 4025TIP3    H112018   2.121   2.534   6.092
 4025TIP3    H212019   2.219   2.640   6.047
 4026TIP3   OH212020   7.176   7.120   6.667
 4026TIP3    H112021   7.150   7.198   6.715
 4026TIP3    H212022   7.240   7.077   6.723
 4027TIP3   OH212023   4.231   6.088   5.720
 4027TIP3    H112024   4.290   6.015   5.699
 4027TIP3    H212025   4.236   6.145   5.643
 4028TIP3   OH212026   7.694   2.267   3.953
 4028TIP3    H112027   7.659   2.177   3.959
 4028TIP3    H212028   7.674   2.294   3.864
 4029TIP3   OH212029   7.268   2.584   4.312
 4029TIP3    H112030   7.211   2.658   4.291
 4029TIP3    H212031   7.355   2.622   4.321
 4030TIP3   OH212032   1.595   4.536   1.893
 4030TIP3    H112033   1.632   4.501   1.973
 4030TIP3    H212034   1.662   4.595   1.859
 4031TIP3   OH212035   0.319   2.339   4.752
 4031TIP3    H112036   0.322   2.433   4.772
 4031TIP3    H212037   0.305   2.335   4.658
 4032TIP3   OH212038   0.759   1.547   2.421
 4032TIP3    H112039   0.752   1.638   2.391
 4032TIP3    H212040   0.674   1.530   2.463
 4033TIP3   OH212041   2.959   0.039   6.292
 4033TIP3    H112042   2.961   0.102   6.364
 4033TIP3    H212043   2.928   0.089   6.216
 4034TIP3   OH212044   5.704   7.556   1.288
 4034TIP3    H112045   5.777   7.518   1.240
 4034TIP3    H212046   5.719   7.529   1.379
 4035TIP3   OH212047   1.566   2.627   0.374
 4035TIP3    H112048   1.656   2.595   0.381
 4035TIP3    H212049   1.523   2.568   0.312
 4036TIP3   OH212050   5.983   2.683   6.513
 4036TIP3    H112051   5.921   2.616   6.545
 4036TIP3    H212052   6.061   2.633   6.490
 4037TIP3   OH212053   5.423   6.560   2.599
 4037TIP3    H112054   5.466   6.643   2.578
 4037TIP3    H212055   5.448   6.501   2.528
 4038TIP3   OH212056   3.981   7.625   4.730
 4038TIP3    H112057   4.004   7.696   4.670
 4038TIP3    H212058   3.897   7.592   4.696
 4039TIP3   OH212059   5.652   1.925   5.791
 4039TIP3    H112060   5.657   1.890   5.702
 4039TIP3    H212061   5.600   2.005   5.783
 4040TIP3   OH212062   2.068   5.593   1.696
 4040TIP3    H112063   2.051   5.515   1.748
 4040TIP3    H212064   1.981   5.626   1.672
 4041TIP3   OH212065   0.806   6.843   3.746
 4041TIP3    H112066   0.900   6.847   3.729
 4041TIP3    H212067   0.789   6.914   3.808
 4042TIP3   OH212068   1.840   5.206   1.953
 4042TIP3    H112069   1.780   5.248   2.014
 4042TIP3    H212070   1.901   5.158   2.008
 4043TIP3   OH212071   4.290   6.911   1.386
 4043TIP3    H112072   4.314   6.927   1.295
 4043TIP3    H212073   4.196   6.893   1.384
 4044TIP3   OH212074   3.954   3.016   1.238
 4044TIP3    H112075   3.911   3.035   1.155
 4044TIP3    H212076   3.951   3.098   1.286
 4045TIP3   OH212077   7.351   6.673   0.921
 4045TIP3    H112078   7.341   6.734   0.994
 4045TIP3    H212079   7.360   6.587   0.963
 4046TIP3   OH212080   4.006   1.551   2.555
 4046TIP3    H112081   3.923   1.511   2.530
 4046TIP3    H212082   3.982   1.632   2.600
 4047TIP3   OH212083   1.664   1.851   0.546
 4047TIP3    H112084   1.601   1.918   0.518
 4047TIP3    H212085   1.611   1.771   0.552
 4048TIP3   OH212086   5.098   1.005   3.891
 4048TIP3    H112087   5.187   0.997   3.857
 4048TIP3    H212088   5.068   0.914   3.901
 4049TIP3   OH212089   7.943   3.693   2.126
 4049TIP3    H112090   7.990   3.713   2.046
 4049TIP3    H212091   7.999   3.631   2.172
 4050TIP3   OH212092   4.373   0.148   6.578
 4050TIP3    H112093   4.318   0.152   6.656
 4050TIP3    H212094   4.354   0.062   6.540
 4051TIP3   OH212095   4.823   2.482   5.172
 4051TIP3    H112096   4.794   2.393   5.155
 4051TIP3    H212097   4.844   2.484   5.266
 4052TIP3   OH212098   0.920   3.920   0.293
 4052TIP3    H112099   0.966   3.981   0.350
 4052TIP3    H212100   0.990   3.870   0.250
 4053TIP3   OH212101   2.473   5.882   0.684
 4053TIP3    H112102   2.434   5.861   0.768
 4053TIP3    H212103   2.464   5.802   0.632
 4054TIP3   OH212104   2.977   2.041   5.130
 4054TIP3    H112105   2.908   1.977   5.114
 4054TIP3    H212106   3.054   2.006   5.085
 4055TIP3   OH212107   6.530   5.480   2.302
 4055TIP3    H112108   6.580   5.475   2.220
 4055TIP3    H212109   6.516   5.574   2.315
 4056TIP3   OH212110   4.641   7.560   0.297
 4056TIP3    H112111   4.645   7.594   0.386
 4056TIP3    H212112   4.673   7.470   0.304
 4057TIP3   OH212113   2.492   7.037   6.060
 4057TIP3    H112114   2.462   7.066   5.973
 4057TIP3    H212115   2.540   7.112   6.095
 4058TIP3   OH212116   6.744   2.455   0.803
 4058TIP3    H112117   6.692   2.409   0.737
 4058TIP3    H212118   6.789   2.385   0.850
 4059TIP3   OH212119   1.927   4.235   4.370
 4059TIP3    H112120   1.882   4.297   4.314
 4059TIP3    H212121   2.017   4.232   4.336
 4060TIP3   OH212122   6.169   2.019   1.445
 4060TIP3    H112123   6.190   1.927   1.463
 4060TIP3    H212124   6.111   2.016   1.370
 4061TIP3   OH212125   6.714   7.163   1.231
 4061TIP3    H112126   6.693   7.071   1.247
 4061TIP3    H212127   6.669   7.184   1.149
 4062TIP3   OH212128   1.379   5.163   3.800
 4062TIP3    H112129   1.463   5.205   3.781
 4062TIP3    H212130   1.313   5.222   3.764
 4063TIP3   OH212131   6.288   3.891   5.410
 4063TIP3    H112132   6.317   3.801   5.392
 4063TIP3    H212133   6.310   3.940   5.331
 4064TIP3   OH212134   6.088   1.000   0.686
 4064TIP3    H112135   6.112   0.910   0.705
 4064TIP3    H212136   6.043   1.030   0.766
 4065TIP3   OH212137   7.800   2.210   5.698
 4065TIP3    H112138   7.808   2.116   5.684
 4065TIP3    H212139   7.826   2.223   5.789
 4066TIP3   OH212140   6.889   3.986   5.628
 4066TIP3    H112141   6.821   3.991   5.560
 4066TIP3    H212142   6.847   3.939   5.700
 4067TIP3   OH212143   7.150   1.463   0.217
 4067TIP3    H112144   7.137   1.369   0.206
 4067TIP3    H212145   7.183   1.472   0.307
 4068TIP3   OH212146   3.934   7.693   5.804
 4068TIP3    H112147   3.993   7.681   5.878
 4068TIP3    H212148   3.971   7.767   5.755
 4069TIP3   OH212149   4.876   1.323   4.878
 4069TIP3    H112150   4.825   1.349   4.801
 4069TIP3    H212151   4.832   1.245   4.911
 4070TIP3   OH212152   0.715   4.973   4.348
 4070TIP3    H112153   0.696   4.942   4.260
 4070TIP3    H212154   0.774   5.047   4.336
 4071TIP3   OH212155   7.824   1.832   1.003
 4071TIP3    H112156   7.890   1.855   0.938
 4071TIP3    H212157   7.847   1.884   1.080
 4072TIP3   OH212158   0.580   1.386   3.174
 4072TIP3    H112159   0.648   1.374   3.240
 4072TIP3    H212160   0.615   1.452   3.115
 4073TIP3   OH212161   6.049   5.816   5.271
 4073TIP3    H112162   6.026   5.824   5.364
 4073TIP3    H212163   5.965   5.816   5.226
 4074TIP3   OH212164   2.575   6.897   5.376
 4074TIP3    H112165   2.546   6.893   5.467
 4074TIP3    H212166   2.637   6.825   5.367
 4075TIP3   OH212167   7.733   7.826   6.456
 4075TIP3    H112168   7.660   7.797   6.401
 4075TIP3    H212169   7.793   7.751   6.458
 4076TIP3   OH212170   2.506   7.352   4.304
 4076TIP3    H112171   2.487   7.321   4.393
 4076TIP3    H212172   2.587   7.402   4.314
 4077TIP3   OH212173   1.618   5.866   0.316
 4077TIP3    H112174   1.601   5.897   0.405
 4077TIP3    H212175   1.700   5.908   0.291
 4078TIP3   OH212176   2.349   0.408   1.415
 4078TIP3    H112177   2.321   0.320   1.439
 4078TIP3    H212178   2.384   0.399   1.327
 4079TIP3   OH212179   4.175   7.080   4.996
 4079TIP3    H112180   4.138   7.098   5.082
 4079TIP3    H212181   4.102   7.045   4.945
 4080TIP3   OH212182   4.042   2.565   4.183
 4080TIP3    H112183   4.016   2.657   4.171
 4080TIP3    H212184   4.104   2.549   4.112
 4081TIP3   OH212185   7.803   2.347   0.555
 4081TIP3    H112186   7.777   2.255   0.564
 4081TIP3    H212187   7.790   2.367   0.462
 4082TIP3   OH212188   2.299   2.996   5.934
 4082TIP3    H112189   2.226   2.971   5.992
 4082TIP3    H212190   2.366   2.929   5.949
 4083TIP3   OH212191   3.540   2.374   5.317
 4083TIP3    H112192   3.502   2.413   5.238
 4083TIP3    H212193   3.605   2.312   5.285
 4084TIP3   OH212194   3.911   5.338   5.455
 4084TIP3    H112195   3.950   5.288   5.383
 4084TIP3    H212196   3.817   5.338   5.436
 4085TIP3   OH212197   5.435   6.810   2.220
 4085TIP3    H112198   5.358   6.850   2.260
 4085TIP3    H212199   5.426   6.716   2.237
 4086TIP3   OH212200   3.436   3.171   3.223
 4086TIP3    H112201   3.460   3.159   3.315
 4086TIP3    H212202   3.360   3.115   3.210
 4087TIP3   OH212203   1.484   5.854   5.211
 4087TIP3    H112204   1.500   5.760   5.201
 4087TIP3    H212205   1.390   5.864   5.195
 4088TIP3   OH212206   8.206   0.983   3.386
 4088TIP3    H112207   8.293   1.021   3.389
 4088TIP3    H212208   8.220   0.889   3.376
 4089TIP3   OH212209   2.178   0.293   0.785
 4089TIP3    H112210   2.155   0.374   0.740
 4089TIP3    H212211   2.253   0.316   0.841
 4090TIP3   OH212212   0.758   5.824   0.810
 4090TIP3    H112213   0.710   5.794   0.887
 4090TIP3    H212214   0.780   5.915   0.830
 4091TIP3   OH212215   8.059   6.365   5.365
 4091TIP3    H112216   7.970   6.346   5.336
 4091TIP3    H212217   8.049   6.395   5.456
 4092TIP3   OH212218   1.860   7.101   3.628
 4092TIP3    H112219   1.899   7.023   3.588
 4092TIP3    H212220   1.885   7.096   3.720
 4093TIP3   OH212221   0.386   2.899   0.434
 4093TIP3    H112222   0.446   2.931   0.367
 4093TIP3    H212223   0.440   2.843   0.490
 4094TIP3   OH212224   1.615   1.625   2.004
 4094TIP3    H112225   1.612   1.615   1.909
 4094TIP3    H212226   1.573   1.546   2.038
 4095TIP3   OH212227   7.951   6.818   4.532
 4095TIP3    H112228   8.043   6.841   4.515
 4095TIP3    H212229   7.952   6.723   4.544
 4096TIP3   OH212230   4.584   0.512   1.770
 4096TIP3    H112231   4.621   0.579   1.828
 4096TIP3    H212232   4.509   0.555   1.728
 4097TIP3   OH212233   4.244   0.388   6.455
 4097TIP3    H112234   4.308   0.444   6.412
 4097TIP3    H212235   4.296   0.319   6.495
 4098TIP3   OH212236   2.327   2.931   6.687
 4098TIP3    H112237   2.398   2.995   6.689
 4098TIP3    H212238   2.283   2.945   6.603
 4099TIP3   OH212239   6.732   4.598   6.015
 4099TIP3    H112240   6.716   4.692   6.027
 4099TIP3    H212241   6.645   4.560   6.008
 4100TIP3   OH212242   6.478   5.885   1.357
 4100TIP3    H112243   6.463   5.843   1.273
 4100TIP3    H212244   6.391   5.901   1.392
 4101TIP3   OH212245   0.991   0.411   3.143
 4101TIP3    H112246   1.041   0.329   3.144
 4101TIP3    H212247   1.005   0.447   3.230
 4102TIP3   OH212248   6.469   1.306   4.840
 4102TIP3    H112249   6.528   1.381   4.851
 4102TIP3    H212250   6.494   1.268   4.755
 4103TIP3   OH212251   6.311   4.626   1.166
 4103TIP3    H112252   6.316   4.648   1.260
 4103TIP3    H212253   6.366   4.548   1.157
 4104TIP3   OH212254   7.766   6.784   3.780
 4104TIP3    H112255   7.855   6.819   3.782
 4104TIP3    H212256   7.777   6.689   3.783
 4105TIP3   OH212257   0.444   6.595   5.485
 4105TIP3    H112258   0.423   6.686   5.503
 4105TIP3    H212259   0.378   6.566   5.422
 4106TIP3   OH212260   5.958   6.707   5.284
 4106TIP3    H112261   6.005   6.686   5.203
 4106TIP3    H212262   6.019   6.683   5.354
 4107TIP3   OH212263   6.313   6.016   2.631
 4107TIP3    H112264   6.298   6.093   2.685
 4107TIP3    H212265   6.311   5.943   2.692
 4108TIP3   OH212266   5.193   2.886   0.498
 4108TIP3    H112267   5.134   2.941   0.447
 4108TIP3    H212268   5.211   2.936   0.577
 4109TIP3   OH212269   6.467   5.517   1.018
 4109TIP3    H112270   6.460   5.510   1.113
 4109TIP3    H212271   6.390   5.471   0.985
 4110TIP3   OH212272   0.057   6.842   1.971
 4110TIP3    H112273   0.103   6.816   2.051
 4110TIP3    H212274   0.049   6.761   1.920
 4111TIP3   OH212275   7.550   2.796   1.455
 4111TIP3    H112276   7.641   2.804   1.426
 4111TIP3    H212277   7.534   2.702   1.459
 4112TIP3   OH212278   4.388   4.780   0.096
 4112TIP3    H112279   4.316   4.816   0.147
 4112TIP3    H212280   4.357   4.779   0.006
 4113TIP3   OH212281   5.901   6.352   0.950
 4113TIP3    H112282   5.814   6.360   0.909
 4113TIP3    H212283   5.961   6.387   0.885
 4114TIP3   OH212284   1.664   1.395   1.532
 4114TIP3    H112285   1.620   1.314   1.558
 4114TIP3    H212286   1.600   1.440   1.478
 4115TIP3   OH212287   6.961   6.685   1.878
 4115TIP3    H112288   6.962   6.778   1.857
 4115TIP3    H212289   6.871   6.667   1.905
 4116TIP3   OH212290   6.651   4.277   5.332
 4116TIP3    H112291   6.677   4.347   5.272
 4116TIP3    H212292   6.600   4.322   5.399
 4117TIP3   OH212293   4.722   7.727   3.478
 4117TIP3    H112294   4.772   7.754   3.401
 4117TIP3    H212295   4.635   7.706   3.444
 4118TIP3   OH212296   6.785   4.183   6.038
 4118TIP3    H112297   6.697   4.186   6.001
 4118TIP3    H212298   6.774   4.141   6.123
 4119TIP3   OH212299   0.294   6.582   6.323
 4119TIP3    H112300   0.268   6.614   6.237
 4119TIP3    H212301   0.390   6.579   6.319
 4120TIP3   OH212302   3.414   1.022   1.755
 4120TIP3    H112303   3.417   1.110   1.717
 4120TIP3    H212304   3.475   0.971   1.703
 4121TIP3   OH212305   4.146   3.536   2.599
 4121TIP3    H112306   4.085   3.462   2.594
 4121TIP3    H212307   4.091   3.614   2.597
 4122TIP3   OH212308   5.960   4.869   2.716
 4122TIP3    H112309   5.946   4.807   2.643
 4122TIP3    H212310   5.910   4.832   2.788
 4123TIP3   OH212311   0.859   6.593   5.546
 4123TIP3    H112312   0.936   6.615   5.598
 4123TIP3    H212313   0.794   6.659   5.570
 4124TIP3   OH212314   2.984   7.701   1.369
 4124TIP3    H112315   2.997   7.653   1.287
 4124TIP3    H212316   2.894   7.680   1.395
 4125TIP3   OH212317   3.450   6.110   4.097
 4125TIP3    H112318   3.380   6.047   4.079
 4125TIP3    H212319   3.485   6.082   4.182
 4126TIP3   OH212320   7.603   2.811   5.852
 4126TIP3    H112321   7.679   2.766   5.889
 4126TIP3    H212322   7.593   2.890   5.905
 4127TIP3   OH212323   3.301   0.060   1.512
 4127TIP3    H112324   3.337   0.079   1.599
 4127TIP3    H212325   3.250   0.138   1.490
 4128TIP3   OH212326   6.207   0.742   1.503
 4128TIP3    H112327   6.177   0.775   1.418
 4128TIP3    H212328   6.263   0.668   1.481
 4129TIP3   OH212329   5.833   1.336   3.337
 4129TIP3    H112330   5.790   1.392   3.272
 4129TIP3    H212331   5.927   1.342   3.316
 4130TIP3   OH212332   7.202   5.784   5.121
 4130TIP3    H112333   7.197   5.690   5.107
 4130TIP3    H212334   7.272   5.813   5.063
 4131TIP3   OH212335   6.308   2.189   1.742
 4131TIP3    H112336   6.400   2.206   1.725
 4131TIP3    H212337   6.261   2.241   1.676
 4132TIP3   OH212338   1.945   3.396   6.437
 4132TIP3    H112339   2.003   3.472   6.435
 4132TIP3    H212340   1.941   3.366   6.346
 4133TIP3   OH212341   1.870   0.497   1.912
 4133TIP3    H112342   1.962   0.523   1.922
 4133TIP3    H212343   1.821   0.568   1.955
 4134TIP3   OH212344   4.792   7.470   0.941
 4134TIP3    H112345   4.705   7.452   0.903
 4134TIP3    H212346   4.852   7.416   0.889
 4135TIP3   OH212347   7.362   4.840   6.592
 4135TIP3    H112348   7.431   4.907   6.594
 4135TIP3    H212349   7.384   4.781   6.664
 4136TIP3   OH212350   6.386   6.972   5.838
 4136TIP3    H112351   6.340   6.910   5.781
 4136TIP3    H212352   6.388   6.929   5.924
 4137TIP3   OH212353   2.309   2.178   0.000
 4137TIP3    H112354   2.318   2.264   0.041
 4137TIP3    H212355   2.223   2.180  -0.042
 4138TIP3   OH212356   8.226   7.719   4.257
 4138TIP3    H112357   8.286   7.793   4.260
 4138TIP3    H212358   8.251   7.672   4.177
 4139TIP3   OH212359   8.043   4.541   2.481
 4139TIP3    H112360   7.948   4.528   2.487
 4139TIP3    H212361   8.054   4.603   2.409
 4140TIP3   OH212362   6.443   3.175   2.679
 4140TIP3    H112363   6.523   3.130   2.708
 4140TIP3    H212364   6.413   3.123   2.605
 4141TIP3   OH212365   3.727   5.975   0.614
 4141TIP3    H112366   3.771   6.029   0.680
 4141TIP3    H212367   3.646   6.021   0.595
 4142TIP3   OH212368   6.332   7.065   0.849
 4142TIP3    H112369   6.363   7.123   0.779
 4142TIP3    H212370   6.366   6.979   0.824
 4143TIP3   OH212371   3.641   1.538   0.429
 4143TIP3    H112372   3.573   1.546   0.363
 4143TIP3    H212373   3.674   1.627   0.442
 4144TIP3   OH212374   7.895   0.637   0.074
 4144TIP3    H112375   7.930   0.676  -0.007
 4144TIP3    H212376   7.807   0.672   0.081
 4145TIP3   OH212377   5.111   0.784   5.246
 4145TIP3    H112378   5.044   0.807   5.311
 4145TIP3    H212379   5.152   0.867   5.223
 4146TIP3   OH212380   7.282   6.309   0.829
 4146TIP3    H112381   7.203   6.286   0.781
 4146TIP3    H212382   7.323   6.378   0.777
 4147TIP3   OH212383   0.609   6.070   0.355
 4147TIP3    H112384   0.588   6.029   0.438
 4147TIP3    H212385   0.695   6.111   0.370
 4148TIP3   OH212386   0.680   6.485   5.368
 4148TIP3    H112387   0.606   6.539   5.395
 4148TIP3    H212388   0.747   6.501   5.434
 4149TIP3   OH212389   5.824   7.424   1.505
 4149TIP3    H112390   5.747   7.392   1.551
 4149TIP3    H212391   5.894   7.420   1.570
 4150TIP3   OH212392   0.811   7.553   0.899
 4150TIP3    H112393   0.820   7.463   0.868
 4150TIP3    H212394   0.748   7.592   0.838
 4151TIP3   OH212395   2.582   6.736   0.438
 4151TIP3    H112396   2.637   6.691   0.502
 4151TIP3    H212397   2.560   6.819   0.480
 4152TIP3   OH212398   8.211   5.193   5.297
 4152TIP3    H112399   8.245   5.279   5.320
 4152TIP3    H212400   8.261   5.132   5.351
 4153TIP3   OH212401   8.075   0.640   0.615
 4153TIP3    H112402   8.048   0.730   0.598
 4153TIP3    H212403   8.161   0.648   0.656
 4154TIP3   OH212404   0.871   4.312   4.253
 4154TIP3    H112405   0.904   4.304   4.164
 4154TIP3    H212406   0.802   4.246   4.259
 4155TIP3   OH212407   4.477   1.829   5.535
 4155TIP3    H112408   4.481   1.788   5.622
 4155TIP3    H212409   4.562   1.873   5.526
 4156TIP3   OH212410   1.788   5.232   6.638
 4156TIP3    H112411   1.730   5.306   6.658
 4156TIP3    H212412   1.777   5.217   6.544
 4157TIP3   OH212413   6.947   7.241   3.871
 4157TIP3    H112414   6.940   7.334   3.894
 4157TIP3    H212415   7.041   7.222   3.874
 4158TIP3   OH212416   4.311   1.054   3.135
 4158TIP3    H112417   4.324   1.091   3.223
 4158TIP3    H212418   4.262   1.121   3.087
 4159TIP3   OH212419   3.221   5.044   0.667
 4159TIP3    H112420   3.199   4.961   0.626
 4159TIP3    H212421   3.258   5.097   0.597
 4160TIP3   OH212422   7.900   1.454   0.993
 4160TIP3    H112423   7.841   1.495   0.931
 4160TIP3    H212424   7.985   1.454   0.949
 4161TIP3   OH212425   5.450   5.028   4.998
 4161TIP3    H112426   5.436   4.940   5.033
 4161TIP3    H212427   5.369   5.050   4.951
 4162TIP3   OH212428   3.957   0.097   4.611
 4162TIP3    H112429   3.966   0.091   4.706
 4162TIP3    H212430   4.046   0.112   4.580
 4163TIP3   OH212431   0.493   1.733   2.646
 4163TIP3    H112432   0.527   1.726   2.556
 4163TIP3    H212433   0.416   1.676   2.647
 4164TIP3   OH212434   1.581   3.016   4.310
 4164TIP3    H112435   1.638   2.975   4.244
 4164TIP3    H212436   1.589   2.959   4.386
 4165TIP3   OH212437   7.051   4.380   3.349
 4165TIP3    H112438   7.115   4.316   3.318
 4165TIP3    H212439   7.069   4.388   3.443
 4166TIP3   OH212440   0.224   3.124   6.215
 4166TIP3    H112441   0.310   3.101   6.250
 4166TIP3    H212442   0.191   3.042   6.177
 4167TIP3   OH212443   1.078   3.925   3.851
 4167TIP3    H112444   1.128   3.851   3.886
 4167TIP3    H212445   1.058   3.979   3.928
 4168TIP3   OH212446   0.598   2.686   6.482
 4168TIP3    H112447   0.559   2.703   6.567
 4168TIP3    H212448   0.525   2.693   6.420
 4169TIP3   OH212449   3.496   6.019   6.317
 4169TIP3    H112450   3.561   6.072   6.270
 4169TIP3    H212451   3.412   6.044   6.278
 4170TIP3   OH212452   6.803   4.103   1.006
 4170TIP3    H112453   6.816   4.062   1.091
 4170TIP3    H212454   6.724   4.157   1.017
 4171TIP3   OH212455   0.167   6.599   1.340
 4171TIP3    H112456   0.107   6.657   1.292
 4171TIP3    H212457   0.113   6.559   1.407
 4172TIP3   OH212458   1.139   4.721   2.998
 4172TIP3    H112459   1.186   4.661   2.940
 4172TIP3    H212460   1.179   4.806   2.982
 4173TIP3   OH212461   6.332   7.690   5.649
 4173TIP3    H112462   6.326   7.644   5.733
 4173TIP3    H212463   6.254   7.746   5.646
 4174TIP3   OH212464   4.079   3.244   3.932
 4174TIP3    H112465   4.022   3.321   3.921
 4174TIP3    H212466   4.102   3.245   4.025
 4175TIP3   OH212467   2.320   0.724   1.756
 4175TIP3    H112468   2.386   0.787   1.727
 4175TIP3    H212469   2.243   0.744   1.703
 4176TIP3   OH212470   1.422   6.851   1.551
 4176TIP3    H112471   1.355   6.805   1.602
 4176TIP3    H212472   1.500   6.796   1.559
 4177TIP3   OH212473   1.298   4.271   4.271
 4177TIP3    H112474   1.370   4.299   4.328
 4177TIP3    H212475   1.240   4.222   4.328
 4178TIP3   OH212476   3.114   3.450   2.637
 4178TIP3    H112477   3.155   3.533   2.612
 4178TIP3    H212478   3.186   3.388   2.639
 4179TIP3   OH212479   2.988   3.930   1.207
 4179TIP3    H112480   2.934   3.851   1.214
 4179TIP3    H212481   3.069   3.908   1.254
 4180TIP3   OH212482   4.744   2.320   6.689
 4180TIP3    H112483   4.678   2.287   6.749
 4180TIP3    H212484   4.722   2.413   6.678
 4181TIP3   OH212485   3.887   0.281   3.701
 4181TIP3    H112486   3.799   0.311   3.721
 4181TIP3    H212487   3.903   0.310   3.611
 4182TIP3   OH212488   5.921   1.767   2.611
 4182TIP3    H112489   5.996   1.734   2.660
 4182TIP3    H212490   5.856   1.696   2.617
 4183TIP3   OH212491   6.988   5.189   4.586
 4183TIP3    H112492   6.961   5.281   4.577
 4183TIP3    H212493   7.076   5.186   4.549
 4184TIP3   OH212494   1.261   4.064   1.022
 4184TIP3    H112495   1.351   4.055   1.054
 4184TIP3    H212496   1.255   4.155   0.994
 4185TIP3   OH212497   3.010   3.091   6.360
 4185TIP3    H112498   2.991   3.115   6.269
 4185TIP3    H212499   2.925   3.065   6.396
 4186TIP3   OH212500   1.560   6.619   4.537
 4186TIP3    H112501   1.518   6.550   4.589
 4186TIP3    H212502   1.648   6.585   4.519
 4187TIP3   OH212503   4.729   4.236   2.243
 4187TIP3    H112504   4.812   4.188   2.242
 4187TIP3    H212505   4.697   4.229   2.153
 4188TIP3   OH212506   7.400   5.607   6.070
 4188TIP3    H112507   7.313   5.623   6.033
 4188TIP3    H212508   7.454   5.584   5.994
 4189TIP3   OH212509   2.814   4.073   3.477
 4189TIP3    H112510   2.827   4.091   3.570
 4189TIP3    H212511   2.871   4.134   3.432
 4190TIP3   OH212512   4.300   6.667   3.345
 4190TIP3    H112513   4.295   6.576   3.375
 4190TIP3    H212514   4.314   6.660   3.250
 4191TIP3   OH212515   5.328   3.468   2.759
 4191TIP3    H112516   5.339   3.486   2.665
 4191TIP3    H212517   5.265   3.534   2.788
 4192TIP3   OH212518   4.308   2.111   2.022
 4192TIP3    H112519   4.389   2.070   2.054
 4192TIP3    H212520   4.325   2.205   2.029
 4193TIP3   OH212521   5.541   7.401   6.694
 4193TIP3    H112522   5.545   7.490   6.660
 4193TIP3    H212523   5.464   7.400   6.752
 4194TIP3   OH212524   3.041   3.428   4.628
 4194TIP3    H112525   3.023   3.522   4.636
 4194TIP3    H212526   2.984   3.387   4.693
 4195TIP3   OH212527   3.375   2.128   3.075
 4195TIP3    H112528   3.442   2.151   3.140
 4195TIP3    H212529   3.359   2.210   3.029
 4196TIP3   OH212530   2.262   5.660   3.481
 4196TIP3    H112531   2.270   5.720   3.555
 4196TIP3    H212532   2.167   5.646   3.471
 4197TIP3   OH212533   5.014   6.750   1.592
 4197TIP3    H112534   5.031   6.785   1.505
 4197TIP3    H212535   5.019   6.655   1.582
 4198TIP3   OH212536   1.277   1.228   3.355
 4198TIP3    H112537   1.334   1.172   3.302
 4198TIP3    H212538   1.249   1.171   3.427
 4199TIP3   OH212539   1.268   3.802   5.222
 4199TIP3    H112540   1.331   3.816   5.293
 4199TIP3    H212541   1.198   3.751   5.261
 4200TIP3   OH212542   2.844   1.861   6.279
 4200TIP3    H112543   2.764   1.874   6.229
 4200TIP3    H212544   2.896   1.802   6.225
 4201TIP3   OH212545   6.680   1.749   3.695
 4201TIP3    H112546   6.636   1.695   3.761
 4201TIP3    H212547   6.773   1.739   3.714
 4202TIP3   OH212548   1.027   6.902   5.814
 4202TIP3    H112549   0.986   6.952   5.886
 4202TIP3    H212550   1.097   6.852   5.856
 4203TIP3   OH212551   2.605   5.614   2.364
 4203TIP3    H112552   2.615   5.652   2.277
 4203TIP3    H212553   2.682   5.645   2.412
 4204TIP3   OH212554   6.620   0.191   4.596
 4204TIP3    H112555   6.682   0.131   4.556
 4204TIP3    H212556   6.663   0.276   4.592
 4205TIP3   OH212557   1.790   1.633   6.731
 4205TIP3    H112558   1.820   1.651   6.642
 4205TIP3    H212559   1.854   1.572   6.767
 4206TIP3   OH212560   6.282   4.059   4.632
 4206TIP3    H112561   6.213   4.059   4.699
 4206TIP3    H212562   6.257   3.988   4.573
 4207TIP3   OH212563   7.500   5.044   1.656
 4207TIP3    H112564   7.452   5.126   1.660
 4207TIP3    H212565   7.572   5.061   1.595
 4208TIP3   OH212566   7.475   6.671   2.572
 4208TIP3    H112567   7.398   6.715   2.537
 4208TIP3    H212568   7.496   6.718   2.652
 4209TIP3   OH212569   5.529   4.798   2.043
 4209TIP3    H112570   5.561   4.725   1.990
 4209TIP3    H212571   5.437   4.809   2.017
 4210TIP3   OH212572   0.506   6.553   1.847
 4210TIP3    H112573   0.482   6.639   1.812
 4210TIP3    H212574   0.450   6.543   1.924
 4211TIP3   OH212575   0.496   2.841   4.943
 4211TIP3    H112576   0.413   2.803   4.973
 4211TIP3    H212577   0.552   2.765   4.926
 4212TIP3   OH212578   4.387   0.819   1.870
 4212TIP3    H112579   4.323   0.753   1.844
 4212TIP3    H212580   4.344   0.869   1.939
 4213TIP3   OH212581   5.542   4.143   1.164
 4213TIP3    H112582   5.570   4.076   1.101
 4213TIP3    H212583   5.584   4.223   1.133
 4214TIP3   OH212584   4.125   3.314   5.143
 4214TIP3    H112585   4.213   3.276   5.140
 4214TIP3    H212586   4.067   3.240   5.159
 4215TIP3   OH212587   4.621   6.292   3.778
 4215TIP3    H112588   4.584   6.259   3.860
 4215TIP3    H212589   4.708   6.324   3.801
 4216TIP3   OH212590   2.425   4.074   1.460
 4216TIP3    H112591   2.467   4.092   1.545
 4216TIP3    H212592   2.332   4.063   1.481
 4217TIP3   OH212593   1.767   5.221   0.781
 4217TIP3    H112594   1.861   5.223   0.795
 4217TIP3    H212595   1.756   5.195   0.689
 4218TIP3   OH212596   5.005   6.448   1.827
 4218TIP3    H112597   4.991   6.490   1.742
 4218TIP3    H212598   4.933   6.479   1.881
 4219TIP3   OH212599   3.212   4.399   6.178
 4219TIP3    H112600   3.136   4.454   6.158
 4219TIP3    H212601   3.191   4.314   6.139
 4220TIP3   OH212602   6.820   2.443   1.511
 4220TIP3    H112603   6.878   2.518   1.500
 4220TIP3    H212604   6.846   2.406   1.596
 4221TIP3   OH212605   5.846   6.277   2.410
 4221TIP3    H112606   5.768   6.250   2.362
 4221TIP3    H212607   5.887   6.194   2.435
 4222TIP3   OH212608   3.806   4.292   0.730
 4222TIP3    H112609   3.861   4.370   0.737
 4222TIP3    H212610   3.717   4.324   0.747
 4223TIP3   OH212611   7.199   1.447   3.017
 4223TIP3    H112612   7.252   1.489   3.085
 4223TIP3    H212613   7.198   1.511   2.945
 4224TIP3   OH212614   1.364   4.886   6.601
 4224TIP3    H112615   1.310   4.909   6.525
 4224TIP3    H212616   1.328   4.803   6.631
 4225TIP3   OH212617   1.960   3.230   1.527
 4225TIP3    H112618   1.997   3.256   1.442
 4225TIP3    H212619   2.009   3.282   1.591
 4226TIP3   OH212620   0.756   6.762   5.251
 4226TIP3    H112621   0.697   6.713   5.195
 4226TIP3    H212622   0.753   6.852   5.217
 4227TIP3   OH212623   5.554   2.370   4.451
 4227TIP3    H112624   5.633   2.418   4.426
 4227TIP3    H212625   5.528   2.322   4.373
 4228TIP3   OH212626   4.889   7.383   1.530
 4228TIP3    H112627   4.954   7.343   1.471
 4228TIP3    H212628   4.933   7.460   1.565
 4229TIP3   OH212629   1.995   4.329   2.286
 4229TIP3    H112630   2.025   4.419   2.294
 4229TIP3    H212631   2.053   4.279   2.343
 4230TIP3   OH212632   6.510   0.892   5.013
 4230TIP3    H112633   6.592   0.934   4.987
 4230TIP3    H212634   6.508   0.810   4.965
 4231TIP3   OH212635   7.139   2.502   2.966
 4231TIP3    H112636   7.171   2.499   3.056
 4231TIP3    H212637   7.213   2.538   2.916
 4232TIP3   OH212638   2.808   0.791   3.450
 4232TIP3    H112639   2.750   0.834   3.387
 4232TIP3    H212640   2.756   0.718   3.484
 4233TIP3   OH212641   5.810   1.542   3.092
 4233TIP3    H112642   5.776   1.624   3.056
 4233TIP3    H212643   5.905   1.553   3.093
 4234TIP3   OH212644   3.878   6.221   0.043
 4234TIP3    H112645   3.926   6.228   0.126
 4234TIP3    H212646   3.808   6.159   0.061
 4235TIP3   OH212647   1.830   3.141   5.207
 4235TIP3    H112648   1.849   3.127   5.299
 4235TIP3    H212649   1.915   3.135   5.164
 4236TIP3   OH212650   5.480   2.750   4.010
 4236TIP3    H112651   5.491   2.746   4.105
 4236TIP3    H212652   5.474   2.843   3.990
 4237TIP3   OH212653   5.809   3.132   6.217
 4237TIP3    H112654   5.744   3.105   6.153
 4237TIP3    H212655   5.849   3.051   6.247
 4238TIP3   OH212656   3.061   5.798   6.171
 4238TIP3    H112657   3.084   5.867   6.233
 4238TIP3    H212658   3.066   5.840   6.085
 4239TIP3   OH212659   2.936   1.506   6.365
 4239TIP3    H112660   2.900   1.485   6.451
 4239TIP3    H212661   2.891   1.586   6.338
 4240TIP3   OH212662   1.514   0.231   6.712
 4240TIP3    H112663   1.535   0.311   6.664
 4240TIP3    H212664   1.458   0.182   6.652
 4241TIP3   OH212665   7.409   6.227   3.629
 4241TIP3    H112666   7.346   6.202   3.562
 4241TIP3    H212667   7.389   6.171   3.704
 4242TIP3   OH212668   6.015   4.044   1.350
 4242TIP3    H112669   6.105   4.025   1.324
 4242TIP3    H212670   5.975   4.082   1.272
 4243TIP3   OH212671   0.849   7.125   2.050
 4243TIP3    H112672   0.786   7.056   2.028
 4243TIP3    H212673   0.934   7.085   2.034
 4244TIP3   OH212674   5.401   5.479   0.772
 4244TIP3    H112675   5.489   5.497   0.741
 4244TIP3    H212676   5.373   5.560   0.815
 4245TIP3   OH212677   2.163   7.706   1.855
 4245TIP3    H112678   2.127   7.680   1.940
 4245TIP3    H212679   2.249   7.742   1.876
 4246TIP3   OH212680   2.172   0.546   1.898
 4246TIP3    H112681   2.214   0.512   1.977
 4246TIP3    H212682   2.222   0.625   1.877
 4247TIP3   OH212683   3.745   6.161   1.937
 4247TIP3    H112684   3.719   6.205   2.018
 4247TIP3    H212685   3.704   6.074   1.943
 4248TIP3   OH212686   5.804   4.111   5.887
 4248TIP3    H112687   5.882   4.056   5.891
 4248TIP3    H212688   5.740   4.067   5.942
 4249TIP3   OH212689   7.590   0.050   0.287
 4249TIP3    H112690   7.625   0.044   0.376
 4249TIP3    H212691   7.495   0.050   0.299
 4250TIP3   OH212692   0.889   3.545   2.936
 4250TIP3    H112693   0.838   3.540   2.855
 4250TIP3    H212694   0.928   3.633   2.934
 4251TIP3   OH212695   5.273   7.298   1.628
 4251TIP3    H112696   5.233   7.373   1.583
 4251TIP3    H212697   5.278   7.229   1.562
 4252TIP3   OH212698   0.566   7.743   5.047
 4252TIP3    H112699   0.625   7.713   5.116
 4252TIP3    H212700   0.600   7.703   4.967
 4253TIP3   OH212701   5.165   3.667   1.885
 4253TIP3    H112702   5.213   3.606   1.940
 4253TIP3    H212703   5.168   3.750   1.932
 4254TIP3   OH212704   4.521   5.811   5.057
 4254TIP3    H112705   4.534   5.762   4.976
 4254TIP3    H212706   4.453   5.875   5.036
 4255TIP3   OH212707   2.544   7.580   1.617
 4255TIP3    H112708   2.554   7.567   1.711
 4255TIP3    H212709   2.565   7.495   1.579
 4256TIP3   OH212710   0.866   3.142   0.608
 4256TIP3    H112711   0.772   3.126   0.621
 4256TIP3    H212712   0.869   3.226   0.561
 4257TIP3   OH212713   2.625   0.901   3.276
 4257TIP3    H112714   2.640   0.963   3.204
 4257TIP3    H212715   2.550   0.938   3.324
 4258TIP3   OH212716   8.034   6.847   3.473
 4258TIP3    H112717   8.069   6.887   3.553
 4258TIP3    H212718   8.112   6.825   3.421
 4259TIP3   OH212719   2.403   5.159   4.632
 4259TIP3    H112720   2.494   5.185   4.644
 4259TIP3    H212721   2.403   5.106   4.552
 4260TIP3   OH212722   8.055   0.280   1.806
 4260TIP3    H112723   8.069   0.273   1.712
 4260TIP3    H212724   8.001   0.204   1.828
 4261TIP3   OH212725   1.183   2.754   2.585
 4261TIP3    H112726   1.159   2.767   2.493
 4261TIP3    H212727   1.170   2.839   2.626
 4262TIP3   OH212728   1.435   2.798   2.194
 4262TIP3    H112729   1.407   2.741   2.265
 4262TIP3    H212730   1.416   2.748   2.114
 4263TIP3   OH212731   5.119   3.767   6.089
 4263TIP3    H112732   5.159   3.854   6.085
 4263TIP3    H212733   5.162   3.718   6.019
 4264TIP3   OH212734   8.180   6.060   3.935
 4264TIP3    H112735   8.212   6.137   3.888
 4264TIP3    H212736   8.085   6.071   3.938
 4265TIP3   OH212737   7.184   4.106   2.640
 4265TIP3    H112738   7.263   4.063   2.607
 4265TIP3    H212739   7.122   4.102   2.567
 4266TIP3   OH212740   8.203   6.583   6.735
 4266TIP3    H112741   8.161   6.582   6.649
 4266TIP3    H212742   8.251   6.666   6.737
 4267TIP3   OH212743   5.103   7.020   4.088
 4267TIP3    H112744   5.134   7.110   4.089
 4267TIP3    H212745   5.063   7.008   4.174
 4268TIP3   OH212746   3.466   0.183   0.822
 4268TIP3    H112747   3.431   0.241   0.889
 4268TIP3    H212748   3.412   0.104   0.827
 4269TIP3   OH212749   0.625   0.149   4.040
 4269TIP3    H112750   0.616   0.140   4.135
 4269TIP3    H212751   0.714   0.181   4.027
 4270TIP3   OH212752   5.646   5.245   0.679
 4270TIP3    H112753   5.619   5.337   0.684
 4270TIP3    H212754   5.688   5.237   0.594
 4271TIP3   OH212755   7.987   6.807   5.245
 4271TIP3    H112756   7.912   6.802   5.305
 4271TIP3    H212757   7.967   6.742   5.178
 4272TIP3   OH212758   1.147   0.472   5.752
 4272TIP3    H112759   1.171   0.438   5.839
 4272TIP3    H212760   1.217   0.442   5.694
 4273TIP3   OH212761   8.237   6.073   2.020
 4273TIP3    H112762   8.251   6.103   1.929
 4273TIP3    H212763   8.171   6.005   2.013
 4274TIP3   OH212764   5.448   3.678   5.992
 4274TIP3    H112765   5.423   3.762   5.955
 4274TIP3    H212766   5.377   3.619   5.967
 4275TIP3   OH212767   0.800   4.943   2.586
 4275TIP3    H112768   0.741   4.869   2.575
 4275TIP3    H212769   0.849   4.923   2.665
 4276TIP3   OH212770   4.668   4.417   0.102
 4276TIP3    H112771   4.736   4.361   0.063
 4276TIP3    H212772   4.599   4.422   0.036
 4277TIP3   OH212773   4.232   2.660   6.172
 4277TIP3    H112774   4.242   2.609   6.092
 4277TIP3    H212775   4.191   2.742   6.144
 4278TIP3   OH212776   2.871   0.078   1.625
 4278TIP3    H112777   2.808   0.149   1.627
 4278TIP3    H212778   2.849   0.028   1.546
 4279TIP3   OH212779   3.341   7.187   5.908
 4279TIP3    H112780   3.276   7.210   5.973
 4279TIP3    H212781   3.334   7.255   5.841
 4280TIP3   OH212782   1.597   5.316   3.716
 4280TIP3    H112783   1.577   5.367   3.637
 4280TIP3    H212784   1.686   5.343   3.740
 4281TIP3   OH212785   5.424   3.210   3.798
 4281TIP3    H112786   5.331   3.186   3.803
 4281TIP3    H212787   5.445   3.204   3.704
 4282TIP3   OH212788   8.114  -0.003   1.290
 4282TIP3    H112789   8.179   0.068   1.298
 4282TIP3    H212790   8.030   0.040   1.305
 4283TIP3   OH212791   6.184   5.377   2.813
 4283TIP3    H112792   6.149   5.421   2.735
 4283TIP3    H212793   6.156   5.431   2.886
 4284TIP3   OH212794   0.824   7.426   2.520
 4284TIP3    H112795   0.793   7.357   2.579
 4284TIP3    H212796   0.763   7.498   2.534
 4285TIP3   OH212797   1.508   2.579   6.321
 4285TIP3    H112798   1.422   2.574   6.278
 4285TIP3    H212799   1.521   2.492   6.358
 4286TIP3   OH212800   7.747   6.903   4.370
 4286TIP3    H112801   7.810   6.880   4.438
 4286TIP3    H212802   7.800   6.916   4.292
 4287TIP3   OH212803   3.238   0.023   6.714
 4287TIP3    H112804   3.221  -0.069   6.697
 4287TIP3    H212805   3.323   0.040   6.674
 4288TIP3   OH212806   0.444   2.883   3.374
 4288TIP3    H112807   0.406   2.799   3.347
 4288TIP3    H212808   0.490   2.864   3.455
 4289TIP3   OH212809   2.143   3.486   0.664
 4289TIP3    H112810   2.168   3.567   0.619
 4289TIP3    H212811   2.092   3.515   0.739
 4290TIP3   OH212812   1.747   4.165   0.288
 4290TIP3    H112813   1.769   4.234   0.225
 4290TIP3    H212814   1.736   4.210   0.371
 4291TIP3   OH212815   6.260   4.687   0.219
 4291TIP3    H112816   6.304   4.742   0.284
 4291TIP3    H212817   6.276   4.598   0.248
 4292TIP3   OH212818   4.577   5.787   1.641
 4292TIP3    H112819   4.589   5.879   1.664
 4292TIP3    H212820   4.665   5.755   1.621
 4293TIP3   OH212821   0.927   2.204   4.776
 4293TIP3    H112822   1.020   2.193   4.756
 4293TIP3    H212823   0.911   2.147   4.851
 4294TIP3   OH212824   6.023   3.571   0.391
 4294TIP3    H112825   6.055   3.655   0.425
 4294TIP3    H212826   6.082   3.549   0.319
 4295TIP3   OH212827   4.976   6.282   2.455
 4295TIP3    H112828   4.983   6.299   2.549
 4295TIP3    H212829   4.889   6.317   2.432
 4296TIP3   OH212830   3.382   4.102   0.638
 4296TIP3    H112831   3.384   4.146   0.553
 4296TIP3    H212832   3.472   4.070   0.650
 4297TIP3   OH212833   4.316   6.638   5.851
 4297TIP3    H112834   4.324   6.552   5.891
 4297TIP3    H212835   4.305   6.621   5.758
 4298TIP3   OH212836   3.222   4.116   6.548
 4298TIP3    H112837   3.281   4.045   6.574
 4298TIP3    H212838   3.280   4.186   6.521
 4299TIP3   OH212839   5.450   7.264   2.865
 4299TIP3    H112840   5.444   7.226   2.953
 4299TIP3    H212841   5.515   7.210   2.820
 4300TIP3   OH212842   8.165   7.250   6.563
 4300TIP3    H112843   8.085   7.224   6.610
 4300TIP3    H212844   8.188   7.335   6.600
 4301TIP3   OH212845   1.027   3.799   2.382
 4301TIP3    H112846   1.064   3.800   2.470
 4301TIP3    H212847   1.103   3.796   2.324
 4302TIP3   OH212848   3.974   6.120   0.463
 4302TIP3    H112849   3.951   6.093   0.552
 4302TIP3    H212850   3.891   6.150   0.425
 4303TIP3   OH212851   1.616   0.941   2.298
 4303TIP3    H112852   1.598   0.988   2.379
 4303TIP3    H212853   1.709   0.954   2.282
 4304TIP3   OH212854   3.696   3.459   5.878
 4304TIP3    H112855   3.671   3.375   5.839
 4304TIP3    H212856   3.754   3.499   5.814
 4305TIP3   OH212857   7.236   0.688   1.316
 4305TIP3    H112858   7.288   0.756   1.360
 4305TIP3    H212859   7.170   0.662   1.381
 4306TIP3   OH212860   4.879   6.342   3.145
 4306TIP3    H112861   4.829   6.350   3.226
 4306TIP3    H212862   4.840   6.267   3.100
 4307TIP3   OH212863   2.601   6.028   2.076
 4307TIP3    H112864   2.685   6.074   2.076
 4307TIP3    H212865   2.551   6.071   2.146
 4308TIP3   OH212866   2.761   0.848   0.887
 4308TIP3    H112867   2.760   0.913   0.816
 4308TIP3    H212868   2.814   0.776   0.853
 4309TIP3   OH212869   3.253   2.889   5.006
 4309TIP3    H112870   3.221   2.811   4.960
 4309TIP3    H212871   3.342   2.866   5.033
 4310TIP3   OH212872   3.500   3.235   1.296
 4310TIP3    H112873   3.568   3.264   1.357
 4310TIP3    H212874   3.419   3.273   1.330
 4311TIP3   OH212875   5.623   7.394   1.047
 4311TIP3    H112876   5.583   7.475   1.080
 4311TIP3    H212877   5.608   7.330   1.117
 4312TIP3   OH212878   1.037   1.145   2.140
 4312TIP3    H112879   0.976   1.079   2.107
 4312TIP3    H212880   0.980   1.215   2.172
 4313TIP3   OH212881   6.940   1.843   1.847
 4313TIP3    H112882   7.016   1.789   1.826
 4313TIP3    H212883   6.865   1.789   1.824
 4314TIP3   OH212884   7.899   3.828   4.142
 4314TIP3    H112885   7.875   3.850   4.232
 4314TIP3    H212886   7.846   3.751   4.121
 4315TIP3   OH212887   4.509   7.013   3.147
 4315TIP3    H112888   4.454   7.031   3.071
 4315TIP3    H212889   4.587   6.971   3.110
 4316TIP3   OH212890   1.178   0.426   4.131
 4316TIP3    H112891   1.092   0.419   4.173
 4316TIP3    H212892   1.167   0.381   4.047
 4317TIP3   OH212893   6.147   6.600   5.114
 4317TIP3    H112894   6.216   6.577   5.052
 4317TIP3    H212895   6.068   6.560   5.077
 4318TIP3   OH212896   7.704   0.351   1.602
 4318TIP3    H112897   7.699   0.275   1.659
 4318TIP3    H212898   7.613   0.380   1.591
 4319TIP3   OH212899   3.991   4.939   2.174
 4319TIP3    H112900   3.964   5.030   2.168
 4319TIP3    H212901   3.909   4.890   2.181
 4320TIP3   OH212902   3.930   7.736   6.214
 4320TIP3    H112903   4.001   7.726   6.150
 4320TIP3    H212904   3.858   7.774   6.163
 4321TIP3   OH212905   8.255   2.371   4.562
 4321TIP3    H112906   8.193   2.299   4.552
 4321TIP3    H212907   8.268   2.377   4.657
 4322TIP3   OH212908   0.669   1.389   6.768
 4322TIP3    H112909   0.693   1.298   6.784
 4322TIP3    H212910   0.745   1.427   6.725
 4323TIP3   OH212911   6.054   1.412   3.783
 4323TIP3    H112912   6.038   1.356   3.707
 4323TIP3    H212913   6.096   1.490   3.748
 4324TIP3   OH212914   2.662   1.463   1.642
 4324TIP3    H112915   2.648   1.375   1.605
 4324TIP3    H212916   2.618   1.521   1.580
 4325TIP3   OH212917   0.436   3.856   3.289
 4325TIP3    H112918   0.486   3.791   3.239
 4325TIP3    H212919   0.377   3.896   3.225
 4326TIP3   OH212920   1.295   5.376   6.750
 4326TIP3    H112921   1.279   5.307   6.814
 4326TIP3    H212922   1.335   5.331   6.676
 4327TIP3   OH212923   0.168   2.763   3.092
 4327TIP3    H112924   0.140   2.752   3.183
 4327TIP3    H212925   0.245   2.707   3.084
 4328TIP3   OH212926   3.663   7.289   0.400
 4328TIP3    H112927   3.586   7.236   0.382
 4328TIP3    H212928   3.629   7.376   0.419
 4329TIP3   OH212929   5.097   4.367   1.093
 4329TIP3    H112930   5.164   4.403   1.035
 4329TIP3    H212931   5.032   4.328   1.034
 4330TIP3   OH212932   3.498   5.854   4.376
 4330TIP3    H112933   3.486   5.876   4.468
 4330TIP3    H212934   3.571   5.908   4.347
 4331TIP3   OH212935   7.442   7.710   0.085
 4331TIP3    H112936   7.534   7.685   0.088
 4331TIP3    H212937   7.441   7.801   0.113
 4332TIP3   OH212938   5.776   0.908   5.731
 4332TIP3    H112939   5.841   0.838   5.737
 4332TIP3    H212940   5.693   0.864   5.713
 4333TIP3   OH212941   0.918   3.237   1.583
 4333TIP3    H112942   0.920   3.152   1.626
 4333TIP3    H212943   0.985   3.288   1.627
 4334TIP3   OH212944   1.513   5.423   4.821
 4334TIP3    H112945   1.477   5.434   4.733
 4334TIP3    H212946   1.514   5.328   4.835
 4335TIP3   OH212947   3.527   0.858   6.674
 4335TIP3    H112948   3.520   0.930   6.611
 4335TIP3    H212949   3.576   0.895   6.747
 4336TIP3   OH212950   1.866   3.260   0.427
 4336TIP3    H112951   1.851   3.177   0.382
 4336TIP3    H212952   1.796   3.318   0.396
 4337TIP3   OH212953   0.484   3.047   6.228
 4337TIP3    H112954   0.506   2.954   6.239
 4337TIP3    H212955   0.469   3.057   6.134
 4338TIP3   OH212956   3.826   7.594   3.764
 4338TIP3    H112957   3.763   7.522   3.768
 4338TIP3    H212958   3.857   7.594   3.673
 4339TIP3   OH212959   7.403   1.561   2.020
 4339TIP3    H112960   7.449   1.561   2.104
 4339TIP3    H212961   7.407   1.470   1.991
 4340TIP3   OH212962   0.730   0.719   1.375
 4340TIP3    H112963   0.814   0.745   1.338
 4340TIP3    H212964   0.666   0.738   1.306
 4341TIP3   OH212965   0.813   6.751   1.807
 4341TIP3    H112966   0.775   6.683   1.863
 4341TIP3    H212967   0.804   6.717   1.718
 4342TIP3   OH212968   1.326   5.133   2.009
 4342TIP3    H112969   1.245   5.101   2.048
 4342TIP3    H212970   1.310   5.227   1.995
 4343TIP3   OH212971   2.768   5.104   4.099
 4343TIP3    H112972   2.756   5.017   4.137
 4343TIP3    H212973   2.681   5.130   4.071
 4344TIP3   OH212974   3.574   0.683   1.121
 4344TIP3    H112975   3.480   0.691   1.134
 4344TIP3    H212976   3.594   0.592   1.144
 4345TIP3   OH212977   5.935   4.417   0.908
 4345TIP3    H112978   5.924   4.480   0.979
 4345TIP3    H212979   5.914   4.466   0.829
 4346TIP3   OH212980   4.391   3.726   6.703
 4346TIP3    H112981   4.487   3.730   6.699
 4346TIP3    H212982   4.361   3.779   6.629
 4347TIP3   OH212983   1.631   0.390   3.772
 4347TIP3    H112984   1.696   0.348   3.829
 4347TIP3    H212985   1.557   0.329   3.770
 4348TIP3   OH212986   2.946   6.940   0.546
 4348TIP3    H112987   2.886   6.890   0.601
 4348TIP3    H212988   2.992   6.998   0.607
 4349TIP3   OH212989   1.345   1.491   0.358
 4349TIP3    H112990   1.285   1.459   0.291
 4349TIP3    H212991   1.413   1.537   0.308
 4350TIP3   OH212992   4.520   0.109   2.451
 4350TIP3    H112993   4.570   0.115   2.370
 4350TIP3    H212994   4.564   0.169   2.511
 4351TIP3   OH212995   5.950   2.141   1.575
 4351TIP3    H112996   5.912   2.147   1.487
 4351TIP3    H212997   6.019   2.075   1.567
 4352TIP3   OH212998   6.519   0.036   3.182
 4352TIP3    H112999   6.454   0.036   3.252
 4352TIP3    H213000   6.603   0.031   3.227
 4353TIP3   OH213001   5.131   4.977   0.264
 4353TIP3    H113002   5.145   5.011   0.352
 4353TIP3    H213003   5.190   5.028   0.209
 4354TIP3   OH213004   6.390   7.234   5.200
 4354TIP3    H113005   6.305   7.202   5.231
 4354TIP3    H213006   6.447   7.226   5.277
 4355TIP3   OH213007   3.148   2.893   1.450
 4355TIP3    H113008   3.072   2.923   1.499
 4355TIP3    H213009   3.142   2.938   1.366
 4356TIP3   OH213010   7.689   3.202   2.905
 4356TIP3    H113011   7.769   3.196   2.958
 4356TIP3    H213012   7.624   3.151   2.954
 4357TIP3   OH213013   4.318   0.104   1.602
 4357TIP3    H113014   4.403   0.060   1.606
 4357TIP3    H213015   4.255   0.032   1.602
 4358TIP3   OH213016   2.953   2.117   1.752
 4358TIP3    H113017   2.946   2.030   1.713
 4358TIP3    H213018   2.959   2.176   1.677
 4359TIP3   OH213019   0.786   5.673   1.272
 4359TIP3    H113020   0.876   5.673   1.241
 4359TIP3    H213021   0.751   5.757   1.243
 4360TIP3   OH213022   6.184   3.720   4.242
 4360TIP3    H113023   6.260   3.717   4.184
 4360TIP3    H213024   6.112   3.746   4.185
 4361TIP3   OH213025   7.500   2.706   2.483
 4361TIP3    H113026   7.470   2.617   2.460
 4361TIP3    H213027   7.452   2.763   2.423
 4362TIP3   OH213028   5.929   6.007   6.062
 4362TIP3    H113029   5.887   5.921   6.053
 4362TIP3    H213030   5.898   6.040   6.146
 4363TIP3   OH213031   0.556   6.719   4.148
 4363TIP3    H113032   0.559   6.694   4.056
 4363TIP3    H213033   0.463   6.727   4.168
 4364TIP3   OH213034   0.939   4.807   0.215
 4364TIP3    H113035   0.997   4.780   0.287
 4364TIP3    H213036   0.875   4.864   0.257
 4365TIP3   OH213037   1.211   5.874   0.178
 4365TIP3    H113038   1.242   5.794   0.222
 4365TIP3    H213039   1.288   5.931   0.177
 4366TIP3   OH213040   2.597   4.158   0.675
 4366TIP3    H113041   2.586   4.178   0.768
 4366TIP3    H213042   2.598   4.243   0.632
 4367TIP3   OH213043   6.383   2.164   6.254
 4367TIP3    H113044   6.341   2.144   6.338
 4367TIP3    H213045   6.341   2.104   6.192
 4368TIP3   OH213046   4.464   5.784   1.150
 4368TIP3    H113047   4.531   5.733   1.104
 4368TIP3    H213048   4.508   5.865   1.174
 4369TIP3   OH213049   7.502   6.383   6.000
 4369TIP3    H113050   7.588   6.420   6.018
 4369TIP3    H213051   7.468   6.434   5.927
 4370TIP3   OH213052   5.784   1.557   4.326
 4370TIP3    H113053   5.705   1.530   4.278
 4370TIP3    H213054   5.829   1.615   4.265
 4371TIP3   OH213055   4.801   3.342   3.889
 4371TIP3    H113056   4.749   3.334   3.809
 4371TIP3    H213057   4.793   3.435   3.914
 4372TIP3   OH213058   4.062   1.764   4.110
 4372TIP3    H113059   4.122   1.835   4.134
 4372TIP3    H213060   4.073   1.698   4.178
 4373TIP3   OH213061   0.634   2.662   1.667
 4373TIP3    H113062   0.601   2.750   1.688
 4373TIP3    H213063   0.725   2.663   1.695
 4374TIP3   OH213064   3.686   4.866   6.483
 4374TIP3    H113065   3.745   4.822   6.544
 4374TIP3    H213066   3.741   4.888   6.407
 4375TIP3   OH213067   5.907   4.096   0.576
 4375TIP3    H113068   5.936   4.005   0.584
 4375TIP3    H213069   5.898   4.127   0.667
 4376TIP3   OH213070   4.997   7.346   4.676
 4376TIP3    H113071   5.060   7.274   4.670
 4376TIP3    H213072   4.920   7.314   4.628
 4377TIP3   OH213073   4.130   1.573   5.265
 4377TIP3    H113074   4.171   1.645   5.313
 4377TIP3    H213075   4.144   1.496   5.321
 4378TIP3   OH213076   6.580   2.903   5.414
 4378TIP3    H113077   6.625   2.927   5.332
 4378TIP3    H213078   6.489   2.889   5.388
 4379TIP3   OH213079   3.789   7.320   4.046
 4379TIP3    H113080   3.700   7.286   4.051
 4379TIP3    H213081   3.819   7.298   3.958
 4380TIP3   OH213082   7.563   6.533   2.205
 4380TIP3    H113083   7.636   6.475   2.185
 4380TIP3    H213084   7.506   6.482   2.263
 4381TIP3   OH213085   4.194   1.599   1.898
 4381TIP3    H113086   4.122   1.576   1.839
 4381TIP3    H213087   4.151   1.630   1.978
 4382TIP3   OH213088   6.778   1.352   5.032
 4382TIP3    H113089   6.872   1.353   5.052
 4382TIP3    H213090   6.762   1.437   4.991
 4383TIP3   OH213091   6.621   1.804   2.562
 4383TIP3    H113092   6.543   1.788   2.615
 4383TIP3    H213093   6.669   1.721   2.563
 4384TIP3   OH213094   3.711   3.102   0.720
 4384TIP3    H113095   3.806   3.108   0.706
 4384TIP3    H213096   3.696   3.012   0.748
 4385TIP3   OH213097   6.055   5.659   4.362
 4385TIP3    H113098   6.010   5.708   4.293
 4385TIP3    H213099   6.057   5.569   4.330
 4386TIP3   OH213100   5.408   4.667   2.234
 4386TIP3    H113101   5.322   4.698   2.262
 4386TIP3    H213102   5.434   4.728   2.164
 4387TIP3   OH213103   4.180   6.124   6.258
 4387TIP3    H113104   4.112   6.121   6.325
 4387TIP3    H213105   4.144   6.073   6.185
 4388TIP3   OH213106   4.570   6.784   3.287
 4388TIP3    H113107   4.500   6.757   3.346
 4388TIP3    H213108   4.545   6.872   3.259
 4389TIP3   OH213109   1.505   2.849   2.527
 4389TIP3    H113110   1.492   2.760   2.494
 4389TIP3    H213111   1.417   2.884   2.538
 4390TIP3   OH213112   0.201   4.351   2.005
 4390TIP3    H113113   0.262   4.413   2.045
 4390TIP3    H213114   0.178   4.291   2.077
 4391TIP3   OH213115   1.624   3.716   6.398
 4391TIP3    H113116   1.687   3.665   6.449
 4391TIP3    H213117   1.657   3.806   6.403
 4392TIP3   OH213118   3.125   7.111   0.677
 4392TIP3    H113119   3.149   7.084   0.766
 4392TIP3    H213120   3.208   7.112   0.629
 4393TIP3   OH213121   6.806   7.648   2.181
 4393TIP3    H113122   6.735   7.630   2.119
 4393TIP3    H213123   6.803   7.743   2.194
 4394TIP3   OH213124   1.833   6.558   4.451
 4394TIP3    H113125   1.870   6.647   4.451
 4394TIP3    H213126   1.860   6.521   4.367
 4395TIP3   OH213127   7.002   5.786   2.727
 4395TIP3    H113128   7.047   5.845   2.667
 4395TIP3    H213129   6.974   5.842   2.799
 4396TIP3   OH213130   5.304   2.133   3.188
 4396TIP3    H113131   5.364   2.097   3.253
 4396TIP3    H213132   5.337   2.101   3.104
 4397TIP3   OH213133   2.883   6.035   0.124
 4397TIP3    H113134   2.846   6.087   0.195
 4397TIP3    H213135   2.963   6.082   0.099
 4398TIP3   OH213136   4.632   0.194   6.680
 4398TIP3    H113137   4.539   0.201   6.658
 4398TIP3    H213138   4.643   0.103   6.706
 4399TIP3   OH213139   2.732   5.240   5.312
 4399TIP3    H113140   2.700   5.228   5.402
 4399TIP3    H213141   2.790   5.316   5.317
 4400TIP3   OH213142   2.727   1.585   4.454
 4400TIP3    H113143   2.794   1.634   4.407
 4400TIP3    H213144   2.657   1.649   4.469
 4401TIP3   OH213145   6.487   0.682   4.055
 4401TIP3    H113146   6.403   0.674   4.102
 4401TIP3    H213147   6.465   0.733   3.977
 4402TIP3   OH213148   2.899   4.922   3.933
 4402TIP3    H113149   2.854   4.979   3.996
 4402TIP3    H213150   2.838   4.915   3.860
 4403TIP3   OH213151   6.179   1.295   4.494
 4403TIP3    H113152   6.241   1.292   4.421
 4403TIP3    H213153   6.098   1.330   4.455
 4404TIP3   OH213154   7.759   5.048   1.443
 4404TIP3    H113155   7.765   4.953   1.458
 4404TIP3    H213156   7.706   5.056   1.364
 4405TIP3   OH213157   1.670   1.078   3.580
 4405TIP3    H113158   1.698   1.094   3.670
 4405TIP3    H213159   1.574   1.079   3.585
 4406TIP3   OH213160   4.287   3.929   0.318
 4406TIP3    H113161   4.257   3.946   0.408
 4406TIP3    H213162   4.252   3.842   0.297
 4407TIP3   OH213163   6.898   5.476   4.015
 4407TIP3    H113164   6.881   5.386   3.987
 4407TIP3    H213165   6.816   5.522   3.997
 4408TIP3   OH213166   3.869   3.763   1.688
 4408TIP3    H113167   3.862   3.856   1.706
 4408TIP3    H213168   3.881   3.722   1.774
 4409TIP3   OH213169   4.724   2.309   2.249
 4409TIP3    H113170   4.721   2.304   2.153
 4409TIP3    H213171   4.635   2.289   2.277
 4410TIP3   OH213172   1.834   3.931   5.366
 4410TIP3    H113173   1.817   4.020   5.336
 4410TIP3    H213174   1.928   3.918   5.351
 4411TIP3   OH213175   5.326   0.587   5.461
 4411TIP3    H113176   5.327   0.658   5.525
 4411TIP3    H213177   5.418   0.574   5.439
 4412TIP3   OH213178   7.673   7.711   3.706
 4412TIP3    H113179   7.656   7.643   3.641
 4412TIP3    H213180   7.704   7.664   3.783
 4413TIP3   OH213181   3.930   7.131   2.986
 4413TIP3    H113182   3.994   7.064   2.966
 4413TIP3    H213183   3.902   7.113   3.076
 4414TIP3   OH213184   0.343   2.931   6.779
 4414TIP3    H113185   0.363   2.961   6.690
 4414TIP3    H213186   0.268   2.984   6.805
 4415TIP3   OH213187   2.986   4.475   4.682
 4415TIP3    H113188   3.067   4.506   4.722
 4415TIP3    H213189   2.941   4.428   4.752
 4416TIP3   OH213190   5.348   1.631   1.867
 4416TIP3    H113191   5.348   1.547   1.820
 4416TIP3    H213192   5.406   1.687   1.816
 4417TIP3   OH213193   2.718   5.451   1.516
 4417TIP3    H113194   2.736   5.541   1.487
 4417TIP3    H213195   2.788   5.399   1.479
 4418TIP3   OH213196   1.521   6.485   2.197
 4418TIP3    H113197   1.479   6.506   2.281
 4418TIP3    H213198   1.500   6.392   2.182
 4419TIP3   OH213199   7.674   7.590   3.997
 4419TIP3    H113200   7.749   7.568   4.053
 4419TIP3    H213201   7.653   7.680   4.019
 4420TIP3   OH213202   0.160   6.251   5.496
 4420TIP3    H113203   0.151   6.268   5.403
 4420TIP3    H213204   0.253   6.235   5.510
 4421TIP3   OH213205   1.303   0.345   4.418
 4421TIP3    H113206   1.226   0.338   4.475
 4421TIP3    H213207   1.271   0.392   4.341
 4422TIP3   OH213208   1.695   2.237   1.753
 4422TIP3    H113209   1.754   2.255   1.827
 4422TIP3    H213210   1.629   2.305   1.758
 4423TIP3   OH213211   0.435   3.840   1.429
 4423TIP3    H113212   0.448   3.749   1.457
 4423TIP3    H213213   0.340   3.851   1.426
 4424TIP3   OH213214   1.957   3.960   5.068
 4424TIP3    H113215   1.886   3.932   5.010
 4424TIP3    H213216   1.914   4.014   5.134
 4425TIP3   OH213217   3.907   2.972   2.131
 4425TIP3    H113218   3.961   3.007   2.201
 4425TIP3    H213219   3.891   2.881   2.155
 4426TIP3   OH213220   2.571   0.967   6.479
 4426TIP3    H113221   2.613   0.919   6.408
 4426TIP3    H213222   2.624   1.047   6.489
 4427TIP3   OH213223   2.852   6.588   5.438
 4427TIP3    H113224   2.855   6.630   5.352
 4427TIP3    H213225   2.913   6.514   5.430
 4428TIP3   OH213226   7.332   6.079   4.770
 4428TIP3    H113227   7.309   6.066   4.678
 4428TIP3    H213228   7.257   6.127   4.807
 4429TIP3   OH213229   2.655   6.211   1.765
 4429TIP3    H113230   2.609   6.237   1.845
 4429TIP3    H213231   2.631   6.279   1.701
 4430TIP3   OH213232   1.641   7.085   2.111
 4430TIP3    H113233   1.588   7.157   2.146
 4430TIP3    H213234   1.577   7.023   2.076
 4431TIP3   OH213235   1.002   1.762   3.995
 4431TIP3    H113236   0.993   1.686   4.051
 4431TIP3    H213237   0.974   1.732   3.909
 4432TIP3   OH213238   5.255   7.688   5.509
 4432TIP3    H113239   5.322   7.619   5.509
 4432TIP3    H213240   5.179   7.648   5.550
 4433TIP3   OH213241   8.125   0.490   1.514
 4433TIP3    H113242   8.083   0.426   1.456
 4433TIP3    H213243   8.182   0.438   1.570
 4434TIP3   OH213244   4.453   3.156   4.104
 4434TIP3    H113245   4.487   3.074   4.139
 4434TIP3    H213246   4.362   3.159   4.135
 4435TIP3   OH213247   2.225   1.728   1.000
 4435TIP3    H113248   2.201   1.708   1.090
 4435TIP3    H213249   2.167   1.801   0.975
 4436TIP3   OH213250   6.628   7.330   6.553
 4436TIP3    H113251   6.707   7.350   6.603
 4436TIP3    H213252   6.613   7.408   6.500
 4437TIP3   OH213253   3.617   5.158   1.469
 4437TIP3    H113254   3.656   5.111   1.542
 4437TIP3    H213255   3.561   5.224   1.510
 4438TIP3   OH213256   2.404   2.926   1.799
 4438TIP3    H113257   2.458   2.940   1.877
 4438TIP3    H213258   2.399   2.831   1.790
 4439TIP3   OH213259   5.442   2.100   6.085
 4439TIP3    H113260   5.443   2.096   6.181
 4439TIP3    H213261   5.478   2.016   6.058
 4440TIP3   OH213262   8.009   2.498   0.074
 4440TIP3    H113263   7.970   2.562   0.015
 4440TIP3    H213264   8.101   2.495   0.048
 4441TIP3   OH213265   3.938   5.738   0.760
 4441TIP3    H113266   4.001   5.669   0.779
 4441TIP3    H213267   3.985   5.798   0.701
 4442TIP3   OH213268   4.083   6.115   1.966
 4442TIP3    H113269   4.059   6.207   1.976
 4442TIP3    H213270   4.017   6.067   2.015
 4443TIP3   OH213271   1.229   5.489   4.871
 4443TIP3    H113272   1.283   5.566   4.888
 4443TIP3    H213273   1.232   5.478   4.776
 4444TIP3   OH213274   0.858   1.077   4.877
 4444TIP3    H113275   0.936   1.029   4.905
 4444TIP3    H213276   0.785   1.031   4.918
 4445TIP3   OH213277   1.000   4.228   2.934
 4445TIP3    H113278   1.015   4.147   2.984
 4445TIP3    H213279   0.913   4.217   2.897
 4446TIP3   OH213280   3.734   2.054   3.648
 4446TIP3    H113281   3.809   2.026   3.595
 4446TIP3    H213282   3.757   2.029   3.737
 4447TIP3   OH213283   4.217   4.372   0.162
 4447TIP3    H113284   4.249   4.434   0.228
 4447TIP3    H213285   4.284   4.372   0.094
 4448TIP3   OH213286   3.811   3.798   6.584
 4448TIP3    H113287   3.772   3.799   6.671
 4448TIP3    H213288   3.778   3.718   6.544
 4449TIP3   OH213289   1.704   4.549   0.224
 4449TIP3    H113290   1.751   4.493   0.286
 4449TIP3    H213291   1.769   4.571   0.158
 4450TIP3   OH213292   7.266   1.780   6.267
 4450TIP3    H113293   7.356   1.811   6.275
 4450TIP3    H213294   7.244   1.748   6.354
 4451TIP3   OH213295   2.372   7.222   1.397
 4451TIP3    H113296   2.345   7.213   1.306
 4451TIP3    H213297   2.293   7.251   1.443
 4452TIP3   OH213298   4.609   6.174   5.139
 4452TIP3    H113299   4.587   6.259   5.177
 4452TIP3    H213300   4.645   6.194   5.053
 4453TIP3   OH213301   0.751   1.867   3.677
 4453TIP3    H113302   0.774   1.955   3.706
 4453TIP3    H213303   0.668   1.848   3.721
 4454TIP3   OH213304   1.347   6.632   0.705
 4454TIP3    H113305   1.409   6.616   0.776
 4454TIP3    H213306   1.402   6.649   0.629
 4455TIP3   OH213307   1.028   2.247   0.189
 4455TIP3    H113308   0.953   2.233   0.248
 4455TIP3    H213309   1.095   2.287   0.244
 4456TIP3   OH213310   7.702   1.440   5.289
 4456TIP3    H113311   7.683   1.528   5.256
 4456TIP3    H213312   7.772   1.453   5.352
 4457TIP3   OH213313   3.954   6.544   5.539
 4457TIP3    H113314   4.031   6.525   5.485
 4457TIP3    H213315   3.881   6.505   5.492
 4458TIP3   OH213316   7.374   6.020   4.058
 4458TIP3    H113317   7.322   5.965   4.116
 4458TIP3    H213318   7.459   6.027   4.102
 4459TIP3   OH213319   0.208   1.698   4.877
 4459TIP3    H113320   0.302   1.697   4.896
 4459TIP3    H213321   0.166   1.677   4.960
 4460TIP3   OH213322   0.165   7.472   1.677
 4460TIP3    H113323   0.189   7.560   1.708
 4460TIP3    H213324   0.079   7.456   1.716
 4461TIP3   OH213325   5.939   2.611   4.118
 4461TIP3    H113326   5.959   2.703   4.132
 4461TIP3    H213327   5.922   2.604   4.024
 4462TIP3   OH213328   6.496   2.544   0.623
 4462TIP3    H113329   6.559   2.473   0.616
 4462TIP3    H213330   6.530   2.612   0.565
 4463TIP3   OH213331   5.864   2.869   6.098
 4463TIP3    H113332   5.932   2.803   6.109
 4463TIP3    H213333   5.911   2.947   6.069
 4464TIP3   OH213334   1.129   2.443   0.891
 4464TIP3    H113335   1.129   2.403   0.804
 4464TIP3    H213336   1.188   2.388   0.943
 4465TIP3   OH213337   3.286   5.432   1.032
 4465TIP3    H113338   3.336   5.353   1.053
 4465TIP3    H213339   3.257   5.466   1.117
 4466TIP3   OH213340   7.498   0.335   3.775
 4466TIP3    H113341   7.426   0.368   3.828
 4466TIP3    H213342   7.457   0.271   3.716
 4467TIP3   OH213343   2.158   1.480   6.174
 4467TIP3    H113344   2.115   1.396   6.191
 4467TIP3    H213345   2.088   1.544   6.176
 4468TIP3   OH213346   6.286   0.150   6.141
 4468TIP3    H113347   6.317   0.215   6.079
 4468TIP3    H213348   6.242   0.084   6.088
 4469TIP3   OH213349   3.675   3.054   3.379
 4469TIP3    H113350   3.652   2.963   3.360
 4469TIP3    H213351   3.731   3.079   3.305
 4470TIP3   OH213352   0.127   1.328   0.764
 4470TIP3    H113353   0.098   1.411   0.725
 4470TIP3    H213354   0.131   1.347   0.858
 4471TIP3   OH213355   2.257   5.671   0.334
 4471TIP3    H113356   2.277   5.577   0.335
 4471TIP3    H213357   2.271   5.698   0.243
 4472TIP3   OH213358   6.921   6.186   6.453
 4472TIP3    H113359   6.879   6.271   6.441
 4472TIP3    H213360   6.989   6.183   6.387
 4473TIP3   OH213361   1.931   7.220   1.258
 4473TIP3    H113362   1.906   7.205   1.168
 4473TIP3    H213363   1.899   7.308   1.277
 4474TIP3   OH213364   5.882   4.606   0.703
 4474TIP3    H113365   5.823   4.585   0.631
 4474TIP3    H213366   5.925   4.687   0.676
 4475TIP3   OH213367   2.337   2.508   4.705
 4475TIP3    H113368   2.291   2.504   4.621
 4475TIP3    H213369   2.334   2.418   4.738
 4476TIP3   OH213370   0.365   5.405   4.835
 4476TIP3    H113371   0.409   5.467   4.777
 4476TIP3    H213372   0.434   5.376   4.895
 4477TIP3   OH213373   1.519   6.602   4.159
 4477TIP3    H113374   1.595   6.544   4.169
 4477TIP3    H213375   1.548   6.685   4.198
 4478TIP3   OH213376   7.930   6.990   1.127
 4478TIP3    H113377   7.964   6.946   1.049
 4478TIP3    H213378   7.981   6.952   1.199
 4479TIP3   OH213379   4.735   6.183   0.606
 4479TIP3    H113380   4.758   6.253   0.667
 4479TIP3    H213381   4.711   6.109   0.662
 4480TIP3   OH213382   3.024   1.615   2.305
 4480TIP3    H113383   3.042   1.708   2.308
 4480TIP3    H213384   3.086   1.576   2.367
 4481TIP3   OH213385   0.074   2.291   2.771
 4481TIP3    H113386   0.032   2.333   2.696
 4481TIP3    H213387   0.005   2.237   2.809
 4482TIP3   OH213388   0.766   5.013   2.138
 4482TIP3    H113389   0.758   4.974   2.051
 4482TIP3    H213390   0.685   4.990   2.183
 4483TIP3   OH213391   6.607   3.508   2.400
 4483TIP3    H113392   6.632   3.416   2.408
 4483TIP3    H213393   6.530   3.507   2.343
 4484TIP3   OH213394   2.963   3.166   1.843
 4484TIP3    H113395   3.039   3.150   1.898
 4484TIP3    H213396   2.975   3.256   1.811
 4485TIP3   OH213397   1.423   2.438   0.707
 4485TIP3    H113398   1.429   2.399   0.794
 4485TIP3    H213399   1.473   2.380   0.650
 4486TIP3   OH213400   1.968   7.776   4.718
 4486TIP3    H113401   1.924   7.812   4.795
 4486TIP3    H213402   2.057   7.757   4.748
 4487TIP3   OH213403   4.696   2.679   3.651
 4487TIP3    H113404   4.716   2.772   3.661
 4487TIP3    H213405   4.781   2.636   3.647
 4488TIP3   OH213406   3.729   4.317   1.787
 4488TIP3    H113407   3.653   4.306   1.844
 4488TIP3    H213408   3.792   4.252   1.818
 4489TIP3   OH213409   2.775   7.137   5.338
 4489TIP3    H113410   2.704   7.201   5.341
 4489TIP3    H213411   2.731   7.054   5.319
 4490TIP3   OH213412   0.045   3.891   3.159
 4490TIP3    H113413   0.046   3.894   3.064
 4490TIP3    H213414   0.058   3.982   3.186
 4491TIP3   OH213415   3.833   2.152   6.237
 4491TIP3    H113416   3.813   2.209   6.163
 4491TIP3    H213417   3.809   2.204   6.314
 4492TIP3   OH213418   6.661   6.997   5.139
 4492TIP3    H113419   6.741   7.011   5.088
 4492TIP3    H213420   6.590   7.004   5.074
 4493TIP3   OH213421   6.003   7.729   0.289
 4493TIP3    H113422   6.025   7.649   0.335
 4493TIP3    H213423   5.907   7.732   0.290
 4494TIP3   OH213424   2.089   6.914   2.776
 4494TIP3    H113425   2.040   6.996   2.768
 4494TIP3    H213426   2.180   6.941   2.780
 4495TIP3   OH213427   5.278   0.216   2.771
 4495TIP3    H113428   5.240   0.146   2.824
 4495TIP3    H213429   5.366   0.185   2.749
 4496TIP3   OH213430   2.096   1.911   5.016
 4496TIP3    H113431   2.174   1.951   4.976
 4496TIP3    H213432   2.096   1.945   5.106
 4497TIP3   OH213433   7.606   0.011   0.574
 4497TIP3    H113434   7.586   0.033   0.665
 4497TIP3    H213435   7.582  -0.081   0.565
 4498TIP3   OH213436   4.605  -0.006   1.590
 4498TIP3    H113437   4.597  -0.071   1.659
 4498TIP3    H213438   4.682   0.046   1.615
 4499TIP3   OH213439   5.834   6.895   2.910
 4499TIP3    H113440   5.838   6.895   2.814
 4499TIP3    H213441   5.764   6.834   2.931
 4500TIP3   OH213442   5.781   6.451   5.766
 4500TIP3    H113443   5.849   6.418   5.825
 4500TIP3    H213444   5.758   6.375   5.712
 4501TIP3   OH213445   4.815   2.758   1.756
 4501TIP3    H113446   4.756   2.745   1.682
 4501TIP3    H213447   4.847   2.670   1.777
 4502TIP3   OH213448   5.862   1.908   6.219
 4502TIP3    H113449   5.884   1.997   6.192
 4502TIP3    H213450   5.946   1.862   6.222
 4503TIP3   OH213451   0.235   7.372   2.545
 4503TIP3    H113452   0.280   7.338   2.467
 4503TIP3    H213453   0.159   7.315   2.555
 4504TIP3   OH213454   2.410   5.569   5.781
 4504TIP3    H113455   2.364   5.507   5.837
 4504TIP3    H213456   2.402   5.533   5.693
 4505TIP3   OH213457   2.465   1.759   4.979
 4505TIP3    H113458   2.470   1.708   5.060
 4505TIP3    H213459   2.513   1.707   4.915
 4506TIP3   OH213460   1.293   1.374   4.459
 4506TIP3    H113461   1.302   1.373   4.364
 4506TIP3    H213462   1.373   1.333   4.491
 4507TIP3   OH213463   3.572   6.208   3.845
 4507TIP3    H113464   3.520   6.186   3.922
 4507TIP3    H213465   3.560   6.134   3.786
 4508TIP3   OH213466   5.553   7.303   2.253
 4508TIP3    H113467   5.515   7.230   2.204
 4508TIP3    H213468   5.500   7.379   2.228
 4509TIP3   OH213469   5.464   5.992   2.970
 4509TIP3    H113470   5.463   5.897   2.960
 4509TIP3    H213471   5.389   6.023   2.919
 4510TIP3   OH213472   7.789   1.371   1.620
 4510TIP3    H113473   7.734   1.380   1.698
 4510TIP3    H213474   7.776   1.281   1.592
 4511TIP3   OH213475   7.918   5.419   0.825
 4511TIP3    H113476   7.936   5.480   0.754
 4511TIP3    H213477   7.853   5.358   0.788
 4512TIP3   OH213478   0.373   6.868   1.964
 4512TIP3    H113479   0.348   6.902   1.878
 4512TIP3    H213480   0.331   6.782   1.969
 4513TIP3   OH213481   4.505   6.918   0.996
 4513TIP3    H113482   4.494   6.918   0.901
 4513TIP3    H213483   4.437   6.976   1.029
 4514TIP3   OH213484   8.135   0.317   0.840
 4514TIP3    H113485   8.185   0.332   0.760
 4514TIP3    H213486   8.082   0.239   0.821
 4515TIP3   OH213487   1.774   1.856   1.477
 4515TIP3    H113488   1.796   1.768   1.447
 4515TIP3    H213489   1.843   1.878   1.539
 4516TIP3   OH213490   5.990   6.565   1.573
 4516TIP3    H113491   6.081   6.577   1.600
 4516TIP3    H213492   5.995   6.546   1.480
 4517TIP3   OH213493   2.534   1.976   3.565
 4517TIP3    H113494   2.457   1.949   3.514
 4517TIP3    H213495   2.573   2.047   3.514
 4518TIP3   OH213496   1.497   2.208   5.093
 4518TIP3    H113497   1.438   2.249   5.030
 4518TIP3    H213498   1.568   2.171   5.040
 4519TIP3   OH213499   0.551   0.117   6.280
 4519TIP3    H113500   0.598   0.037   6.259
 4519TIP3    H213501   0.583   0.181   6.216
 4520TIP3   OH213502   4.708   3.826   6.120
 4520TIP3    H113503   4.721   3.920   6.109
 4520TIP3    H213504   4.626   3.819   6.169
 4521TIP3   OH213505   1.146   3.785   6.560
 4521TIP3    H113506   1.237   3.807   6.541
 4521TIP3    H213507   1.127   3.831   6.642
 4522TIP3   OH213508   4.223   2.032   5.676
 4522TIP3    H113509   4.240   1.953   5.727
 4522TIP3    H213510   4.129   2.032   5.662
 4523TIP3   OH213511   6.733   0.527   0.733
 4523TIP3    H113512   6.804   0.477   0.772
 4523TIP3    H213513   6.658   0.468   0.735
 4524TIP3   OH213514   3.079   1.525   3.539
 4524TIP3    H113515   3.159   1.518   3.590
 4524TIP3    H213516   3.046   1.436   3.533
 4525TIP3   OH213517   6.895   5.859   5.949
 4525TIP3    H113518   6.880   5.844   5.855
 4525TIP3    H213519   6.907   5.954   5.956
 4526TIP3   OH213520   1.299   5.863   1.103
 4526TIP3    H113521   1.380   5.901   1.137
 4526TIP3    H213522   1.268   5.927   1.038
 4527TIP3   OH213523   5.788   5.216   0.414
 4527TIP3    H113524   5.816   5.126   0.395
 4527TIP3    H213525   5.870   5.263   0.429
 4528TIP3   OH213526   4.009   7.166   2.322
 4528TIP3    H113527   4.097   7.201   2.335
 4528TIP3    H213528   4.007   7.140   2.230
 4529TIP3   OH213529   3.504   3.541   5.617
 4529TIP3    H113530   3.440   3.515   5.551
 4529TIP3    H213531   3.564   3.599   5.571
 4530TIP3   OH213532   4.810   2.143   5.381
 4530TIP3    H113533   4.801   2.216   5.442
 4530TIP3    H213534   4.733   2.150   5.324
 4531TIP3   OH213535   1.854   3.874   3.119
 4531TIP3    H113536   1.900   3.957   3.129
 4531TIP3    H213537   1.762   3.895   3.131
 4532TIP3   OH213538   1.442   1.685   5.921
 4532TIP3    H113539   1.513   1.623   5.907
 4532TIP3    H213540   1.386   1.676   5.844
 4533TIP3   OH213541   5.766   6.314   6.750
 4533TIP3    H113542   5.852   6.282   6.723
 4533TIP3    H213543   5.728   6.352   6.670
 4534TIP3   OH213544   1.504   0.194   2.043
 4534TIP3    H113545   1.474   0.280   2.011
 4534TIP3    H213546   1.527   0.146   1.964
 4535TIP3   OH213547   0.850   1.263   5.563
 4535TIP3    H113548   0.841   1.345   5.513
 4535TIP3    H213549   0.789   1.203   5.521
 4536TIP3   OH213550   1.945   2.269   0.153
 4536TIP3    H113551   1.938   2.245   0.060
 4536TIP3    H213552   2.018   2.330   0.156
 4537TIP3   OH213553   7.505   0.850   1.023
 4537TIP3    H113554   7.577   0.880   1.079
 4537TIP3    H213555   7.547   0.791   0.960
 4538TIP3   OH213556   6.125   2.958   0.510
 4538TIP3    H113557   6.086   3.034   0.552
 4538TIP3    H213558   6.146   2.899   0.583
 4539TIP3   OH213559   2.572   2.310   5.388
 4539TIP3    H113560   2.653   2.260   5.383
 4539TIP3    H213561   2.597   2.392   5.431
 4540TIP3   OH213562   1.469   4.473   6.296
 4540TIP3    H113563   1.491   4.455   6.205
 4540TIP3    H213564   1.503   4.398   6.344
 4541TIP3   OH213565   4.965   3.873   0.453
 4541TIP3    H113566   4.907   3.948   0.467
 4541TIP3    H213567   4.938   3.809   0.518
 4542TIP3   OH213568   1.035   0.218   0.654
 4542TIP3    H113569   0.950   0.256   0.631
 4542TIP3    H213570   1.072   0.189   0.571
 4543TIP3   OH213571   3.418   5.523   3.860
 4543TIP3    H113572   3.498   5.471   3.865
 4543TIP3    H213573   3.355   5.466   3.817
 4544TIP3   OH213574   7.544   2.062   3.893
 4544TIP3    H113575   7.456   2.099   3.896
 4544TIP3    H213576   7.535   1.974   3.931
 4545TIP3   OH213577   0.110   3.698   5.606
 4545TIP3    H113578   0.157   3.738   5.532
 4545TIP3    H213579   0.031   3.660   5.566
 4546TIP3   OH213580   3.184   0.924   5.504
 4546TIP3    H113581   3.242   0.897   5.432
 4546TIP3    H213582   3.221   1.007   5.535
 4547TIP3   OH213583   1.071   6.721   2.817
 4547TIP3    H113584   1.100   6.801   2.775
 4547TIP3    H213585   0.988   6.699   2.774
 4548TIP3   OH213586   3.212   7.533   5.274
 4548TIP3    H113587   3.145   7.574   5.220
 4548TIP3    H213588   3.165   7.498   5.350
 4549TIP3   OH213589   1.351   1.917   0.935
 4549TIP3    H113590   1.439   1.946   0.960
 4549TIP3    H213591   1.292   1.982   0.972
 4550TIP3   OH213592   8.202   3.109   5.497
 4550TIP3    H113593   8.156   3.034   5.534
 4550TIP3    H213594   8.264   3.135   5.565
 4551TIP3   OH213595   2.573   6.610   1.137
 4551TIP3    H113596   2.558   6.549   1.065
 4551TIP3    H213597   2.666   6.633   1.131
 4552TIP3   OH213598   4.562   3.075   4.924
 4552TIP3    H113599   4.592   3.008   4.985
 4552TIP3    H213600   4.639   3.098   4.872
 4553TIP3   OH213601   4.015   1.012   5.089
 4553TIP3    H113602   4.015   1.067   5.168
 4553TIP3    H213603   4.056   1.066   5.022
 4554TIP3   OH213604   8.129   6.409   4.580
 4554TIP3    H113605   8.218   6.405   4.545
 4554TIP3    H213606   8.127   6.342   4.648
 4555TIP3   OH213607   5.485   4.732   1.063
 4555TIP3    H113608   5.563   4.703   1.015
 4555TIP3    H213609   5.509   4.819   1.096
 4556TIP3   OH213610   7.996   7.242   1.456
 4556TIP3    H113611   8.021   7.153   1.482
 4556TIP3    H213612   8.004   7.294   1.536
 4557TIP3   OH213613   1.202   7.032   3.475
 4557TIP3    H113614   1.250   7.005   3.397
 4557TIP3    H213615   1.125   7.077   3.441
 4558TIP3   OH213616   7.554   1.903   5.267
 4558TIP3    H113617   7.541   1.973   5.204
 4558TIP3    H213618   7.536   1.943   5.352
 4559TIP3   OH213619   2.924   7.372   1.700
 4559TIP3    H113620   2.994   7.394   1.762
 4559TIP3    H213621   2.877   7.454   1.687
 4560TIP3   OH213622   1.270   1.718   6.415
 4560TIP3    H113623   1.243   1.788   6.474
 4560TIP3    H213624   1.270   1.758   6.328
 4561TIP3   OH213625   1.321   1.820   6.152
 4561TIP3    H113626   1.347   1.771   6.074
 4561TIP3    H213627   1.403   1.852   6.189
 4562TIP3   OH213628   3.147   6.942   2.053
 4562TIP3    H113629   3.214   6.970   2.116
 4562TIP3    H213630   3.160   6.848   2.044
 4563TIP3   OH213631   6.214   7.278   0.995
 4563TIP3    H113632   6.268   7.219   0.941
 4563TIP3    H213633   6.234   7.253   1.085
 4564TIP3   OH213634   3.401   0.582   0.790
 4564TIP3    H113635   3.489   0.596   0.825
 4564TIP3    H213636   3.395   0.641   0.715
 4565TIP3   OH213637   5.487   5.030   3.005
 4565TIP3    H113638   5.507   4.986   2.922
 4565TIP3    H213639   5.411   5.085   2.986
 4566TIP3   OH213640   5.520   4.999   0.247
 4566TIP3    H113641   5.504   4.909   0.217
 4566TIP3    H213642   5.575   4.989   0.324
 4567TIP3   OH213643   3.669   6.573   3.453
 4567TIP3    H113644   3.588   6.621   3.434
 4567TIP3    H213645   3.653   6.533   3.538
 4568TIP3   OH213646   3.623   0.571   1.982
 4568TIP3    H113647   3.689   0.624   2.026
 4568TIP3    H213648   3.651   0.480   1.998
 4569TIP3   OH213649   5.094   2.674   1.509
 4569TIP3    H113650   5.007   2.637   1.522
 4569TIP3    H213651   5.153   2.613   1.555
 4570TIP3   OH213652   4.511   3.478   2.401
 4570TIP3    H113653   4.535   3.479   2.309
 4570TIP3    H213654   4.546   3.394   2.433
 4571TIP3   OH213655   6.113   1.650   3.246
 4571TIP3    H113656   6.100   1.639   3.152
 4571TIP3    H213657   6.108   1.745   3.260
 4572TIP3   OH213658   5.292   3.628   6.346
 4572TIP3    H113659   5.384   3.656   6.346
 4572TIP3    H213660   5.257   3.664   6.264
 4573TIP3   OH213661   0.689   6.869   3.438
 4573TIP3    H113662   0.743   6.825   3.372
 4573TIP3    H213663   0.741   6.943   3.467
 4574TIP3   OH213664   5.080   1.215   6.439
 4574TIP3    H113665   5.091   1.228   6.345
 4574TIP3    H213666   5.035   1.294   6.469
 4575TIP3   OH213667   3.299   7.692   2.233
 4575TIP3    H113668   3.269   7.775   2.270
 4575TIP3    H213669   3.277   7.626   2.298
 4576TIP3   OH213670   6.011   3.369   1.469
 4576TIP3    H113671   6.057   3.309   1.411
 4576TIP3    H213672   6.036   3.456   1.438
 4577TIP3   OH213673   5.659   2.549   3.925
 4577TIP3    H113674   5.643   2.520   3.835
 4577TIP3    H213675   5.586   2.608   3.944
 4578TIP3   OH213676   4.096   2.282   0.190
 4578TIP3    H113677   4.161   2.304   0.258
 4578TIP3    H213678   4.142   2.221   0.132
 4579TIP3   OH213679   7.023   2.067   3.987
 4579TIP3    H113680   7.086   2.002   3.957
 4579TIP3    H213681   6.937   2.028   3.969
 4580TIP3   OH213682   3.145   6.507   3.454
 4580TIP3    H113683   3.123   6.566   3.526
 4580TIP3    H213684   3.207   6.445   3.492
 4581TIP3   OH213685   4.184   0.432   0.164
 4581TIP3    H113686   4.234   0.458   0.087
 4581TIP3    H213687   4.179   0.511   0.217
 4582TIP3   OH213688   5.247   3.367   6.783
 4582TIP3    H113689   5.261   3.451   6.739
 4582TIP3    H213690   5.234   3.304   6.712
 4583TIP3   OH213691   3.143   1.771   6.737
 4583TIP3    H113692   3.108   1.860   6.734
 4583TIP3    H213693   3.065   1.715   6.733
 4584TIP3   OH213694   2.894   2.265   1.285
 4584TIP3    H113695   2.927   2.257   1.374
 4584TIP3    H213696   2.804   2.295   1.296
 4585TIP3   OH213697   7.335   0.672   0.622
 4585TIP3    H113698   7.289   0.651   0.541
 4585TIP3    H213699   7.397   0.741   0.598
 4586TIP3   OH213700   2.594   2.788   2.410
 4586TIP3    H113701   2.603   2.719   2.344
 4586TIP3    H213702   2.513   2.766   2.456
 4587TIP3   OH213703   3.896   5.736   2.803
 4587TIP3    H113704   3.940   5.731   2.888
 4587TIP3    H213705   3.939   5.808   2.757
 4588TIP3   OH213706   6.736   1.620   1.913
 4588TIP3    H113707   6.766   1.541   1.958
 4588TIP3    H213708   6.717   1.591   1.824
 4589TIP3   OH213709   2.487   2.648   5.186
 4589TIP3    H113710   2.485   2.743   5.192
 4589TIP3    H213711   2.580   2.626   5.181
 4590TIP3   OH213712   7.551   6.864   5.362
 4590TIP3    H113713   7.509   6.922   5.425
 4590TIP3    H213714   7.478   6.822   5.315
 4591TIP3   OH213715   2.880   3.651   1.217
 4591TIP3    H113716   2.925   3.593   1.154
 4591TIP3    H213717   2.795   3.669   1.176
 4592TIP3   OH213718   2.024   1.300   4.709
 4592TIP3    H113719   2.084   1.373   4.727
 4592TIP3    H213720   1.937   1.336   4.725
 4593TIP3   OH213721   2.713   2.581   1.533
 4593TIP3    H113722   2.651   2.522   1.490
 4593TIP3    H213723   2.793   2.572   1.482
 4594TIP3   OH213724   1.594   5.631   3.218
 4594TIP3    H113725   1.531   5.671   3.158
 4594TIP3    H213726   1.663   5.597   3.161
 4595TIP3   OH213727   7.887   3.960   4.666
 4595TIP3    H113728   7.845   3.951   4.580
 4595TIP3    H213729   7.815   3.981   4.725
 4596TIP3   OH213730   4.488   4.511   6.369
 4596TIP3    H113731   4.534   4.529   6.451
 4596TIP3    H213732   4.408   4.562   6.374
 4597TIP3   OH213733   1.058   6.019   1.329
 4597TIP3    H113734   1.132   5.965   1.355
 4597TIP3    H213735   1.024   6.055   1.411
 4598TIP3   OH213736   0.743   3.589   5.110
 4598TIP3    H113737   0.807   3.646   5.067
 4598TIP3    H213738   0.658   3.625   5.084
 4599TIP3   OH213739   1.197   2.334   2.385
 4599TIP3    H113740   1.200   2.361   2.477
 4599TIP3    H213741   1.109   2.299   2.373
 4600TIP3   OH213742   5.471   6.421   0.455
 4600TIP3    H113743   5.384   6.402   0.420
 4600TIP3    H213744   5.497   6.503   0.414
 4601TIP3   OH213745   7.498   3.030   2.525
 4601TIP3    H113746   7.456   3.107   2.563
 4601TIP3    H213747   7.579   3.020   2.575
 4602TIP3   OH213748   3.236   7.085   4.512
 4602TIP3    H113749   3.327   7.094   4.485
 4602TIP3    H213750   3.232   6.999   4.554
 4603TIP3   OH213751   6.286   1.344   4.229
 4603TIP3    H113752   6.216   1.405   4.205
 4603TIP3    H213753   6.344   1.342   4.153
 4604TIP3   OH213754   7.562   2.763   3.001
 4604TIP3    H113755   7.580   2.806   2.918
 4604TIP3    H213756   7.533   2.833   3.059
 4605TIP3   OH213757   2.969   6.050   4.614
 4605TIP3    H113758   2.998   6.091   4.533
 4605TIP3    H213759   2.966   6.122   4.677
 4606TIP3   OH213760   5.286   6.676   4.172
 4606TIP3    H113761   5.293   6.754   4.116
 4606TIP3    H213762   5.193   6.655   4.171
 4607TIP3   OH213763   6.371   5.462   4.869
 4607TIP3    H113764   6.388   5.469   4.963
 4607TIP3    H213765   6.456   5.439   4.831
 4608TIP3   OH213766   6.563   7.800   3.971
 4608TIP3    H113767   6.567   7.802   3.876
 4608TIP3    H213768   6.504   7.728   3.991
 4609TIP3   OH213769   6.201   3.380   6.553
 4609TIP3    H113770   6.271   3.338   6.602
 4609TIP3    H213771   6.159   3.308   6.505
 4610TIP3   OH213772   5.042   2.107   6.044
 4610TIP3    H113773   5.021   2.038   5.981
 4610TIP3    H213774   5.138   2.104   6.051
 4611TIP3   OH213775   0.747   4.089   2.835
 4611TIP3    H113776   0.697   4.080   2.916
 4611TIP3    H213777   0.684   4.124   2.772
 4612TIP3   OH213778   3.584   6.321   4.928
 4612TIP3    H113779   3.591   6.416   4.936
 4612TIP3    H213780   3.642   6.287   4.996
 4613TIP3   OH213781   8.178   6.865   5.031
 4613TIP3    H113782   8.265   6.843   4.998
 4613TIP3    H213783   8.136   6.780   5.045
 4614TIP3   OH213784   6.035   6.784   1.043
 4614TIP3    H113785   6.000   6.859   1.090
 4614TIP3    H213786   6.113   6.818   0.999
 4615TIP3   OH213787   1.411   4.305   3.643
 4615TIP3    H113788   1.399   4.233   3.704
 4615TIP3    H213789   1.436   4.263   3.561
 4616TIP3   OH213790   7.232   2.928   4.786
 4616TIP3    H113791   7.277   2.982   4.721
 4616TIP3    H213792   7.193   2.857   4.735
 4617TIP3   OH213793   2.405   2.842   3.138
 4617TIP3    H113794   2.330   2.822   3.083
 4617TIP3    H213795   2.423   2.935   3.121
 4618TIP3   OH213796   5.374   3.418   4.266
 4618TIP3    H113797   5.386   3.343   4.325
 4618TIP3    H213798   5.463   3.445   4.242
 4619TIP3   OH213799   6.256   4.753   4.620
 4619TIP3    H113800   6.277   4.726   4.710
 4619TIP3    H213801   6.207   4.835   4.631
 4620TIP3   OH213802   4.572   6.132   5.974
 4620TIP3    H113803   4.545   6.191   5.903
 4620TIP3    H213804   4.551   6.044   5.941
 4621TIP3   OH213805   8.306   2.795   5.544
 4621TIP3    H113806   8.311   2.699   5.542
 4621TIP3    H213807   8.216   2.814   5.571
 4622TIP3   OH213808   8.149   3.183   1.505
 4622TIP3    H113809   8.106   3.102   1.531
 4622TIP3    H213810   8.091   3.253   1.536
 4623TIP3   OH213811   0.567   4.279   2.159
 4623TIP3    H113812   0.503   4.224   2.114
 4623TIP3    H213813   0.529   4.367   2.156
 4624TIP3   OH213814   1.677   6.866   4.523
 4624TIP3    H113815   1.636   6.783   4.544
 4624TIP3    H213816   1.665   6.876   4.428
 4625TIP3   OH213817   6.294   3.723   0.127
 4625TIP3    H113818   6.238   3.652   0.157
 4625TIP3    H213819   6.336   3.756   0.206
 4626TIP3   OH213820   5.380   0.276   0.669
 4626TIP3    H113821   5.430   0.233   0.739
 4626TIP3    H213822   5.408   0.232   0.589
 4627TIP3   OH213823   3.706   0.144   1.872
 4627TIP3    H113824   3.617   0.167   1.844
 4627TIP3    H213825   3.702   0.051   1.893
 4628TIP3   OH213826   6.843   6.602   1.129
 4628TIP3    H113827   6.826   6.523   1.181
 4628TIP3    H213828   6.765   6.613   1.076
 4629TIP3   OH213829   1.897   4.034   5.907
 4629TIP3    H113830   1.987   4.012   5.883
 4629TIP3    H213831   1.850   4.036   5.824
 4630TIP3   OH213832   8.142   6.085   0.026
 4630TIP3    H113833   8.128   6.098   0.120
 4630TIP3    H213834   8.140   6.173  -0.011
 4631TIP3   OH213835   0.387   3.713   6.423
 4631TIP3    H113836   0.450   3.669   6.480
 4631TIP3    H213837   0.346   3.643   6.373
 4632TIP3   OH213838   3.207   7.241   2.256
 4632TIP3    H113839   3.277   7.180   2.231
 4632TIP3    H213840   3.128   7.203   2.219
 4633TIP3   OH213841   4.439   1.601   5.068
 4633TIP3    H113842   4.476   1.634   5.150
 4633TIP3    H213843   4.418   1.510   5.086
 4634TIP3   OH213844   2.908   0.610   6.679
 4634TIP3    H113845   2.860   0.529   6.693
 4634TIP3    H213846   3.000   0.582   6.672
 4635TIP3   OH213847   3.973   4.632   3.284
 4635TIP3    H113848   3.883   4.620   3.256
 4635TIP3    H213849   3.971   4.614   3.378
 4636TIP3   OH213850   6.871   4.737   3.498
 4636TIP3    H113851   6.836   4.653   3.468
 4636TIP3    H213852   6.852   4.797   3.425
 4637TIP3   OH213853   7.319   1.868   0.599
 4637TIP3    H113854   7.388   1.805   0.621
 4637TIP3    H213855   7.355   1.918   0.526
 4638TIP3   OH213856   1.516   6.840   1.948
 4638TIP3    H113857   1.573   6.777   1.993
 4638TIP3    H213858   1.443   6.786   1.916
 4639TIP3   OH213859   3.261   6.040   4.639
 4639TIP3    H113860   3.319   6.103   4.596
 4639TIP3    H213861   3.180   6.042   4.588
 4640TIP3   OH213862   6.957   2.899   5.058
 4640TIP3    H113863   7.051   2.886   5.045
 4640TIP3    H213864   6.944   2.993   5.048
 4641TIP3   OH213865   0.295   3.125   4.458
 4641TIP3    H113866   0.312   3.128   4.552
 4641TIP3    H213867   0.212   3.079   4.449
 4642TIP3   OH213868   1.914   0.069   0.605
 4642TIP3    H113869   1.959   0.154   0.598
 4642TIP3    H213870   1.826   0.085   0.573
 4643TIP3   OH213871   0.293   2.587   4.817
 4643TIP3    H113872   0.289   2.650   4.745
 4643TIP3    H213873   0.259   2.635   4.893
 4644TIP3   OH213874   6.070   0.864   4.021
 4644TIP3    H113875   6.046   0.883   3.930
 4644TIP3    H213876   5.990   0.878   4.070
 4645TIP3   OH213877   7.500   1.550   0.864
 4645TIP3    H113878   7.584   1.551   0.817
 4645TIP3    H213879   7.516   1.602   0.943
 4646TIP3   OH213880   6.940   0.021   0.116
 4646TIP3    H113881   6.933  -0.042   0.187
 4646TIP3    H213882   7.021  -0.003   0.071
 4647TIP3   OH213883   4.420   2.222   0.741
 4647TIP3    H113884   4.476   2.220   0.663
 4647TIP3    H213885   4.435   2.137   0.783
 4648TIP3   OH213886   0.831   3.406   4.163
 4648TIP3    H113887   0.883   3.482   4.191
 4648TIP3    H213888   0.740   3.437   4.168
 4649TIP3   OH213889   6.671   4.220   2.358
 4649TIP3    H113890   6.603   4.180   2.412
 4649TIP3    H213891   6.700   4.150   2.299
 4650TIP3   OH213892   8.082   3.037   4.214
 4650TIP3    H113893   8.102   3.008   4.126
 4650TIP3    H213894   8.101   2.962   4.270
 4651TIP3   OH213895   4.536   0.414   0.404
 4651TIP3    H113896   4.505   0.488   0.457
 4651TIP3    H213897   4.485   0.340   0.435
 4652TIP3   OH213898   4.476   1.187   0.663
 4652TIP3    H113899   4.479   1.150   0.752
 4652TIP3    H213900   4.540   1.258   0.664
 4653TIP3   OH213901   8.018   7.441   1.642
 4653TIP3    H113902   8.031   7.531   1.670
 4653TIP3    H213903   7.937   7.414   1.685
 4654TIP3   OH213904   7.826   6.487   4.301
 4654TIP3    H113905   7.862   6.515   4.385
 4654TIP3    H213906   7.763   6.419   4.323
 4655TIP3   OH213907   6.124   3.886   6.738
 4655TIP3    H113908   6.177   3.850   6.809
 4655TIP3    H213909   6.082   3.810   6.699
 4656TIP3   OH213910   5.800   3.623   6.540
 4656TIP3    H113911   5.723   3.579   6.577
 4656TIP3    H213912   5.871   3.605   6.602
 4657TIP3   OH213913   7.098   3.654   3.789
 4657TIP3    H113914   7.057   3.569   3.806
 4657TIP3    H213915   7.165   3.635   3.723
 4658TIP3   OH213916   4.391   5.197   0.127
 4658TIP3    H113917   4.470   5.143   0.119
 4658TIP3    H213918   4.404   5.267   0.064
 4659TIP3   OH213919   1.753   2.781   6.695
 4659TIP3    H113920   1.826   2.719   6.686
 4659TIP3    H213921   1.686   2.732   6.742
 4660TIP3   OH213922   3.496   2.868   0.522
 4660TIP3    H113923   3.575   2.855   0.470
 4660TIP3    H213924   3.524   2.857   0.613
 4661TIP3   OH213925   8.178   2.741   5.274
 4661TIP3    H113926   8.204   2.661   5.320
 4661TIP3    H213927   8.105   2.714   5.219
 4662TIP3   OH213928   2.908   5.744   0.383
 4662TIP3    H113929   2.838   5.768   0.321
 4662TIP3    H213930   2.973   5.698   0.329
 4663TIP3   OH213931   6.652   5.110   2.644
 4663TIP3    H113932   6.596   5.154   2.580
 4663TIP3    H213933   6.717   5.064   2.591
 4664TIP3   OH213934   3.363   3.319   2.698
 4664TIP3    H113935   3.458   3.323   2.708
 4664TIP3    H213936   3.336   3.243   2.750
 4665TIP3   OH213937   3.201   5.917   0.638
 4665TIP3    H113938   3.261   5.991   0.639
 4665TIP3    H213939   3.144   5.933   0.562
 4666TIP3   OH213940   1.582   7.200   6.687
 4666TIP3    H113941   1.488   7.218   6.691
 4666TIP3    H213942   1.609   7.234   6.601
 4667TIP3   OH213943   6.276   7.505   2.601
 4667TIP3    H113944   6.352   7.512   2.543
 4667TIP3    H213945   6.242   7.594   2.608
 4668TIP3   OH213946   5.215   4.638   5.164
 4668TIP3    H113947   5.128   4.658   5.130
 4668TIP3    H213948   5.215   4.543   5.174
 4669TIP3   OH213949   1.207   6.900   2.652
 4669TIP3    H113950   1.295   6.863   2.643
 4669TIP3    H213951   1.170   6.897   2.563
 4670TIP3   OH213952   2.100   5.239   0.506
 4670TIP3    H113953   2.031   5.278   0.451
 4670TIP3    H213954   2.056   5.218   0.588
 4671TIP3   OH213955   2.933   3.173   6.690
 4671TIP3    H113956   2.982   3.091   6.698
 4671TIP3    H213957   2.851   3.157   6.737
 4672TIP3   OH213958   1.324   0.352   6.311
 4672TIP3    H113959   1.277   0.421   6.265
 4672TIP3    H213960   1.315   0.374   6.404
 4673TIP3   OH213961   0.094   2.105   4.585
 4673TIP3    H113962   0.066   2.177   4.642
 4673TIP3    H213963   0.161   2.059   4.635
 4674TIP3   OH213964   6.541   2.042   3.847
 4674TIP3    H113965   6.454   2.004   3.857
 4674TIP3    H213966   6.560   2.035   3.754
 4675TIP3   OH213967   5.573   0.962   3.943
 4675TIP3    H113968   5.534   1.046   3.970
 4675TIP3    H213969   5.662   0.964   3.979
 4676TIP3   OH213970   6.105   7.143   2.338
 4676TIP3    H113971   6.082   7.220   2.287
 4676TIP3    H213972   6.042   7.143   2.410
 4677TIP3   OH213973   2.751   2.436   5.192
 4677TIP3    H113974   2.786   2.512   5.145
 4677TIP3    H213975   2.828   2.383   5.212
 4678TIP3   OH213976   7.443   2.174   0.880
 4678TIP3    H113977   7.459   2.266   0.858
 4678TIP3    H213978   7.517   2.149   0.935
 4679TIP3   OH213979   5.811   2.746   0.520
 4679TIP3    H113980   5.893   2.709   0.488
 4679TIP3    H213981   5.768   2.674   0.566
 4680TIP3   OH213982   6.436   3.917   4.849
 4680TIP3    H113983   6.480   3.850   4.796
 4680TIP3    H213984   6.428   3.992   4.789
 4681TIP3   OH213985   5.666   2.071   5.265
 4681TIP3    H113986   5.713   2.064   5.348
 4681TIP3    H213987   5.579   2.034   5.284
 4682TIP3   OH213988   0.122   1.572   6.305
 4682TIP3    H113989   0.137   1.665   6.316
 4682TIP3    H213990   0.207   1.536   6.281
 4683TIP3   OH213991   4.227   5.175   1.514
 4683TIP3    H113992   4.264   5.259   1.490
 4683TIP3    H213993   4.166   5.154   1.443
 4684TIP3   OH213994   6.825   6.993   2.642
 4684TIP3    H113995   6.863   7.081   2.638
 4684TIP3    H213996   6.732   7.008   2.658
 4685TIP3   OH213997   3.292   0.758   4.046
 4685TIP3    H113998   3.334   0.775   4.130
 4685TIP3    H213999   3.361   0.718   3.992
 4686TIP3   OH214000   3.803   6.533   2.326
 4686TIP3    H114001   3.834   6.445   2.346
 4686TIP3    H214002   3.787   6.532   2.231
 4687TIP3   OH214003   5.621   3.226   4.866
 4687TIP3    H114004   5.609   3.255   4.956
 4687TIP3    H214005   5.705   3.264   4.839
 4688TIP3   OH214006   2.709   4.065   0.384
 4688TIP3    H114007   2.777   4.132   0.379
 4688TIP3    H214008   2.667   4.079   0.470
 4689TIP3   OH214009   2.055   1.435   1.951
 4689TIP3    H114010   2.095   1.469   1.870
 4689TIP3    H214011   1.969   1.404   1.924
 4690TIP3   OH214012   6.593   2.064   0.247
 4690TIP3    H114013   6.632   2.007   0.181
 4690TIP3    H214014   6.500   2.042   0.246
 4691TIP3   OH214015   4.037   1.010   1.879
 4691TIP3    H114016   4.008   1.023   1.789
 4691TIP3    H214017   3.973   1.056   1.932
 4692TIP3   OH214018   4.919   0.224   0.627
 4692TIP3    H114019   4.998   0.172   0.615
 4692TIP3    H214020   4.924   0.255   0.717
 4693TIP3   OH214021   3.725   0.442   6.288
 4693TIP3    H114022   3.805   0.444   6.341
 4693TIP3    H214023   3.711   0.533   6.263
 4694TIP3   OH214024   1.410   7.569   6.298
 4694TIP3    H114025   1.399   7.594   6.206
 4694TIP3    H214026   1.375   7.480   6.302
 4695TIP3   OH214027   4.445   6.849   5.462
 4695TIP3    H114028   4.357   6.881   5.445
 4695TIP3    H214029   4.449   6.836   5.557
 4696TIP3   OH214030   6.308   5.540   1.825
 4696TIP3    H114031   6.330   5.467   1.883
 4696TIP3    H214032   6.252   5.501   1.758
 4697TIP3   OH214033   2.488   7.826   6.780
 4697TIP3    H114034   2.513   7.870   6.698
 4697TIP3    H214035   2.397   7.799   6.765
 4698TIP3   OH214036   5.327   5.258   4.509
 4698TIP3    H114037   5.319   5.262   4.414
 4698TIP3    H214038   5.275   5.181   4.534
 4699TIP3   OH214039   3.122   7.357   0.436
 4699TIP3    H114040   3.099   7.270   0.403
 4699TIP3    H214041   3.044   7.410   0.422
 4700TIP3   OH214042   0.006   5.116   2.090
 4700TIP3    H114043   0.041   5.155   2.010
 4700TIP3    H214044   0.072   5.052   2.117
 4701TIP3   OH214045   3.130   7.814   5.706
 4701TIP3    H114046   3.209   7.869   5.711
 4701TIP3    H214047   3.136   7.771   5.620
 4702TIP3   OH214048   6.288   7.424   2.860
 4702TIP3    H114049   6.284   7.451   2.768
 4702TIP3    H214050   6.267   7.330   2.858
 4703TIP3   OH214051   5.980   5.660   3.372
 4703TIP3    H114052   5.994   5.663   3.466
 4703TIP3    H214053   5.892   5.694   3.360
 4704TIP3   OH214054   4.676   4.955   2.126
 4704TIP3    H114055   4.637   4.988   2.208
 4704TIP3    H214056   4.769   4.974   2.135
 4705TIP3   OH214057   6.079   3.832   3.652
 4705TIP3    H114058   6.101   3.822   3.559
 4705TIP3    H214059   6.045   3.921   3.659
 4706TIP3   OH214060   3.277   7.189   4.178
 4706TIP3    H114061   3.321   7.106   4.198
 4706TIP3    H214062   3.331   7.256   4.221
 4707TIP3   OH214063   4.946   1.963   5.246
 4707TIP3    H114064   4.896   2.023   5.301
 4707TIP3    H214065   4.880   1.911   5.200
 4708TIP3   OH214066   0.483   6.057   5.910
 4708TIP3    H114067   0.566   6.086   5.950
 4708TIP3    H214068   0.507   5.978   5.861
 4709TIP3   OH214069   6.256   5.651   5.586
 4709TIP3    H114070   6.341   5.696   5.589
 4709TIP3    H214071   6.255   5.598   5.666
 4710TIP3   OH214072   4.573   6.401   4.247
 4710TIP3    H114073   4.559   6.469   4.313
 4710TIP3    H214074   4.652   6.428   4.200
 4711TIP3   OH214075   5.310   1.185   2.412
 4711TIP3    H114076   5.352   1.263   2.375
 4711TIP3    H214077   5.311   1.200   2.507
 4712TIP3   OH214078   5.055   6.491   3.488
 4712TIP3    H114079   5.126   6.554   3.501
 4712TIP3    H214080   4.993   6.537   3.431
 4713TIP3   OH214081   5.790   0.039   1.947
 4713TIP3    H114082   5.833  -0.038   1.983
 4713TIP3    H214083   5.842   0.063   1.870
 4714TIP3   OH214084   4.475   7.460   3.565
 4714TIP3    H114085   4.533   7.413   3.626
 4714TIP3    H214086   4.524   7.464   3.483
 4715TIP3   OH214087   5.152   0.633   5.739
 4715TIP3    H114088   5.073   0.616   5.688
 4715TIP3    H214089   5.141   0.722   5.772
 4716TIP3   OH214090   5.154   1.658   5.161
 4716TIP3    H114091   5.083   1.594   5.152
 4716TIP3    H214092   5.151   1.685   5.253
 4717TIP3   OH214093   5.947   5.921   2.411
 4717TIP3    H114094   5.957   5.990   2.477
 4717TIP3    H214095   5.890   5.857   2.452
 4718TIP3   OH214096   0.121   2.098   2.373
 4718TIP3    H114097   0.030   2.127   2.364
 4718TIP3    H214098   0.164   2.170   2.420
 4719TIP3   OH214099   3.877   6.333   0.961
 4719TIP3    H114100   3.962   6.366   0.989
 4719TIP3    H214101   3.896   6.248   0.920
 4720TIP3   OH214102   0.800   0.302   2.980
 4720TIP3    H114103   0.838   0.356   2.910
 4720TIP3    H214104   0.859   0.313   3.054
 4721TIP3   OH214105   7.114   2.684   6.065
 4721TIP3    H114106   7.119   2.769   6.023
 4721TIP3    H214107   7.202   2.647   6.054
 4722TIP3   OH214108   4.131   5.750   4.983
 4722TIP3    H114109   4.138   5.747   4.888
 4722TIP3    H214110   4.216   5.781   5.013
 4723TIP3   OH214111   5.267   5.855   5.067
 4723TIP3    H114112   5.208   5.839   4.992
 4723TIP3    H214113   5.220   5.819   5.142
 4724TIP3   OH214114   5.180   6.287   4.946
 4724TIP3    H114115   5.108   6.256   4.892
 4724TIP3    H214116   5.253   6.300   4.885
 4725TIP3   OH214117   1.409   4.543   3.210
 4725TIP3    H114118   1.502   4.521   3.219
 4725TIP3    H214119   1.408   4.638   3.200
 4726TIP3   OH214120   1.630   2.397   6.494
 4726TIP3    H114121   1.696   2.463   6.512
 4726TIP3    H214122   1.590   2.380   6.580
 4727TIP3   OH214123   1.434   2.330   3.135
 4727TIP3    H114124   1.485   2.261   3.176
 4727TIP3    H214125   1.392   2.375   3.208
 4728TIP3   OH214126   2.769   6.074   1.225
 4728TIP3    H114127   2.841   6.047   1.282
 4728TIP3    H214128   2.690   6.064   1.278
 4729TIP3   OH214129   0.775   1.746   6.565
 4729TIP3    H114130   0.789   1.840   6.563
 4729TIP3    H214131   0.720   1.731   6.642
 4730TIP3   OH214132   2.843   6.460   2.063
 4730TIP3    H114133   2.929   6.459   2.020
 4730TIP3    H214134   2.816   6.552   2.059
 4731TIP3   OH214135   6.408   1.631   2.627
 4731TIP3    H114136   6.442   1.574   2.695
 4731TIP3    H214137   6.436   1.591   2.545
 4732TIP3   OH214138   7.988   7.309   5.453
 4732TIP3    H114139   7.893   7.311   5.458
 4732TIP3    H214140   8.008   7.342   5.365
 4733TIP3   OH214141   1.167   4.967   6.787
 4733TIP3    H114142   1.258   4.960   6.758
 4733TIP3    H214143   1.169   5.034   6.856
 4734TIP3   OH214144   3.332   2.256   0.224
 4734TIP3    H114145   3.330   2.171   0.180
 4734TIP3    H214146   3.398   2.246   0.293
 4735TIP3   OH214147   0.977   5.396   0.312
 4735TIP3    H114148   0.949   5.484   0.339
 4735TIP3    H214149   0.897   5.343   0.316
 4736TIP3   OH214150   7.758   7.140   3.954
 4736TIP3    H114151   7.795   7.070   3.900
 4736TIP3    H214152   7.687   7.177   3.901
 4737TIP3   OH214153   7.500   1.083   0.387
 4737TIP3    H114154   7.560   1.074   0.313
 4737TIP3    H214155   7.524   1.165   0.428
 4738TIP3   OH214156   0.484   1.908   1.060
 4738TIP3    H114157   0.501   1.974   1.127
 4738TIP3    H214158   0.415   1.946   1.005
 4739TIP3   OH214159   2.737   3.571   3.937
 4739TIP3    H114160   2.650   3.583   3.977
 4739TIP3    H214161   2.798   3.581   4.010
 4740TIP3   OH214162   6.660   5.600   6.261
 4740TIP3    H114163   6.575   5.597   6.305
 4740TIP3    H214164   6.691   5.510   6.261
 4741TIP3   OH214165   6.522   6.879   3.485
 4741TIP3    H114166   6.486   6.921   3.563
 4741TIP3    H214167   6.583   6.943   3.449
 4742TIP3   OH214168   4.758   6.126   6.185
 4742TIP3    H114169   4.813   6.205   6.193
 4742TIP3    H214170   4.696   6.148   6.116
 4743TIP3   OH214171   3.967   0.912   6.692
 4743TIP3    H114172   4.063   0.921   6.692
 4743TIP3    H214173   3.936   0.989   6.740
 4744TIP3   OH214174   3.151   6.079   0.128
 4744TIP3    H114175   3.242   6.100   0.146
 4744TIP3    H214176   3.150   6.046   0.038
 4745TIP3   OH214177   4.460   6.857   5.739
 4745TIP3    H114178   4.484   6.765   5.752
 4745TIP3    H214179   4.496   6.902   5.816
 4746TIP3   OH214180   5.310   3.787   6.633
 4746TIP3    H114181   5.279   3.701   6.607
 4746TIP3    H214182   5.403   3.788   6.608
 4747TIP3   OH214183   3.516   2.620   0.974
 4747TIP3    H114184   3.446   2.556   0.961
 4747TIP3    H214185   3.582   2.597   0.908
 4748TIP3   OH214186   4.429   3.045   2.258
 4748TIP3    H114187   4.398   2.960   2.226
 4748TIP3    H214188   4.452   3.028   2.349
 4749TIP3   OH214189   8.290   7.224   6.317
 4749TIP3    H114190   8.233   7.204   6.391
 4749TIP3    H214191   8.360   7.160   6.323
 4750TIP3   OH214192   7.743   6.163   3.505
 4750TIP3    H114193   7.769   6.255   3.499
 4750TIP3    H214194   7.693   6.158   3.587
 4751TIP3   OH214195   0.032   0.055   1.066
 4751TIP3    H114196  -0.030  -0.008   1.103
 4751TIP3    H214197   0.118   0.020   1.090
 4752TIP3   OH214198   1.601   5.736   2.160
 4752TIP3    H114199   1.628   5.645   2.168
 4752TIP3    H214200   1.659   5.784   2.220
 4753TIP3   OH214201   3.034   2.577   1.994
 4753TIP3    H114202   3.061   2.635   1.922
 4753TIP3    H214203   3.071   2.492   1.971
 4754TIP3   OH214204   5.613   2.726   3.518
 4754TIP3    H114205   5.605   2.816   3.550
 4754TIP3    H214206   5.590   2.732   3.425
 4755TIP3   OH214207   7.511   0.109   1.995
 4755TIP3    H114208   7.515   0.038   2.060
 4755TIP3    H214209   7.442   0.081   1.934
 4756TIP3   OH214210   8.160   5.791   2.248
 4756TIP3    H114211   8.223   5.739   2.197
 4756TIP3    H214212   8.186   5.778   2.339
 4757TIP3   OH214213   3.969   2.958   3.431
 4757TIP3    H114214   3.952   2.981   3.339
 4757TIP3    H214215   3.980   3.042   3.475
 4758TIP3   OH214216   5.029   6.362   0.466
 4758TIP3    H114217   4.960   6.428   0.461
 4758TIP3    H214218   4.999   6.301   0.534
 4759TIP3   OH214219   0.951   2.738   3.066
 4759TIP3    H114220   0.987   2.823   3.039
 4759TIP3    H214221   0.917   2.754   3.154
 4760TIP3   OH214222   0.025   6.187   2.760
 4760TIP3    H114223   0.038   6.137   2.840
 4760TIP3    H214224  -0.003   6.274   2.790
 4761TIP3   OH214225   6.348   6.283   4.295
 4761TIP3    H114226   6.355   6.376   4.317
 4761TIP3    H214227   6.407   6.271   4.220
 4762TIP3   OH214228   0.724   4.857   6.195
 4762TIP3    H114229   0.787   4.797   6.157
 4762TIP3    H214230   0.680   4.897   6.120
 4763TIP3   OH214231   6.091   6.344   1.884
 4763TIP3    H114232   6.027   6.334   1.954
 4763TIP3    H214233   6.147   6.416   1.912
 4764TIP3   OH214234   2.652   7.190   2.259
 4764TIP3    H114235   2.718   7.153   2.317
 4764TIP3    H214236   2.568   7.169   2.301
 4765TIP3   OH214237   6.806   3.691   4.270
 4765TIP3    H114238   6.776   3.692   4.179
 4765TIP3    H214239   6.727   3.685   4.322
 4766TIP3   OH214240   3.172   2.466   3.401
 4766TIP3    H114241   3.078   2.484   3.392
 4766TIP3    H214242   3.206   2.466   3.312
 4767TIP3   OH214243   4.582   2.826   5.603
 4767TIP3    H114244   4.624   2.882   5.538
 4767TIP3    H214245   4.504   2.875   5.629
 4768TIP3   OH214246   5.271   5.815   2.601
 4768TIP3    H114247   5.258   5.830   2.694
 4768TIP3    H214248   5.218   5.883   2.558
 4769TIP3   OH214249   0.845   6.239   1.825
 4769TIP3    H114250   0.843   6.293   1.903
 4769TIP3    H214251   0.763   6.257   1.779
 4770TIP3   OH214252   3.298   1.529   6.105
 4770TIP3    H114253   3.281   1.511   6.198
 4770TIP3    H214254   3.335   1.448   6.072
 4771TIP3   OH214255   5.696   3.775   5.375
 4771TIP3    H114256   5.772   3.828   5.397
 4771TIP3    H214257   5.656   3.819   5.300
 4772TIP3   OH214258   1.033   1.431   6.277
 4772TIP3    H114259   0.946   1.441   6.239
 4772TIP3    H214260   1.037   1.497   6.347
 4773TIP3   OH214261   2.549   4.544   1.301
 4773TIP3    H114262   2.525   4.624   1.255
 4773TIP3    H214263   2.584   4.574   1.385
 4774TIP3   OH214264   2.662   3.203   2.948
 4774TIP3    H114265   2.752   3.212   2.916
 4774TIP3    H214266   2.661   3.118   2.992
 4775TIP3   OH214267   1.811   3.458   2.196
 4775TIP3    H114268   1.898   3.497   2.205
 4775TIP3    H214269   1.798   3.409   2.277
 4776TIP3   OH214270   1.802   1.479   4.751
 4776TIP3    H114271   1.716   1.440   4.739
 4776TIP3    H214272   1.810   1.544   4.682
 4777TIP3   OH214273   3.432   2.691   6.597
 4777TIP3    H114274   3.417   2.640   6.676
 4777TIP3    H214275   3.357   2.671   6.541
 4778TIP3   OH214276   2.640   7.596   1.892
 4778TIP3    H114277   2.691   7.525   1.931
 4778TIP3    H214278   2.678   7.676   1.929
 4779TIP3   OH214279   5.896   1.599   4.708
 4779TIP3    H114280   5.873   1.519   4.756
 4779TIP3    H214281   5.863   1.670   4.763
 4780TIP3   OH214282   6.828   3.358   4.138
 4780TIP3    H114283   6.868   3.280   4.176
 4780TIP3    H214284   6.735   3.351   4.160
 4781TIP3   OH214285   3.867   6.879   5.141
 4781TIP3    H114286   3.821   6.908   5.220
 4781TIP3    H214287   3.916   6.801   5.169
 4782TIP3   OH214288   5.300   7.669   3.380
 4782TIP3    H114289   5.210   7.693   3.401
 4782TIP3    H214290   5.305   7.673   3.285
 4783TIP3   OH214291   7.616   0.333   1.901
 4783TIP3    H114292   7.533   0.372   1.873
 4783TIP3    H214293   7.592   0.246   1.932
 4784TIP3   OH214294   4.026   6.776   4.593
 4784TIP3    H114295   4.034   6.871   4.587
 4784TIP3    H214296   3.993   6.760   4.681
 4785TIP3   OH214297   7.876   2.870   0.787
 4785TIP3    H114298   7.889   2.964   0.771
 4785TIP3    H214299   7.895   2.828   0.703
 4786TIP3   OH214300   7.495   6.082   0.692
 4786TIP3    H114301   7.477   6.056   0.782
 4786TIP3    H214302   7.494   6.178   0.694
 4787TIP3   OH214303   0.689   2.533   5.794
 4787TIP3    H114304   0.748   2.548   5.721
 4787TIP3    H214305   0.674   2.620   5.831
 4788TIP3   OH214306   3.010   0.096   0.264
 4788TIP3    H114307   2.967   0.178   0.289
 4788TIP3    H214308   3.086   0.123   0.213
 4789TIP3   OH214309   3.709   5.631   3.244
 4789TIP3    H114310   3.783   5.571   3.232
 4789TIP3    H214311   3.642   5.599   3.184
 4790TIP3   OH214312   0.091   5.512   6.503
 4790TIP3    H114313   0.078   5.452   6.576
 4790TIP3    H214314   0.059   5.464   6.427
 4791TIP3   OH214315   3.201   5.920   3.693
 4791TIP3    H114316   3.220   5.939   3.785
 4791TIP3    H214317   3.243   5.836   3.677
 4792TIP3   OH214318   2.413   4.606   0.245
 4792TIP3    H114319   2.465   4.654   0.180
 4792TIP3    H214320   2.478   4.566   0.302
 4793TIP3   OH214321   0.436   2.703   4.367
 4793TIP3    H114322   0.433   2.612   4.335
 4793TIP3    H214323   0.374   2.750   4.312
 4794TIP3   OH214324   5.655   2.965   4.782
 4794TIP3    H114325   5.626   3.052   4.812
 4794TIP3    H214326   5.666   2.915   4.863
 4795TIP3   OH214327   3.721   1.980   0.209
 4795TIP3    H114328   3.745   2.061   0.253
 4795TIP3    H214329   3.797   1.958   0.155
 4796TIP3   OH214330   0.386   4.044   5.392
 4796TIP3    H114331   0.437   4.076   5.466
 4796TIP3    H214332   0.428   4.084   5.315
 4797TIP3   OH214333   7.736   3.345   4.432
 4797TIP3    H114334   7.789   3.410   4.386
 4797TIP3    H214335   7.795   3.270   4.442
 4798TIP3   OH214336   4.904   6.894   0.955
 4798TIP3    H114337   4.940   6.805   0.964
 4798TIP3    H214338   4.972   6.950   0.992
 4799TIP3   OH214339   8.276   0.874   6.526
 4799TIP3    H114340   8.228   0.955   6.507
 4799TIP3    H214341   8.212   0.804   6.512
 4800TIP3   OH214342   1.291   3.781   6.145
 4800TIP3    H114343   1.205   3.786   6.187
 4800TIP3    H214344   1.345   3.731   6.207
 4801TIP3   OH214345   3.088   4.799   3.054
 4801TIP3    H114346   3.130   4.848   3.125
 4801TIP3    H214347   3.047   4.724   3.098
 4802TIP3   OH214348   7.981   6.603   0.318
 4802TIP3    H114349   8.012   6.513   0.307
 4802TIP3    H214350   7.931   6.601   0.399
 4803TIP3   OH214351   1.280   3.231   1.470
 4803TIP3    H114352   1.366   3.227   1.429
 4803TIP3    H214353   1.263   3.324   1.481
 4804TIP3   OH214354   7.075   7.130   4.482
 4804TIP3    H114355   7.103   7.049   4.440
 4804TIP3    H214356   7.000   7.159   4.431
 4805TIP3   OH214357   5.572   0.069   6.695
 4805TIP3    H114358   5.665   0.058   6.674
 4805TIP3    H214359   5.535  -0.019   6.688
 4806TIP3   OH214360   2.028   3.818   5.669
 4806TIP3    H114361   2.067   3.853   5.749
 4806TIP3    H214362   1.941   3.787   5.696
 4807TIP3   OH214363   3.586   5.237   5.132
 4807TIP3    H114364   3.540   5.287   5.064
 4807TIP3    H214365   3.550   5.149   5.124
 4808TIP3   OH214366   7.169   2.414   3.531
 4808TIP3    H114367   7.245   2.423   3.589
 4808TIP3    H214368   7.119   2.341   3.568
 4809TIP3   OH214369   8.190   1.065   0.346
 4809TIP3    H114370   8.201   1.047   0.253
 4809TIP3    H214371   8.269   1.115   0.370
 4810TIP3   OH214372   8.322   4.563   5.141
 4810TIP3    H114373   8.286   4.603   5.220
 4810TIP3    H214374   8.388   4.625   5.111
 4811TIP3   OH214375   2.552   5.189   3.951
 4811TIP3    H114376   2.504   5.208   3.870
 4811TIP3    H214377   2.488   5.148   4.008
 4812TIP3   OH214378   7.674   7.538   2.467
 4812TIP3    H114379   7.668   7.442   2.474
 4812TIP3    H214380   7.593   7.569   2.509
 4813TIP3   OH214381   3.022   5.498   3.550
 4813TIP3    H114382   2.939   5.462   3.581
 4813TIP3    H214383   3.073   5.421   3.525
 4814TIP3   OH214384   2.774   0.783   2.673
 4814TIP3    H114385   2.841   0.813   2.735
 4814TIP3    H214386   2.801   0.820   2.589
 4815TIP3   OH214387   2.100   2.637   0.467
 4815TIP3    H114388   2.149   2.711   0.502
 4815TIP3    H214389   2.125   2.632   0.375
 4816TIP3   OH214390   1.484   6.774   3.840
 4816TIP3    H114391   1.462   6.706   3.903
 4816TIP3    H214392   1.432   6.849   3.867
 4817TIP3   OH214393   5.897   5.251   3.222
 4817TIP3    H114394   5.916   5.233   3.314
 4817TIP3    H214395   5.897   5.165   3.180
 4818TIP3   OH214396   5.994   5.242   4.609
 4818TIP3    H114397   6.008   5.268   4.700
 4818TIP3    H214398   5.900   5.224   4.603
 4819TIP3   OH214399   6.901   5.215   5.820
 4819TIP3    H114400   6.895   5.306   5.847
 4819TIP3    H214401   6.834   5.205   5.752
 4820TIP3   OH214402   1.574   5.219   4.453
 4820TIP3    H114403   1.558   5.305   4.491
 4820TIP3    H214404   1.551   5.229   4.360
 4821TIP3   OH214405   2.317   4.863   5.550
 4821TIP3    H114406   2.253   4.918   5.595
 4821TIP3    H214407   2.280   4.849   5.463
 4822TIP3   OH214408   0.627   1.104   1.097
 4822TIP3    H114409   0.592   1.193   1.103
 4822TIP3    H214410   0.555   1.048   1.124
 4823TIP3   OH214411   7.201   6.742   2.793
 4823TIP3    H114412   7.245   6.811   2.743
 4823TIP3    H214413   7.188   6.781   2.880
 4824TIP3   OH214414   3.994   0.061   5.752
 4824TIP3    H114415   3.938   0.037   5.826
 4824TIP3    H214416   4.061   0.117   5.790
 4825TIP3   OH214417   7.021   5.014   0.376
 4825TIP3    H114418   6.952   4.955   0.346
 4825TIP3    H214419   6.976   5.080   0.429
 4826TIP3   OH214420   0.197   0.146   6.512
 4826TIP3    H114421   0.150   0.147   6.428
 4826TIP3    H214422   0.209   0.054   6.532
 4827TIP3   OH214423   2.840   7.791   4.357
 4827TIP3    H114424   2.929   7.783   4.323
 4827TIP3    H214425   2.850   7.844   4.436
 4828TIP3   OH214426   2.157   0.485   4.869
 4828TIP3    H114427   2.109   0.403   4.880
 4828TIP3    H214428   2.168   0.494   4.774
 4829TIP3   OH214429   3.870   6.594   2.803
 4829TIP3    H114430   3.802   6.593   2.735
 4829TIP3    H214431   3.899   6.685   2.806
 4830TIP3   OH214432   0.114   0.528   3.012
 4830TIP3    H114433   0.140   0.441   3.043
 4830TIP3    H214434   0.134   0.527   2.918
 4831TIP3   OH214435   1.130   0.173   6.011
 4831TIP3    H114436   1.183   0.109   6.061
 4831TIP3    H214437   1.056   0.122   5.979
 4832TIP3   OH214438   7.020   4.609   3.857
 4832TIP3    H114439   6.955   4.652   3.913
 4832TIP3    H214440   7.104   4.641   3.890
 4833TIP3   OH214441   6.562   2.414   1.328
 4833TIP3    H114442   6.613   2.333   1.329
 4833TIP3    H214443   6.618   2.479   1.370
 4834TIP3   OH214444   2.411   1.363   5.054
 4834TIP3    H114445   2.500   1.388   5.031
 4834TIP3    H214446   2.389   1.416   5.130
 4835TIP3   OH214447   1.771   7.438   4.720
 4835TIP3    H114448   1.717   7.500   4.671
 4835TIP3    H214449   1.713   7.363   4.735
 4836TIP3   OH214450   5.871   4.692   6.132
 4836TIP3    H114451   5.901   4.769   6.180
 4836TIP3    H214452   5.870   4.622   6.198
 4837TIP3   OH214453   2.557   5.220   4.351
 4837TIP3    H114454   2.505   5.241   4.274
 4837TIP3    H214455   2.564   5.302   4.399
 4838TIP3   OH214456   2.326   6.519   1.219
 4838TIP3    H114457   2.416   6.552   1.222
 4838TIP3    H214458   2.278   6.588   1.173
 4839TIP3   OH214459   5.743   6.889   0.696
 4839TIP3    H114460   5.799   6.854   0.627
 4839TIP3    H214461   5.687   6.815   0.721
 4840TIP3   OH214462   4.836   6.687   3.361
 4840TIP3    H114463   4.907   6.706   3.300
 4840TIP3    H214464   4.759   6.730   3.323
 4841TIP3   OH214465   0.072   3.555   4.939
 4841TIP3    H114466   0.098   3.580   5.027
 4841TIP3    H214467   0.155   3.548   4.891
 4842TIP3   OH214468   5.945   7.885   5.104
 4842TIP3    H114469   5.952   7.881   5.009
 4842TIP3    H214470   5.907   7.971   5.121
 4843TIP3   OH214471   4.009   7.488   1.019
 4843TIP3    H114472   4.040   7.515   0.933
 4843TIP3    H214473   3.979   7.398   1.007
 4844TIP3   OH214474   5.676   1.784   3.005
 4844TIP3    H114475   5.735   1.856   2.985
 4844TIP3    H214476   5.620   1.817   3.075
 4845TIP3   OH214477   1.970   5.873   3.125
 4845TIP3    H114478   1.931   5.930   3.191
 4845TIP3    H214479   2.049   5.839   3.167
 4846TIP3   OH214480   1.811   3.613   3.061
 4846TIP3    H114481   1.719   3.591   3.044
 4846TIP3    H214482   1.811   3.709   3.068
 4847TIP3   OH214483   6.020   0.932   1.671
 4847TIP3    H114484   6.002   0.977   1.753
 4847TIP3    H214485   5.939   0.938   1.621
 4848TIP3   OH214486   2.710   6.673   2.796
 4848TIP3    H114487   2.698   6.591   2.749
 4848TIP3    H214488   2.707   6.740   2.727
 4849TIP3   OH214489   0.739   3.368   2.451
 4849TIP3    H114490   0.800   3.441   2.456
 4849TIP3    H214491   0.757   3.316   2.530
 4850TIP3   OH214492   7.540   6.233   4.846
 4850TIP3    H114493   7.491   6.166   4.799
 4850TIP3    H214494   7.627   6.196   4.858
 4851TIP3   OH214495   4.998   4.742   0.189
 4851TIP3    H114496   5.035   4.809   0.247
 4851TIP3    H214497   5.074   4.693   0.158
 4852TIP3   OH214498   4.436   2.872   3.345
 4852TIP3    H114499   4.361   2.866   3.403
 4852TIP3    H214500   4.418   2.808   3.276
 4853TIP3   OH214501   5.754   7.697   4.187
 4853TIP3    H114502   5.720   7.708   4.098
 4853TIP3    H214503   5.723   7.774   4.234
 4854TIP3   OH214504   8.054   4.383   5.407
 4854TIP3    H114505   8.070   4.456   5.466
 4854TIP3    H214506   8.022   4.313   5.464
 4855TIP3   OH214507   6.419   7.245   0.664
 4855TIP3    H114508   6.460   7.269   0.581
 4855TIP3    H214509   6.459   7.303   0.729
 4856TIP3   OH214510   1.531   2.514   5.526
 4856TIP3    H114511   1.601   2.503   5.591
 4856TIP3    H214512   1.571   2.488   5.443
 4857TIP3   OH214513   5.469   3.910   4.516
 4857TIP3    H114514   5.519   3.954   4.447
 4857TIP3    H214515   5.455   3.822   4.481
 4858TIP3   OH214516   7.659   2.052   1.322
 4858TIP3    H114517   7.705   2.084   1.245
 4858TIP3    H214518   7.717   1.985   1.359
 4859TIP3   OH214519   3.281   4.322   0.107
 4859TIP3    H114520   3.190   4.294   0.114
 4859TIP3    H214521   3.294   4.342   0.015
 4860TIP3   OH214522   1.942   5.231   4.857
 4860TIP3    H114523   1.957   5.308   4.911
 4860TIP3    H214524   2.011   5.233   4.791
 4861TIP3   OH214525   7.061   4.883   1.349
 4861TIP3    H114526   7.035   4.929   1.429
 4861TIP3    H214527   7.065   4.791   1.376
 4862TIP3   OH214528   2.007   5.192   3.911
 4862TIP3    H114529   1.992   5.101   3.884
 4862TIP3    H214530   1.932   5.240   3.877
 4863TIP3   OH214531   6.026   6.288   6.322
 4863TIP3    H114532   5.983   6.208   6.354
 4863TIP3    H214533   6.113   6.286   6.363
 4864TIP3   OH214534   7.195   0.843   3.632
 4864TIP3    H114535   7.223   0.792   3.556
 4864TIP3    H214536   7.250   0.810   3.704
 4865TIP3   OH214537   3.672   4.662   0.666
 4865TIP3    H114538   3.703   4.703   0.585
 4865TIP3    H214539   3.606   4.599   0.637
 4866TIP3   OH214540   1.664   1.193   5.101
 4866TIP3    H114541   1.659   1.166   5.009
 4866TIP3    H214542   1.713   1.275   5.100
 4867TIP3   OH214543   2.612   5.153   5.818
 4867TIP3    H114544   2.527   5.179   5.781
 4867TIP3    H214545   2.645   5.232   5.860
 4868TIP3   OH214546   5.593   1.053   2.334
 4868TIP3    H114547   5.513   1.100   2.358
 4868TIP3    H214548   5.577   0.963   2.361
 4869TIP3   OH214549   0.239   1.649   3.002
 4869TIP3    H114550   0.209   1.643   3.093
 4869TIP3    H214551   0.334   1.649   3.009
 4870TIP3   OH214552   1.678   2.743   3.768
 4870TIP3    H114553   1.719   2.670   3.722
 4870TIP3    H214554   1.601   2.765   3.716
 4871TIP3   OH214555   4.868   4.494   4.076
 4871TIP3    H114556   4.819   4.556   4.130
 4871TIP3    H214557   4.854   4.409   4.119
 4872TIP3   OH214558   6.303   4.465   6.494
 4872TIP3    H114559   6.367   4.397   6.513
 4872TIP3    H214560   6.355   4.538   6.460
 4873TIP3   OH214561   4.648   5.702   6.030
 4873TIP3    H114562   4.586   5.765   6.066
 4873TIP3    H214563   4.641   5.626   6.087
 4874TIP3   OH214564   0.141   2.229   5.662
 4874TIP3    H114565   0.131   2.146   5.709
 4874TIP3    H214566   0.228   2.260   5.687
 4875TIP3   OH214567   7.660   3.966   6.550
 4875TIP3    H114568   7.616   3.974   6.635
 4875TIP3    H214569   7.613   3.896   6.505
 4876TIP3   OH214570   3.895   4.746   0.223
 4876TIP3    H114571   3.848   4.665   0.205
 4876TIP3    H214572   3.868   4.806   0.154
 4877TIP3   OH214573   0.540   1.198   5.637
 4877TIP3    H114574   0.478   1.263   5.601
 4877TIP3    H214575   0.562   1.143   5.563
 4878TIP3   OH214576   6.710   5.406   3.595
 4878TIP3    H114577   6.756   5.351   3.532
 4878TIP3    H214578   6.750   5.492   3.584
 4879TIP3   OH214579   6.627   5.139   3.285
 4879TIP3    H114580   6.678   5.212   3.250
 4879TIP3    H214581   6.562   5.180   3.342
 4880TIP3   OH214582   6.321   1.262   5.072
 4880TIP3    H114583   6.356   1.325   5.136
 4880TIP3    H214584   6.381   1.268   4.998
 4881TIP3   OH214585   4.225   2.421   4.041
 4881TIP3    H114586   4.194   2.359   3.975
 4881TIP3    H214587   4.320   2.410   4.041
 4882TIP3   OH214588   7.358   2.905   1.307
 4882TIP3    H114589   7.436   2.882   1.358
 4882TIP3    H214590   7.289   2.849   1.343
 4883TIP3   OH214591   6.093   2.277   6.230
 4883TIP3    H114592   5.999   2.259   6.232
 4883TIP3    H214593   6.109   2.309   6.142
 4884TIP3   OH214594   6.039   3.847   1.011
 4884TIP3    H114595   6.026   3.858   0.916
 4884TIP3    H214596   5.961   3.886   1.050
 4885TIP3   OH214597   3.612   2.918   4.626
 4885TIP3    H114598   3.517   2.905   4.630
 4885TIP3    H214599   3.635   2.947   4.715
 4886TIP3   OH214600   0.147   3.351   0.988
 4886TIP3    H114601   0.168   3.443   0.973
 4886TIP3    H214602   0.091   3.352   1.066
 4887TIP3   OH214603   3.484   6.294   3.272
 4887TIP3    H114604   3.567   6.259   3.240
 4887TIP3    H214605   3.452   6.350   3.201
 4888TIP3   OH214606   3.036   0.641   2.087
 4888TIP3    H114607   3.072   0.715   2.134
 4888TIP3    H214608   2.997   0.586   2.155
 4889TIP3   OH214609   2.339   3.051   5.659
 4889TIP3    H114610   2.320   3.035   5.752
 4889TIP3    H214611   2.435   3.060   5.657
 4890TIP3   OH214612   5.570   4.617   5.227
 4890TIP3    H114613   5.636   4.686   5.240
 4890TIP3    H214614   5.571   4.567   5.309
 4891TIP3   OH214615   7.254   4.291   1.498
 4891TIP3    H114616   7.260   4.373   1.548
 4891TIP3    H214617   7.168   4.255   1.521
 4892TIP3   OH214618   5.313   4.150   3.772
 4892TIP3    H114619   5.379   4.148   3.703
 4892TIP3    H214620   5.360   4.181   3.850
 4893TIP3   OH214621   7.469   0.213   4.743
 4893TIP3    H114622   7.537   0.275   4.715
 4893TIP3    H214623   7.464   0.149   4.672
 4894TIP3   OH214624   0.587   0.588   0.701
 4894TIP3    H114625   0.624   0.651   0.639
 4894TIP3    H214626   0.497   0.618   0.714
 4895TIP3   OH214627   0.582   5.839   4.201
 4895TIP3    H114628   0.668   5.843   4.243
 4895TIP3    H214629   0.523   5.811   4.271
 4896TIP3   OH214630   3.525   7.399   2.198
 4896TIP3    H114631   3.607   7.351   2.207
 4896TIP3    H214632   3.505   7.430   2.287
 4897TIP3   OH214633   2.509   3.695   5.086
 4897TIP3    H114634   2.502   3.602   5.065
 4897TIP3    H214635   2.596   3.705   5.123
 4898TIP3   OH214636   6.062   1.518   3.484
 4898TIP3    H114637   6.109   1.570   3.418
 4898TIP3    H214638   6.099   1.546   3.567
 4899TIP3   OH214639   7.290   5.931   0.151
 4899TIP3    H114640   7.276   6.001   0.088
 4899TIP3    H214641   7.268   5.851   0.103
 4900TIP3   OH214642   0.818   6.856   0.709
 4900TIP3    H114643   0.744   6.796   0.709
 4900TIP3    H214644   0.874   6.825   0.637
 4901TIP3   OH214645   7.415   5.099   6.092
 4901TIP3    H114646   7.395   5.131   6.180
 4901TIP3    H214647   7.454   5.013   6.107
 4902TIP3   OH214648   5.433   4.605   2.987
 4902TIP3    H114649   5.527   4.588   2.993
 4902TIP3    H214650   5.422   4.644   2.900
 4903TIP3   OH214651   7.442   5.953   0.453
 4903TIP3    H114652   7.520   5.897   0.453
 4903TIP3    H214653   7.450   6.006   0.532
 4904TIP3   OH214654   7.470   7.230   5.868
 4904TIP3    H114655   7.434   7.270   5.947
 4904TIP3    H214656   7.418   7.150   5.856
 4905TIP3   OH214657   5.446   6.537   3.292
 4905TIP3    H114658   5.532   6.574   3.307
 4905TIP3    H214659   5.456   6.444   3.312
 4906TIP3   OH214660   4.015   7.381   4.421
 4906TIP3    H114661   4.107   7.353   4.417
 4906TIP3    H214662   4.019   7.475   4.437
 4907TIP3   OH214663   2.337   1.166   0.315
 4907TIP3    H114664   2.320   1.123   0.399
 4907TIP3    H214665   2.253   1.201   0.288
 4908TIP3   OH214666  -0.026   4.745   5.687
 4908TIP3    H114667   0.020   4.727   5.606
 4908TIP3    H214668   0.036   4.797   5.739
 4909TIP3   OH214669   2.063   0.929   6.496
 4909TIP3    H114670   1.991   0.954   6.438
 4909TIP3    H214671   2.027   0.943   6.584
 4910TIP3   OH214672   5.258   2.945   3.615
 4910TIP3    H114673   5.223   2.993   3.690
 4910TIP3    H214674   5.197   2.962   3.544
 4911TIP3   OH214675   1.688   6.725   3.044
 4911TIP3    H114676   1.775   6.689   3.062
 4911TIP3    H214677   1.664   6.772   3.124
 4912TIP3   OH214678   2.569   5.032   2.010
 4912TIP3    H114679   2.658   5.008   2.037
 4912TIP3    H214680   2.544   4.963   1.948
 4913TIP3   OH214681   1.489   0.750   6.664
 4913TIP3    H114682   1.512   0.820   6.603
 4913TIP3    H214683   1.547   0.677   6.640
 4914TIP3   OH214684   0.803   4.075   6.655
 4914TIP3    H114685   0.774   4.142   6.594
 4914TIP3    H214686   0.749   3.999   6.636
 4915TIP3   OH214687   6.096   0.217   2.285
 4915TIP3    H114688   6.036   0.233   2.213
 4915TIP3    H214689   6.129   0.304   2.308
 4916TIP3   OH214690   8.262   4.855   2.499
 4916TIP3    H114691   8.284   4.940   2.535
 4916TIP3    H214692   8.217   4.874   2.416
 4917TIP3   OH214693   4.623   4.437   0.751
 4917TIP3    H114694   4.637   4.516   0.699
 4917TIP3    H214695   4.596   4.470   0.837
 4918TIP3   OH214696   1.166   4.503   4.143
 4918TIP3    H114697   1.221   4.437   4.185
 4918TIP3    H214698   1.202   4.513   4.055
 4919TIP3   OH214699   4.214   1.991   4.185
 4919TIP3    H114700   4.245   1.998   4.095
 4919TIP3    H214701   4.177   2.077   4.205
 4920TIP3   OH214702   3.681   1.456   5.081
 4920TIP3    H114703   3.765   1.436   5.041
 4920TIP3    H214704   3.625   1.382   5.058
 4921TIP3   OH214705   4.571   4.304   5.160
 4921TIP3    H114706   4.639   4.352   5.113
 4921TIP3    H214707   4.504   4.371   5.178
 4922TIP3   OH214708   7.052   3.257   6.579
 4922TIP3    H114709   7.080   3.175   6.620
 4922TIP3    H214710   7.047   3.319   6.651
 4923TIP3   OH214711   1.625   5.497   1.301
 4923TIP3    H114712   1.700   5.549   1.330
 4923TIP3    H214713   1.553   5.559   1.297
 4924TIP3   OH214714   2.969   1.955   4.004
 4924TIP3    H114715   3.056   1.933   3.970
 4924TIP3    H214716   2.977   1.943   4.099
 4925TIP3   OH214717   7.266   1.553   4.520
 4925TIP3    H114718   7.316   1.603   4.456
 4925TIP3    H214719   7.332   1.505   4.570
 4926TIP3   OH214720   5.869   7.499   4.572
 4926TIP3    H114721   5.832   7.411   4.565
 4926TIP3    H214722   5.953   7.486   4.616
 4927TIP3   OH214723   5.656   5.562   0.012
 4927TIP3    H114724   5.666   5.599   0.100
 4927TIP3    H214725   5.582   5.611  -0.025
 4928TIP3   OH214726   5.428   4.449   1.267
 4928TIP3    H114727   5.360   4.401   1.315
 4928TIP3    H214728   5.435   4.532   1.313
 4929TIP3   OH214729   3.612   2.183   3.328
 4929TIP3    H114730   3.676   2.112   3.319
 4929TIP3    H214731   3.641   2.249   3.265
 4930TIP3   OH214732   7.388   0.127   5.363
 4930TIP3    H114733   7.442   0.178   5.304
 4930TIP3    H214734   7.429   0.041   5.366
 4931TIP3   OH214735   4.506   6.483   3.166
 4931TIP3    H114736   4.537   6.573   3.181
 4931TIP3    H214737   4.426   6.494   3.116
 4932TIP3   OH214738   7.467   6.267   2.073
 4932TIP3    H114739   7.555   6.245   2.046
 4932TIP3    H214740   7.451   6.213   2.151
 4933TIP3   OH214741   0.600   3.063   4.833
 4933TIP3    H114742   0.630   3.080   4.923
 4933TIP3    H214743   0.539   2.990   4.842
 4934TIP3   OH214744   0.893   1.061   1.268
 4934TIP3    H114745   0.811   1.060   1.218
 4934TIP3    H214746   0.880   1.130   1.334
 4935TIP3   OH214747   3.502   4.831   0.801
 4935TIP3    H114748   3.532   4.884   0.875
 4935TIP3    H214749   3.559   4.855   0.728
 4936TIP3   OH214750   6.844   1.471   3.592
 4936TIP3    H114751   6.755   1.450   3.619
 4936TIP3    H214752   6.885   1.510   3.669
 4937TIP3   OH214753   5.453   3.749   5.474
 4937TIP3    H114754   5.549   3.744   5.467
 4937TIP3    H214755   5.428   3.668   5.518
 4938TIP3   OH214756   5.912   1.709   0.982
 4938TIP3    H114757   5.997   1.667   0.976
 4938TIP3    H214758   5.854   1.641   1.019
 4939TIP3   OH214759   7.638   5.196   4.269
 4939TIP3    H114760   7.673   5.282   4.289
 4939TIP3    H214761   7.637   5.191   4.173
 4940TIP3   OH214762   7.706   1.940   2.039
 4940TIP3    H114763   7.770   1.870   2.025
 4940TIP3    H214764   7.665   1.952   1.954
 4941TIP3   OH214765   7.954   4.573   0.620
 4941TIP3    H114766   8.031   4.517   0.626
 4941TIP3    H214767   7.941   4.606   0.709
 4942TIP3   OH214768   2.640   5.436   0.653
 4942TIP3    H114769   2.581   5.417   0.581
 4942TIP3    H214770   2.659   5.529   0.644
 4943TIP3   OH214771   5.427   5.091   1.378
 4943TIP3    H114772   5.339   5.056   1.391
 4943TIP3    H214773   5.420   5.183   1.403
 4944TIP3   OH214774   1.351   3.536   1.728
 4944TIP3    H114775   1.403   3.608   1.693
 4944TIP3    H214776   1.414   3.481   1.775
 4945TIP3   OH214777   5.230   1.873   6.101
 4945TIP3    H114778   5.253   1.789   6.141
 4945TIP3    H214779   5.278   1.938   6.152
 4946TIP3   OH214780   0.820   1.652   5.499
 4946TIP3    H114781   0.745   1.597   5.520
 4946TIP3    H214782   0.791   1.705   5.425
 4947TIP3   OH214783   0.253   5.716   3.703
 4947TIP3    H114784   0.254   5.764   3.785
 4947TIP3    H214785   0.220   5.629   3.726
 4948TIP3   OH214786   3.932   1.859   0.040
 4948TIP3    H114787   3.960   1.767   0.034
 4948TIP3    H214788   3.877   1.872  -0.037
 4949TIP3   OH214789   2.159   4.794   1.777
 4949TIP3    H114790   2.109   4.756   1.848
 4949TIP3    H214791   2.101   4.860   1.738
 4950TIP3   OH214792   2.978   7.328   3.902
 4950TIP3    H114793   2.932   7.392   3.957
 4950TIP3    H214794   2.990   7.252   3.958
 4951TIP3   OH214795   4.245   1.548   6.137
 4951TIP3    H114796   4.255   1.532   6.231
 4951TIP3    H214797   4.182   1.620   6.131
 4952TIP3   OH214798   4.571   3.069   2.722
 4952TIP3    H114799   4.659   3.085   2.687
 4952TIP3    H214800   4.584   2.998   2.786
 4953TIP3   OH214801   7.674   2.570   2.090
 4953TIP3    H114802   7.679   2.604   2.001
 4953TIP3    H214803   7.580   2.556   2.105
 4954TIP3   OH214804   6.653   5.199   5.394
 4954TIP3    H114805   6.685   5.234   5.311
 4954TIP3    H214806   6.659   5.273   5.455
 4955TIP3   OH214807   0.674   0.984   4.619
 4955TIP3    H114808   0.621   0.967   4.697
 4955TIP3    H214809   0.663   1.078   4.604
 4956TIP3   OH214810   2.114   0.634   4.372
 4956TIP3    H114811   2.146   0.557   4.326
 4956TIP3    H214812   2.129   0.707   4.312
 4957TIP3   OH214813   4.352   5.279   1.174
 4957TIP3    H114814   4.265   5.243   1.159
 4957TIP3    H214815   4.342   5.333   1.253
 4958TIP3   OH214816   0.012   6.845   5.384
 4958TIP3    H114817  -0.001   6.750   5.380
 4958TIP3    H214818  -0.019   6.869   5.472
 4959TIP3   OH214819   3.722   1.913   2.830
 4959TIP3    H114820   3.751   1.997   2.865
 4959TIP3    H214821   3.660   1.936   2.761
 4960TIP3   OH214822   6.759   7.602   6.098
 4960TIP3    H114823   6.711   7.674   6.139
 4960TIP3    H214824   6.762   7.625   6.005
 4961TIP3   OH214825   3.250   6.659   1.506
 4961TIP3    H114826   3.251   6.648   1.411
 4961TIP3    H214827   3.209   6.579   1.539
 4962TIP3   OH214828   3.123   7.024   0.926
 4962TIP3    H114829   3.101   6.985   1.011
 4962TIP3    H214830   3.049   7.081   0.907
 4963TIP3   OH214831   5.035   4.218   3.289
 4963TIP3    H114832   5.113   4.164   3.297
 4963TIP3    H214833   5.027   4.234   3.195
 4964TIP3   OH214834   6.940   1.352   3.914
 4964TIP3    H114835   6.994   1.369   3.991
 4964TIP3    H214836   6.997   1.303   3.855
 4965TIP3   OH214837   5.873   2.029   4.113
 4965TIP3    H114838   5.913   2.116   4.104
 4965TIP3    H214839   5.853   2.003   4.023
 4966TIP3   OH214840   4.788   1.451   0.181
 4966TIP3    H114841   4.876   1.481   0.204
 4966TIP3    H214842   4.782   1.464   0.086
 4967TIP3   OH214843   0.107   7.700   1.368
 4967TIP3    H114844   0.027   7.662   1.404
 4967TIP3    H214845   0.177   7.641   1.397
 4968TIP3   OH214846   0.906   3.096   6.210
 4968TIP3    H114847   0.979   3.114   6.150
 4968TIP3    H214848   0.880   3.182   6.243
 4969TIP3   OH214849   1.407   3.825   1.481
 4969TIP3    H114850   1.370   3.897   1.531
 4969TIP3    H214851   1.381   3.842   1.391
 4970TIP3   OH214852   0.742   4.904   0.376
 4970TIP3    H114853   0.710   4.849   0.448
 4970TIP3    H214854   0.737   4.993   0.410
 4971TIP3   OH214855   6.576   4.520   4.552
 4971TIP3    H114856   6.654   4.557   4.592
 4971TIP3    H214857   6.564   4.436   4.596
 4972TIP3   OH214858   3.816   0.042   1.067
 4972TIP3    H114859   3.854   0.072   0.985
 4972TIP3    H214860   3.871   0.082   1.135
 4973TIP3   OH214861   3.071   3.665   5.207
 4973TIP3    H114862   3.131   3.718   5.154
 4973TIP3    H214863   3.083   3.576   5.175
 4974TIP3   OH214864   7.932   2.674   0.587
 4974TIP3    H114865   7.952   2.662   0.494
 4974TIP3    H214866   8.010   2.644   0.633
 4975TIP3   OH214867   4.451   2.289   6.519
 4975TIP3    H114868   4.480   2.198   6.506
 4975TIP3    H214869   4.355   2.284   6.518
 4976TIP3   OH214870   0.566   1.524   0.978
 4976TIP3    H114871   0.480   1.561   0.998
 4976TIP3    H214872   0.557   1.487   0.890
 4977TIP3   OH214873   5.294   4.570   2.633
 4977TIP3    H114874   5.203   4.541   2.635
 4977TIP3    H214875   5.289   4.666   2.639
 4978TIP3   OH214876   2.410   0.938   3.462
 4978TIP3    H114877   2.334   0.955   3.407
 4978TIP3    H214878   2.419   1.017   3.516
 4979TIP3   OH214879   2.637   6.839   0.177
 4979TIP3    H114880   2.585   6.791   0.241
 4979TIP3    H214881   2.628   6.931   0.202
 4980TIP3   OH214882   0.410   6.209   4.740
 4980TIP3    H114883   0.380   6.222   4.830
 4980TIP3    H214884   0.330   6.207   4.687
 4981TIP3   OH214885   1.737   7.378   5.151
 4981TIP3    H114886   1.765   7.468   5.164
 4981TIP3    H214887   1.678   7.381   5.076
 4982TIP3   OH214888   5.685   5.952   4.883
 4982TIP3    H114889   5.757   5.891   4.867
 4982TIP3    H214890   5.609   5.897   4.900
 4983TIP3   OH214891   2.426   3.071   4.133
 4983TIP3    H114892   2.343   3.116   4.144
 4983TIP3    H214893   2.488   3.123   4.184
 4984TIP3   OH214894   1.661   7.509   6.612
 4984TIP3    H114895   1.596   7.460   6.562
 4984TIP3    H214896   1.714   7.553   6.545
 4985TIP3   OH214897   5.875   2.947   4.619
 4985TIP3    H114898   5.791   2.947   4.664
 4985TIP3    H214899   5.938   2.922   4.686
 4986TIP3   OH214900   2.299   5.783   0.090
 4986TIP3    H114901   2.290   5.863   0.039
 4986TIP3    H214902   2.333   5.719   0.027
 4987TIP3   OH214903   4.582   2.937   0.069
 4987TIP3    H114904   4.638   3.000   0.023
 4987TIP3    H214905   4.643   2.887   0.124
 4988TIP3   OH214906   6.262   2.045   6.497
 4988TIP3    H114907   6.198   2.081   6.558
 4988TIP3    H214908   6.317   1.988   6.551
 4989TIP3   OH214909   4.854   5.191   3.784
 4989TIP3    H114910   4.871   5.216   3.693
 4989TIP3    H214911   4.910   5.249   3.835
 4990TIP3   OH214912   1.652   3.286   3.263
 4990TIP3    H114913   1.558   3.293   3.276
 4990TIP3    H214914   1.664   3.285   3.168
 4991TIP3   OH214915   3.091   5.217   1.754
 4991TIP3    H114916   3.183   5.238   1.734
 4991TIP3    H214917   3.041   5.261   1.686
 4992TIP3   OH214918   6.650   6.962   4.435
 4992TIP3    H114919   6.713   6.916   4.491
 4992TIP3    H214920   6.676   6.939   4.346
 4993TIP3   OH214921   2.303   2.403   0.330
 4993TIP3    H114922   2.398   2.403   0.319
 4993TIP3    H214923   2.271   2.461   0.260
 4994TIP3   OH214924   0.878   7.806   3.868
 4994TIP3    H114925   0.867   7.901   3.873
 4994TIP3    H214926   0.952   7.787   3.927
 4995TIP3   OH214927   3.799   3.715   6.245
 4995TIP3    H114928   3.871   3.777   6.253
 4995TIP3    H214929   3.841   3.630   6.234
 4996TIP3   OH214930   2.844   1.904   5.802
 4996TIP3    H114931   2.919   1.926   5.747
 4996TIP3    H214932   2.815   1.818   5.770
 4997TIP3   OH214933   1.526   1.968   6.283
 4997TIP3    H114934   1.620   1.957   6.272
 4997TIP3    H214935   1.515   1.989   6.376
 4998TIP3   OH214936   7.262   3.679   3.565
 4998TIP3    H114937   7.264   3.775   3.561
 4998TIP3    H214938   7.354   3.654   3.564
 4999TIP3   OH214939   5.607   5.287   1.951
 4999TIP3    H114940   5.652   5.209   1.985
 4999TIP3    H214941   5.515   5.273   1.973
 5000TIP3   OH214942   4.053   4.202   3.457
 5000TIP3    H114943   4.074   4.278   3.511
 5000TIP3    H214944   4.085   4.225   3.370
 5001TIP3   OH214945   3.790   3.768   1.018
 5001TIP3    H114946   3.776   3.724   0.934
 5001TIP3    H214947   3.852   3.838   0.998
 5002TIP3   OH214948   1.314   6.692   1.848
 5002TIP3    H114949   1.244   6.679   1.911
 5002TIP3    H214950   1.269   6.697   1.763
 5003TIP3   OH214951   6.078   7.600   6.002
 5003TIP3    H114952   6.045   7.540   5.936
 5003TIP3    H214953   6.018   7.590   6.076
 5004TIP3   OH214954   7.534   1.228   4.428
 5004TIP3    H114955   7.530   1.275   4.512
 5004TIP3    H214956   7.626   1.204   4.418
 5005TIP3   OH214957   1.158   6.969   0.773
 5005TIP3    H114958   1.108   6.887   0.770
 5005TIP3    H214959   1.111   7.028   0.714
 5006TIP3   OH214960   5.821   6.378   6.041
 5006TIP3    H114961   5.832   6.473   6.037
 5006TIP3    H214962   5.891   6.349   6.099
 5007TIP3   OH214963   8.271   5.588   1.181
 5007TIP3    H114964   8.201   5.562   1.121
 5007TIP3    H214965   8.263   5.683   1.187
 5008TIP3   OH214966   0.279   0.694   6.408
 5008TIP3    H114967   0.260   0.719   6.498
 5008TIP3    H214968   0.349   0.753   6.381
 5009TIP3   OH214969   5.984   6.362   3.260
 5009TIP3    H114970   5.993   6.457   3.252
 5009TIP3    H214971   5.900   6.342   3.218
 5010TIP3   OH214972   5.300   6.654   3.516
 5010TIP3    H114973   5.345   6.615   3.442
 5010TIP3    H214974   5.306   6.748   3.501
 5011TIP3   OH214975   3.767   5.199   2.415
 5011TIP3    H114976   3.863   5.199   2.411
 5011TIP3    H214977   3.741   5.122   2.365
 5012TIP3   OH214978   2.688   5.100   5.562
 5012TIP3    H114979   2.782   5.083   5.555
 5012TIP3    H214980   2.673   5.114   5.656
 5013TIP3   OH214981   2.146   6.617   4.962
 5013TIP3    H114982   2.181   6.543   4.912
 5013TIP3    H214983   2.128   6.581   5.049
 5014TIP3   OH214984   0.113   0.626   6.196
 5014TIP3    H114985   0.156   0.624   6.111
 5014TIP3    H214986   0.183   0.606   6.259
 5015TIP3   OH214987   4.565   2.763   3.910
 5015TIP3    H114988   4.626   2.742   3.980
 5015TIP3    H214989   4.598   2.717   3.833
 5016TIP3   OH214990   3.778   1.426  -0.010
 5016TIP3    H114991   3.822   1.412   0.074
 5016TIP3    H214992   3.833   1.379  -0.073
 5017TIP3   OH214993   1.117   7.322   3.828
 5017TIP3    H114994   1.031   7.361   3.817
 5017TIP3    H214995   1.138   7.282   3.743
 5018TIP3   OH214996   4.433   2.993   0.447
 5018TIP3    H114997   4.360   2.984   0.509
 5018TIP3    H214998   4.398   2.961   0.364
 5019TIP3   OH214999   7.397   4.333   5.572
 5019TIP3    H115000   7.407   4.252   5.522
 5019TIP3    H215001   7.322   4.317   5.628
 5020TIP3   OH215002   2.321   6.703   3.788
 5020TIP3    H115003   2.333   6.660   3.703
 5020TIP3    H215004   2.260   6.775   3.770
 5021TIP3   OH215005   4.596   0.213   4.645
 5021TIP3    H115006   4.603   0.153   4.720
 5021TIP3    H215007   4.651   0.287   4.669
 5022TIP3   OH215008   1.131   6.856   1.150
 5022TIP3    H115009   1.120   6.769   1.188
 5022TIP3    H215010   1.203   6.847   1.088
 5023TIP3   OH215011   6.451   1.380   3.998
 5023TIP3    H115012   6.508   1.457   3.994
 5023TIP3    H215013   6.504   1.308   3.964
 5024TIP3   OH215014   6.896   0.490  -0.003
 5024TIP3    H115015   6.855   0.459   0.077
 5024TIP3    H215016   6.965   0.426  -0.021
 5025TIP3   OH215017   6.415   3.322   5.124
 5025TIP3    H115018   6.330   3.281   5.110
 5025TIP3    H215019   6.420   3.390   5.057
 5026TIP3   OH215020   1.259   6.592   2.659
 5026TIP3    H115021   1.292   6.521   2.714
 5026TIP3    H215022   1.190   6.633   2.711
 5027TIP3   OH215023   0.313   3.921   6.269
 5027TIP3    H115024   0.366   3.934   6.191
 5027TIP3    H215025   0.358   3.852   6.318
 5028TIP3   OH215026   7.723   7.333   4.687
 5028TIP3    H115027   7.764   7.328   4.601
 5028TIP3    H215028   7.759   7.259   4.735
 5029TIP3   OH215029   6.751   2.511   2.551
 5029TIP3    H115030   6.812   2.469   2.491
 5029TIP3    H215031   6.668   2.465   2.536
 5030TIP3   OH215032   8.199   5.251   4.610
 5030TIP3    H115033   8.269   5.275   4.671
 5030TIP3    H215034   8.142   5.192   4.660
 5031TIP3   OH215035   3.792   2.354   3.189
 5031TIP3    H115036   3.864   2.333   3.249
 5031TIP3    H215037   3.826   2.332   3.102
 5032TIP3   OH215038   4.517   0.748   2.952
 5032TIP3    H115039   4.595   0.702   2.920
 5032TIP3    H215040   4.444   0.691   2.928
 5033TIP3   OH215041   6.258   2.385   5.617
 5033TIP3    H115042   6.237   2.477   5.632
 5033TIP3    H215043   6.354   2.381   5.621
 5034TIP3   OH215044   0.892   6.932   4.038
 5034TIP3    H115045   0.800   6.958   4.047
 5034TIP3    H215046   0.940   7.015   4.035
 5035TIP3   OH215047   0.534   6.973   3.653
 5035TIP3    H115048   0.582   6.906   3.605
 5035TIP3    H215049   0.444   6.965   3.621
 5036TIP3   OH215050   0.605   4.980   4.082
 5036TIP3    H115051   0.657   4.941   4.012
 5036TIP3    H215052   0.561   5.054   4.040
 5037TIP3   OH215053   5.421   3.213   3.520
 5037TIP3    H115054   5.509   3.248   3.511
 5037TIP3    H215055   5.364   3.279   3.481
 5038TIP3   OH215056   2.231   3.469   3.533
 5038TIP3    H115057   2.234   3.387   3.484
 5038TIP3    H215058   2.143   3.471   3.571
 5039TIP3   OH215059   7.699   3.505   5.723
 5039TIP3    H115060   7.684   3.417   5.689
 5039TIP3    H215061   7.613   3.533   5.755
 5040TIP3   OH215062   4.300   6.022   2.690
 5040TIP3    H115063   4.395   6.015   2.697
 5040TIP3    H215064   4.268   5.932   2.703
 5041TIP3   OH215065   2.085   3.027   3.199
 5041TIP3    H115066   2.088   2.975   3.119
 5041TIP3    H215067   1.994   3.057   3.205
 5042TIP3   OH215068   2.642   6.784   4.145
 5042TIP3    H115069   2.593   6.857   4.108
 5042TIP3    H215070   2.733   6.800   4.118
 5043TIP3   OH215071   7.911   1.224   4.516
 5043TIP3    H115072   7.839   1.201   4.574
 5043TIP3    H215073   7.943   1.140   4.482
 5044TIP3   OH215074   3.302   4.014   4.663
 5044TIP3    H115075   3.306   4.097   4.617
 5044TIP3    H215076   3.392   3.981   4.661
 5045TIP3   OH215077   6.600   4.925   5.463
 5045TIP3    H115078   6.629   5.016   5.461
 5045TIP3    H215079   6.504   4.930   5.460
 5046TIP3   OH215080   1.975   4.541   5.535
 5046TIP3    H115081   2.064   4.575   5.535
 5046TIP3    H215082   1.984   4.447   5.547
 5047TIP3   OH215083   3.635   5.352   5.358
 5047TIP3    H115084   3.552   5.321   5.394
 5047TIP3    H215085   3.623   5.350   5.263
 5048TIP3   OH215086   4.679   6.052   2.773
 5048TIP3    H115087   4.775   6.052   2.774
 5048TIP3    H215088   4.654   5.966   2.806
 5049TIP3   OH215089   1.518   1.850   6.783
 5049TIP3    H115090   1.597   1.800   6.764
 5049TIP3    H215091   1.480   1.869   6.697
 5050TIP3   OH215092   3.894   5.902   2.084
 5050TIP3    H115093   3.948   5.869   2.156
 5050TIP3    H215094   3.812   5.853   2.091
 5051TIP3   OH215095   5.517   3.477   3.285
 5051TIP3    H115096   5.525   3.490   3.190
 5051TIP3    H215097   5.577   3.541   3.323
 5052TIP3   OH215098   1.200   5.143   1.425
 5052TIP3    H115099   1.141   5.068   1.425
 5052TIP3    H215100   1.281   5.110   1.463
 5053TIP3   OH215101   7.082   2.767   0.667
 5053TIP3    H115102   7.134   2.736   0.594
 5053TIP3    H215103   7.007   2.707   0.670
 5054TIP3   OH215104   6.749   5.489   0.989
 5054TIP3    H115105   6.658   5.464   1.005
 5054TIP3    H215106   6.753   5.581   1.017
 5055TIP3   OH215107   2.533   6.176   2.282
 5055TIP3    H115108   2.452   6.194   2.330
 5055TIP3    H215109   2.585   6.256   2.294
 5056TIP3   OH215110   3.373   1.403   5.770
 5056TIP3    H115111   3.291   1.420   5.724
 5056TIP3    H215112   3.391   1.484   5.818
 5057TIP3   OH215113   4.132   4.229   5.266
 5057TIP3    H115114   4.177   4.145   5.254
 5057TIP3    H215115   4.045   4.216   5.228
 5058TIP3   OH215116   0.621   7.393   1.301
 5058TIP3    H115117   0.682   7.432   1.363
 5058TIP3    H215118   0.582   7.468   1.255
 5059TIP3   OH215119   1.634   6.485   0.732
 5059TIP3    H115120   1.669   6.574   0.726
 5059TIP3    H215121   1.586   6.483   0.814
 5060TIP3   OH215122   2.545   3.437   1.135
 5060TIP3    H115123   2.456   3.468   1.119
 5060TIP3    H215124   2.536   3.378   1.209
 5061TIP3   OH215125   3.549   3.186   5.493
 5061TIP3    H115126   3.562   3.134   5.414
 5061TIP3    H215127   3.512   3.124   5.557
 5062TIP3   OH215128   6.805   7.237   4.510
 5062TIP3    H115129   6.750   7.268   4.439
 5062TIP3    H215130   6.765   7.155   4.538
 5063TIP3   OH215131   6.468   2.908   4.663
 5063TIP3    H115132   6.417   2.935   4.739
 5063TIP3    H215133   6.467   2.812   4.666
 5064TIP3   OH215134   2.431   7.421   3.965
 5064TIP3    H115135   2.525   7.434   3.949
 5064TIP3    H215136   2.398   7.509   3.981
 5065TIP3   OH215137   5.203   7.124   3.446
 5065TIP3    H115138   5.123   7.165   3.412
 5065TIP3    H215139   5.231   7.182   3.517
 5066TIP3   OH215140   7.840   0.371   2.790
 5066TIP3    H115141   7.920   0.320   2.803
 5066TIP3    H215142   7.775   0.307   2.761
 5067TIP3   OH215143   1.102   3.234   3.303
 5067TIP3    H115144   1.054   3.218   3.385
 5067TIP3    H215145   1.193   3.213   3.325
 5068TIP3   OH215146   2.371   2.024   4.975
 5068TIP3    H115147   2.368   2.077   5.055
 5068TIP3    H215148   2.426   1.949   4.998
 5069TIP3   OH215149   0.631   0.519   1.547
 5069TIP3    H115150   0.636   0.442   1.604
 5069TIP3    H215151   0.692   0.581   1.586
 5070TIP3   OH215152   5.191   6.324   4.151
 5070TIP3    H115153   5.257   6.318   4.219
 5070TIP3    H215154   5.213   6.254   4.089
 5071TIP3   OH215155   3.950   3.709   2.875
 5071TIP3    H115156   3.889   3.701   2.949
 5071TIP3    H215157   4.032   3.737   2.915
 5072TIP3   OH215158   3.499   7.487   1.685
 5072TIP3    H115159   3.527   7.453   1.770
 5072TIP3    H215160   3.488   7.409   1.630
 5073TIP3   OH215161   6.626   5.766   5.160
 5073TIP3    H115162   6.535   5.783   5.185
 5073TIP3    H215163   6.643   5.827   5.088
 5074TIP3   OH215164   5.158   4.757   0.760
 5074TIP3    H115165   5.117   4.752   0.674
 5074TIP3    H215166   5.086   4.776   0.820
 5075TIP3   OH215167   8.259   1.142   5.308
 5075TIP3    H115168   8.310   1.221   5.289
 5075TIP3    H215169   8.170   1.163   5.279
 5076TIP3   OH215170   3.088   2.465   4.738
 5076TIP3    H115171   3.178   2.439   4.718
 5076TIP3    H215172   3.039   2.445   4.658
 5077TIP3   OH215173   2.374   2.668   1.844
 5077TIP3    H115174   2.405   2.691   1.931
 5077TIP3    H215175   2.431   2.596   1.817
 5078TIP3   OH215176   7.141   0.254   1.632
 5078TIP3    H115177   7.063   0.220   1.676
 5078TIP3    H215178   7.122   0.243   1.539
 5079TIP3   OH215179   2.058   7.309   3.307
 5079TIP3    H115180   2.035   7.237   3.248
 5079TIP3    H215181   1.976   7.334   3.349
 5080TIP3   OH215182   0.583   1.375   2.817
 5080TIP3    H115183   0.555   1.389   2.726
 5080TIP3    H215184   0.506   1.339   2.860
 5081TIP3   OH215185   3.854   4.821   0.812
 5081TIP3    H115186   3.781   4.764   0.787
 5081TIP3    H215187   3.831   4.851   0.899
 5082TIP3   OH215188   3.419   2.915   1.479
 5082TIP3    H115189   3.456   2.905   1.392
 5082TIP3    H215190   3.324   2.909   1.466
 5083TIP3   OH215191   1.194   3.847   0.322
 5083TIP3    H115192   1.264   3.788   0.348
 5083TIP3    H215193   1.159   3.882   0.404
 5084TIP3   OH215194   0.881   5.409   6.719
 5084TIP3    H115195   0.949   5.342   6.711
 5084TIP3    H215196   0.800   5.359   6.735
 5085TIP3   OH215197   0.351   4.981   0.841
 5085TIP3    H115198   0.273   5.035   0.826
 5085TIP3    H215199   0.316   4.894   0.863
 5086TIP3   OH215200   7.742   7.761   5.831
 5086TIP3    H115201   7.807   7.831   5.839
 5086TIP3    H215202   7.685   7.773   5.907
 5087TIP3   OH215203   2.160   6.954   3.668
 5087TIP3    H115204   2.101   6.899   3.616
 5087TIP3    H215205   2.148   7.042   3.633
 5088TIP3   OH215206   5.725   1.901   1.133
 5088TIP3    H115207   5.720   1.895   1.229
 5088TIP3    H215208   5.775   1.825   1.106
 5089TIP3   OH215209   6.809   2.339   2.096
 5089TIP3    H115210   6.780   2.248   2.088
 5089TIP3    H215211   6.876   2.349   2.029
 5090TIP3   OH215212   2.242   5.463   4.519
 5090TIP3    H115213   2.283   5.501   4.441
 5090TIP3    H215214   2.314   5.443   4.578
 5091TIP3   OH215215   1.817  -0.005   6.342
 5091TIP3    H115216   1.872   0.049   6.286
 5091TIP3    H215217   1.807   0.045   6.423
 5092TIP3   OH215218   5.208   6.475   0.631
 5092TIP3    H115219   5.150   6.425   0.573
 5092TIP3    H215220   5.179   6.566   0.620
 5093TIP3   OH215221   5.106   5.577   6.424
 5093TIP3    H115222   5.156   5.658   6.410
 5093TIP3    H215223   5.170   5.518   6.464
 5094TIP3   OH215224   0.805   1.643   4.229
 5094TIP3    H115225   0.756   1.725   4.224
 5094TIP3    H215226   0.774   1.601   4.309
 5095TIP3   OH215227   6.879   2.110   6.052
 5095TIP3    H115228   6.936   2.089   6.127
 5095TIP3    H215229   6.877   2.205   6.049
 5096TIP3   OH215230   1.407   5.170   3.041
 5096TIP3    H115231   1.480   5.219   3.080
 5096TIP3    H215232   1.330   5.226   3.056
 5097TIP3   OH215233   1.725   5.651   0.653
 5097TIP3    H115234   1.703   5.631   0.562
 5097TIP3    H215235   1.641   5.656   0.698
 5098TIP3   OH215236   5.066   0.066   0.950
 5098TIP3    H115237   5.158   0.085   0.972
 5098TIP3    H215238   5.069   0.043   0.857
 5099TIP3   OH215239   1.143   6.114   4.284
 5099TIP3    H115240   1.066   6.137   4.232
 5099TIP3    H215241   1.169   6.196   4.325
 5100TIP3   OH215242   6.167   0.488   1.694
 5100TIP3    H115243   6.159   0.558   1.630
 5100TIP3    H215244   6.236   0.517   1.753
 5101TIP3   OH215245   3.165   7.640   1.062
 5101TIP3    H115246   3.191   7.691   0.985
 5101TIP3    H215247   3.156   7.551   1.030
 5102TIP3   OH215248   4.445   1.291   6.265
 5102TIP3    H115249   4.402   1.373   6.239
 5102TIP3    H215250   4.497   1.315   6.342
 5103TIP3   OH215251   0.928   4.471   1.844
 5103TIP3    H115252   0.914   4.399   1.906
 5103TIP3    H215253   0.842   4.485   1.805
 5104TIP3   OH215254   8.149   5.796   4.931
 5104TIP3    H115255   8.116   5.837   4.851
 5104TIP3    H215256   8.191   5.715   4.902
 5105TIP3   OH215257   3.749   7.163   0.896
 5105TIP3    H115258   3.734   7.240   0.952
 5105TIP3    H215259   3.722   7.089   0.950
 5106TIP3   OH215260   1.145   4.626   1.881
 5106TIP3    H115261   1.130   4.621   1.975
 5106TIP3    H215262   1.080   4.566   1.843
 5107TIP3   OH215263   1.147   3.351   1.718
 5107TIP3    H115264   1.205   3.427   1.716
 5107TIP3    H215265   1.194   3.286   1.770
 5108TIP3   OH215266   0.343   0.693   5.504
 5108TIP3    H115267   0.397   0.730   5.434
 5108TIP3    H215268   0.318   0.606   5.471
 5109TIP3   OH215269   5.255   4.675   6.712
 5109TIP3    H115270   5.350   4.676   6.724
 5109TIP3    H215271   5.238   4.597   6.659
 5110TIP3   OH215272   4.818   4.546   3.593
 5110TIP3    H115273   4.886   4.491   3.554
 5110TIP3    H215274   4.768   4.486   3.650
 5111TIP3   OH215275   7.407   5.512   2.037
 5111TIP3    H115276   7.479   5.521   2.098
 5111TIP3    H215277   7.446   5.530   1.951
 5112TIP3   OH215278   3.011   3.102   2.813
 5112TIP3    H115279   3.101   3.095   2.844
 5112TIP3    H215280   2.960   3.055   2.878
 5113TIP3   OH215281   7.825   4.760   1.416
 5113TIP3    H115282   7.875   4.700   1.362
 5113TIP3    H215283   7.769   4.704   1.469
 5114TIP3   OH215284   5.700   4.550   2.723
 5114TIP3    H115285   5.662   4.619   2.668
 5114TIP3    H215286   5.625   4.503   2.758
 5115TIP3   OH215287   3.780   7.133   0.582
 5115TIP3    H115288   3.789   7.205   0.645
 5115TIP3    H215289   3.751   7.176   0.501
 5116TIP3   OH215290   7.210   0.761   1.714
 5116TIP3    H115291   7.196   0.694   1.647
 5116TIP3    H215292   7.299   0.793   1.698
 5117TIP3   OH215293   6.196   2.665   2.512
 5117TIP3    H115294   6.251   2.661   2.433
 5117TIP3    H215295   6.114   2.704   2.482
 5118TIP3   OH215296   5.859   6.136   5.382
 5118TIP3    H115297   5.826   6.117   5.294
 5118TIP3    H215298   5.952   6.157   5.369
 5119TIP3   OH215299   7.507   0.393   2.365
 5119TIP3    H115300   7.437   0.354   2.312
 5119TIP3    H215301   7.490   0.363   2.454
 5120TIP3   OH215302   0.644   0.324   2.416
 5120TIP3    H115303   0.664   0.240   2.374
 5120TIP3    H215304   0.721   0.378   2.399
 5121TIP3   OH215305   7.706   3.112   5.340
 5121TIP3    H115306   7.682   3.043   5.402
 5121TIP3    H215307   7.705   3.192   5.392
 5122TIP3   OH215308   2.497   2.634   6.610
 5122TIP3    H115309   2.407   2.634   6.641
 5122TIP3    H215310   2.549   2.606   6.685
 5123TIP3   OH215311   6.061   2.474   2.025
 5123TIP3    H115312   6.156   2.461   2.023
 5123TIP3    H215313   6.030   2.411   2.091
 5124TIP3   OH215314   3.519   4.416   3.602
 5124TIP3    H115315   3.521   4.511   3.597
 5124TIP3    H215316   3.541   4.397   3.693
 5125TIP3   OH215317   0.131   0.650   0.470
 5125TIP3    H115318   0.054   0.601   0.440
 5125TIP3    H215319   0.128   0.732   0.420
 5126TIP3   OH215320   7.855   5.794   1.230
 5126TIP3    H115321   7.896   5.880   1.243
 5126TIP3    H215322   7.883   5.767   1.143
 5127TIP3   OH215323   1.666   3.847   1.571
 5127TIP3    H115324   1.722   3.920   1.547
 5127TIP3    H215325   1.580   3.869   1.535
 5128TIP3   OH215326   7.994   0.935   1.394
 5128TIP3    H115327   7.961   0.992   1.324
 5128TIP3    H215328   7.939   0.955   1.469
 5129TIP3   OH215329   1.548   2.423   2.475
 5129TIP3    H115330   1.615   2.391   2.415
 5129TIP3    H215331   1.476   2.360   2.466
 5130TIP3   OH215332   0.220   0.784   3.067
 5130TIP3    H115333   0.291   0.741   3.115
 5130TIP3    H215334   0.159   0.713   3.047
 5131TIP3   OH215335   6.665   4.481   2.394
 5131TIP3    H115336   6.645   4.389   2.372
 5131TIP3    H215337   6.680   4.480   2.488
 5132TIP3   OH215338   6.303   5.488   5.158
 5132TIP3    H115339   6.384   5.440   5.178
 5132TIP3    H215340   6.235   5.420   5.158
 5133TIP3   OH215341   2.066   0.720   1.617
 5133TIP3    H115342   2.072   0.625   1.620
 5133TIP3    H215343   2.063   0.741   1.524
 5134TIP3   OH215344   2.930   1.059   1.062
 5134TIP3    H115345   2.849   1.093   1.023
 5134TIP3    H215346   2.907   0.970   1.089
 5135TIP3   OH215347   7.909   7.799   4.163
 5135TIP3    H115348   7.908   7.704   4.150
 5135TIP3    H215349   7.932   7.810   4.256
 5136TIP3   OH215350   2.931   1.835   1.319
 5136TIP3    H115351   2.924   1.815   1.226
 5136TIP3    H215352   2.907   1.754   1.363
 5137TIP3   OH215353   7.097   5.686   5.465
 5137TIP3    H115354   7.119   5.595   5.446
 5137TIP3    H215355   7.164   5.714   5.528
 5138TIP3   OH215356   7.558   0.114   5.678
 5138TIP3    H115357   7.471   0.150   5.657
 5138TIP3    H215358   7.572   0.140   5.769
 5139TIP3   OH215359   2.518   2.393   2.049
 5139TIP3    H115360   2.527   2.319   2.109
 5139TIP3    H215361   2.586   2.380   1.984
 5140TIP3   OH215362   1.171   6.327   4.004
 5140TIP3    H115363   1.102   6.324   4.070
 5140TIP3    H215364   1.135   6.382   3.934
 5141TIP3   OH215365   5.212   0.920   0.466
 5141TIP3    H115366   5.127   0.896   0.430
 5141TIP3    H215367   5.264   0.840   0.460
 5142TIP3   OH215368   2.736   3.457   4.977
 5142TIP3    H115369   2.666   3.462   5.042
 5142TIP3    H215370   2.802   3.519   5.009
 5143TIP3   OH215371   1.309   5.049   5.417
 5143TIP3    H115372   1.243   5.065   5.350
 5143TIP3    H215373   1.309   5.129   5.470
 5144TIP3   OH215374   3.356   2.913   4.127
 5144TIP3    H115375   3.295   2.883   4.059
 5144TIP3    H215376   3.362   3.008   4.114
 5145TIP3   OH215377   6.424   3.898   5.824
 5145TIP3    H115378   6.463   3.851   5.898
 5145TIP3    H215379   6.481   3.975   5.813
 5146TIP3   OH215380   6.273   3.627   5.367
 5146TIP3    H115381   6.181   3.599   5.365
 5146TIP3    H215382   6.322   3.547   5.385
 5147TIP3   OH215383   3.381   2.464   5.111
 5147TIP3    H115384   3.286   2.471   5.106
 5147TIP3    H215385   3.407   2.426   5.027
 5148TIP3   OH215386   1.093   1.056   5.514
 5148TIP3    H115387   1.058   1.130   5.463
 5148TIP3    H215388   1.165   1.094   5.564
 5149TIP3   OH215389   2.209   6.619   0.109
 5149TIP3    H115390   2.304   6.622   0.120
 5149TIP3    H215391   2.181   6.710   0.113
 5150TIP3   OH215392   2.234   4.583   6.169
 5150TIP3    H115393   2.157   4.600   6.114
 5150TIP3    H215394   2.205   4.603   6.258
 5151TIP3   OH215395   0.862   2.004   6.618
 5151TIP3    H115396   0.892   2.090   6.590
 5151TIP3    H215397   0.857   2.010   6.714
 5152TIP3   OH215398   2.537   7.321   6.417
 5152TIP3    H115399   2.532   7.366   6.333
 5152TIP3    H215400   2.460   7.351   6.465
 5153TIP3   OH215401   4.829   7.142   4.565
 5153TIP3    H115402   4.813   7.052   4.537
 5153TIP3    H215403   4.805   7.144   4.658
 5154TIP3   OH215404   0.614   6.544   5.118
 5154TIP3    H115405   0.637   6.497   5.198
 5154TIP3    H215406   0.521   6.563   5.126
 5155TIP3   OH215407   3.114   4.613   1.798
 5155TIP3    H115408   3.131   4.670   1.723
 5155TIP3    H215409   3.070   4.670   1.862
 5156TIP3   OH215410   3.572   2.891   1.885
 5156TIP3    H115411   3.494   2.917   1.837
 5156TIP3    H215412   3.622   2.972   1.895
 5157TIP3   OH215413   7.941   6.762   1.988
 5157TIP3    H115414   7.909   6.672   1.978
 5157TIP3    H215415   7.969   6.767   2.080
 5158TIP3   OH215416   6.571   7.057   5.407
 5158TIP3    H115417   6.535   6.971   5.384
 5158TIP3    H215418   6.632   7.077   5.336
 5159TIP3   OH215419   6.172   0.428   4.351
 5159TIP3    H115420   6.102   0.395   4.407
 5159TIP3    H215421   6.154   0.522   4.343
 5160TIP3   OH215422   2.793   5.077   0.168
 5160TIP3    H115423   2.770   4.985   0.185
 5160TIP3    H215424   2.823   5.110   0.253
 5161TIP3   OH215425   6.387   7.064   0.366
 5161TIP3    H115426   6.382   7.126   0.439
 5161TIP3    H215427   6.459   7.096   0.312
 5162TIP3   OH215428   3.191   0.747   5.965
 5162TIP3    H115429   3.134   0.819   5.991
 5162TIP3    H215430   3.279   0.777   5.990
 5163TIP3   OH215431   3.711   0.689   5.451
 5163TIP3    H115432   3.705   0.618   5.387
 5163TIP3    H215433   3.631   0.682   5.502
 5164TIP3   OH215434   0.517   3.830   4.105
 5164TIP3    H115435   0.601   3.793   4.131
 5164TIP3    H215436   0.455   3.796   4.169
 5165TIP3   OH215437   0.109   0.230   3.027
 5165TIP3    H115438   0.054   0.151   3.031
 5165TIP3    H215439   0.186   0.207   3.079
 5166TIP3   OH215440   0.228   4.597   5.591
 5166TIP3    H115441   0.252   4.636   5.507
 5166TIP3    H215442   0.231   4.503   5.574
 5167TIP3   OH215443   3.293   2.350   0.567
 5167TIP3    H115444   3.228   2.280   0.570
 5167TIP3    H215445   3.351   2.325   0.494
 5168TIP3   OH215446   1.464   1.399   2.074
 5168TIP3    H115447   1.497   1.326   2.021
 5168TIP3    H215448   1.379   1.370   2.105
 5169TIP3   OH215449   2.255   3.070   1.185
 5169TIP3    H115450   2.190   3.061   1.115
 5169TIP3    H215451   2.326   3.010   1.159
 5170TIP3   OH215452   6.284   4.118   2.853
 5170TIP3    H115453   6.196   4.152   2.837
 5170TIP3    H215454   6.274   4.023   2.852
 5171TIP3   OH215455   1.535   0.457   2.676
 5171TIP3    H115456   1.483   0.438   2.754
 5171TIP3    H215457   1.542   0.373   2.631
 5172TIP3   OH215458   2.567   0.590   6.726
 5172TIP3    H115459   2.518   0.565   6.648
 5172TIP3    H215460   2.531   0.675   6.751
 5173TIP3   OH215461   5.503   5.210   2.716
 5173TIP3    H115462   5.451   5.198   2.637
 5173TIP3    H215463   5.594   5.205   2.685
 5174TIP3   OH215464   1.606   3.839   4.258
 5174TIP3    H115465   1.675   3.901   4.285
 5174TIP3    H215466   1.606   3.843   4.163
 5175TIP3   OH215467   0.431   3.885   0.695
 5175TIP3    H115468   0.354   3.911   0.745
 5175TIP3    H215469   0.498   3.949   0.718
 5176TIP3   OH215470   7.576   5.573   5.833
 5176TIP3    H115471   7.531   5.497   5.795
 5176TIP3    H215472   7.596   5.629   5.758
 5177TIP3   OH215473   6.130   6.957   3.899
 5177TIP3    H115474   6.126   7.052   3.887
 5177TIP3    H215475   6.060   6.937   3.960
 5178TIP3   OH215476   8.299   4.897   1.416
 5178TIP3    H115477   8.341   4.977   1.384
 5178TIP3    H215478   8.209   4.923   1.435
 5179TIP3   OH215479   5.907   4.610   2.578
 5179TIP3    H115480   5.858   4.638   2.500
 5179TIP3    H215481   5.841   4.571   2.635
 5180TIP3   OH215482   3.527   1.451   4.395
 5180TIP3    H115483   3.440   1.488   4.386
 5180TIP3    H215484   3.544   1.408   4.311
 5181TIP3   OH215485   5.957   4.316   5.977
 5181TIP3    H115486   5.974   4.270   6.060
 5181TIP3    H215487   5.902   4.256   5.927
 5182TIP3   OH215488   1.848   5.909   3.993
 5182TIP3    H115489   1.880   5.865   4.071
 5182TIP3    H215490   1.773   5.959   4.023
 5183TIP3   OH215491   4.926   3.712   6.276
 5183TIP3    H115492   4.849   3.737   6.224
 5183TIP3    H215493   5.000   3.729   6.218
 5184TIP3   OH215494   0.259   6.497   5.310
 5184TIP3    H115495   0.303   6.519   5.229
 5184TIP3    H215496   0.237   6.404   5.302
 5185TIP3   OH215497   5.528   4.055   6.011
 5185TIP3    H115498   5.498   4.145   5.996
 5185TIP3    H215499   5.602   4.065   6.071
 5186TIP3   OH215500   2.587   3.625   2.389
 5186TIP3    H115501   2.674   3.663   2.401
 5186TIP3    H215502   2.549   3.623   2.477
 5187TIP3   OH215503   3.654   2.822   0.752
 5187TIP3    H115504   3.701   2.842   0.833
 5187TIP3    H215505   3.710   2.758   0.707
 5188TIP3   OH215506   0.280   1.586   2.671
 5188TIP3    H115507   0.304   1.507   2.622
 5188TIP3    H215508   0.185   1.592   2.662
 5189TIP3   OH215509   0.297   4.794   0.340
 5189TIP3    H115510   0.219   4.788   0.285
 5189TIP3    H215511   0.349   4.864   0.302
 5190TIP3   OH215512   7.793   6.920   2.871
 5190TIP3    H115513   7.740   6.932   2.792
 5190TIP3    H215514   7.854   6.995   2.870
 5191TIP3   OH215515   4.967   3.611   0.201
 5191TIP3    H115516   4.990   3.529   0.158
 5191TIP3    H215517   4.882   3.635   0.165
 5192TIP3   OH215518   3.117   3.757   3.477
 5192TIP3    H115519   3.116   3.668   3.442
 5192TIP3    H215520   3.031   3.792   3.456
 5193TIP3   OH215521   4.146   3.907   2.333
 5193TIP3    H115522   4.173   3.995   2.305
 5193TIP3    H215523   4.226   3.855   2.329
 5194TIP3   OH215524   8.181   0.790   1.607
 5194TIP3    H115525   8.170   0.725   1.677
 5194TIP3    H215526   8.146   0.871   1.645
 5195TIP3   OH215527   7.398   0.710   2.515
 5195TIP3    H115528   7.335   0.665   2.459
 5195TIP3    H215529   7.483   0.695   2.472
 5196TIP3   OH215530   6.542   2.875   0.738
 5196TIP3    H115531   6.587   2.959   0.748
 5196TIP3    H215532   6.550   2.854   0.646
 5197TIP3   OH215533   3.327  -0.005   0.510
 5197TIP3    H115534   3.321   0.091   0.510
 5197TIP3    H215535   3.410  -0.023   0.554
 5198TIP3   OH215536   4.120   5.920   0.667
 5198TIP3    H115537   4.180   5.928   0.593
 5198TIP3    H215538   4.175   5.936   0.745
 5199TIP3   OH215539   3.728   1.875   0.897
 5199TIP3    H115540   3.654   1.925   0.932
 5199TIP3    H215541   3.778   1.937   0.845
 5200TIP3   OH215542   2.408   6.632   4.041
 5200TIP3    H115543   2.375   6.658   3.955
 5200TIP3    H215544   2.465   6.704   4.067
 5201TIP3   OH215545   7.403   3.422   0.651
 5201TIP3    H115546   7.394   3.348   0.711
 5201TIP3    H215547   7.323   3.473   0.664
 5202TIP3   OH215548   5.168   6.651   2.442
 5202TIP3    H115549   5.244   6.615   2.488
 5202TIP3    H215550   5.169   6.609   2.357
 5203TIP3   OH215551   3.028   1.965   3.684
 5203TIP3    H115552   2.960   1.899   3.673
 5203TIP3    H215553   3.109   1.919   3.665
 5204TIP3   OH215554   6.514   7.719   1.174
 5204TIP3    H115555   6.493   7.769   1.095
 5204TIP3    H215556   6.485   7.630   1.154
 5205TIP3   OH215557   2.976   6.522   4.068
 5205TIP3    H115558   2.940   6.506   4.156
 5205TIP3    H215559   2.989   6.616   4.065
 5206TIP3   OH215560   4.699   2.229   5.104
 5206TIP3    H115561   4.611   2.264   5.093
 5206TIP3    H215562   4.704   2.158   5.040
 5207TIP3   OH215563   7.956   6.146   0.530
 5207TIP3    H115564   7.968   6.131   0.623
 5207TIP3    H215565   8.022   6.213   0.508
 5208TIP3   OH215566   2.012   5.148   5.396
 5208TIP3    H115567   1.966   5.218   5.351
 5208TIP3    H215568   1.957   5.127   5.472
 5209TIP3   OH215569   6.765   2.917   2.497
 5209TIP3    H115570   6.851   2.889   2.529
 5209TIP3    H215571   6.755   2.871   2.413
 5210TIP3   OH215572   2.062   6.016   0.821
 5210TIP3    H115573   2.073   5.946   0.885
 5210TIP3    H215574   2.018   5.975   0.747
 5211TIP3   OH215575   1.382   3.875   4.987
 5211TIP3    H115576   1.448   3.918   5.041
 5211TIP3    H215577   1.327   3.828   5.050
 5212TIP3   OH215578   7.587   5.757   5.651
 5212TIP3    H115579   7.583   5.847   5.682
 5212TIP3    H215580   7.643   5.761   5.573
 5213TIP3   OH215581   2.463   1.761   3.312
 5213TIP3    H115582   2.485   1.849   3.281
 5213TIP3    H215583   2.516   1.702   3.259
 5214TIP3   OH215584   0.547   2.808   3.615
 5214TIP3    H115585   0.603   2.757   3.674
 5214TIP3    H215586   0.458   2.780   3.635
 5215TIP3   OH215587   6.944   2.756   4.670
 5215TIP3    H115588   6.887   2.826   4.702
 5215TIP3    H215589   6.907   2.676   4.707
 5216TIP3   OH215590   5.613   1.635   5.948
 5216TIP3    H115591   5.593   1.723   5.980
 5216TIP3    H215592   5.703   1.619   5.977
 5217TIP3   OH215593   1.853   2.804   5.573
 5217TIP3    H115594   1.874   2.890   5.535
 5217TIP3    H215595   1.758   2.796   5.562
 5218TIP3   OH215596   3.332   5.252   1.452
 5218TIP3    H115597   3.398   5.300   1.502
 5218TIP3    H215598   3.331   5.165   1.491
 5219TIP3   OH215599   8.214   6.201   4.718
 5219TIP3    H115600   8.274   6.175   4.647
 5219TIP3    H215601   8.251   6.160   4.796
 5220TIP3   OH215602   6.075   0.326   3.545
 5220TIP3    H115603   6.017   0.273   3.600
 5220TIP3    H215604   6.090   0.406   3.595
 5221TIP3   OH215605   0.484   5.888   0.119
 5221TIP3    H115606   0.473   5.903   0.212
 5221TIP3    H215607   0.573   5.854   0.111
 5222TIP3   OH215608   8.177   4.799   3.014
 5222TIP3    H115609   8.228   4.838   3.085
 5222TIP3    H215610   8.087   4.802   3.046
 5223TIP3   OH215611   6.661   6.117   1.362
 5223TIP3    H115612   6.590   6.054   1.376
 5223TIP3    H215613   6.677   6.155   1.448
 5224TIP3   OH215614   3.863   2.004   0.691
 5224TIP3    H115615   3.957   2.022   0.699
 5224TIP3    H215616   3.834   2.056   0.616
 5225TIP3   OH215617   6.569   0.041   6.007
 5225TIP3    H115618   6.627   0.016   5.935
 5225TIP3    H215619   6.490   0.074   5.964
 5226TIP3   OH215620   7.596   1.599   2.249
 5226TIP3    H115621   7.631   1.536   2.312
 5226TIP3    H215622   7.576   1.677   2.302
 5227TIP3   OH215623   0.700   6.979   2.733
 5227TIP3    H115624   0.730   6.939   2.652
 5227TIP3    H215625   0.728   7.070   2.727
 5228TIP3   OH215626   4.546   1.553   0.248
 5228TIP3    H115627   4.627   1.516   0.213
 5228TIP3    H215628   4.532   1.634   0.199
 5229TIP3   OH215629   8.134   5.024   3.882
 5229TIP3    H115630   8.061   4.975   3.919
 5229TIP3    H215631   8.156   4.976   3.802
 5230TIP3   OH215632   5.259   4.093   5.061
 5230TIP3    H115633   5.164   4.099   5.049
 5230TIP3    H215634   5.272   4.013   5.112
 5231TIP3   OH215635   7.583   3.478   6.156
 5231TIP3    H115636   7.667   3.499   6.114
 5231TIP3    H215637   7.549   3.563   6.183
 5232TIP3   OH215638   4.032   4.279   3.868
 5232TIP3    H115639   4.069   4.215   3.929
 5232TIP3    H215640   3.946   4.299   3.904
 5233TIP3   OH215641   0.286   1.172   4.303
 5233TIP3    H115642   0.314   1.163   4.394
 5233TIP3    H215643   0.221   1.243   4.305
 5234TIP3   OH215644   6.779   3.599   1.306
 5234TIP3    H115645   6.812   3.516   1.340
 5234TIP3    H215646   6.788   3.590   1.211
 5235TIP3   OH215647   0.875   0.330   5.960
 5235TIP3    H115648   0.853   0.338   5.867
 5235TIP3    H215649   0.951   0.272   5.961
 5236TIP3   OH215650   3.816   5.807   4.675
 5236TIP3    H115651   3.770   5.728   4.645
 5236TIP3    H215652   3.762   5.840   4.747
 5237TIP3   OH215653   1.565   5.646   3.786
 5237TIP3    H115654   1.652   5.685   3.782
 5237TIP3    H215655   1.516   5.705   3.844
 5238TIP3   OH215656   2.557   0.220   4.463
 5238TIP3    H115657   2.648   0.212   4.492
 5238TIP3    H215658   2.535   0.311   4.480
 5239TIP3   OH215659   3.924   5.029   2.656
 5239TIP3    H115660   3.864   5.091   2.696
 5239TIP3    H215661   3.970   5.079   2.589
 5240TIP3   OH215662   8.222   4.782   5.291
 5240TIP3    H115663   8.276   4.833   5.351
 5240TIP3    H215664   8.219   4.835   5.211
 5241TIP3   OH215665   3.615   1.441   6.455
 5241TIP3    H115666   3.617   1.346   6.454
 5241TIP3    H215667   3.701   1.467   6.487
 5242TIP3   OH215668   7.917   0.975   6.001
 5242TIP3    H115669   7.932   0.893   6.050
 5242TIP3    H215670   7.889   1.037   6.068
 5243TIP3   OH215671   0.024   7.818   2.043
 5243TIP3    H115672   0.071   7.783   1.967
 5243TIP3    H215673   0.049   7.760   2.115
 5244TIP3   OH215674   1.067   1.686   4.560
 5244TIP3    H115675   1.057   1.722   4.472
 5244TIP3    H215676   1.078   1.763   4.616
 5245TIP3   OH215677   3.176   3.478   1.001
 5245TIP3    H115678   3.087   3.483   0.966
 5245TIP3    H215679   3.226   3.430   0.935
 5246TIP3   OH215680   2.231   5.290   6.613
 5246TIP3    H115681   2.221   5.385   6.602
 5246TIP3    H215682   2.322   5.272   6.589
 5247TIP3   OH215683   2.469   3.968   5.538
 5247TIP3    H115684   2.508   4.038   5.591
 5247TIP3    H215685   2.457   4.007   5.451
 5248TIP3   OH215686   5.092   4.125   3.578
 5248TIP3    H115687   5.114   4.064   3.508
 5248TIP3    H215688   5.176   4.149   3.616
 5249TIP3   OH215689   8.287   1.609   2.335
 5249TIP3    H115690   8.199   1.634   2.306
 5249TIP3    H215691   8.283   1.514   2.346
 5250TIP3   OH215692   5.741   2.807   2.112
 5250TIP3    H115693   5.736   2.794   2.206
 5250TIP3    H215694   5.722   2.721   2.075
 5251TIP3   OH215695   7.427   6.351   5.421
 5251TIP3    H115696   7.446   6.424   5.481
 5251TIP3    H215697   7.354   6.383   5.367
 5252TIP3   OH215698   3.310   2.880   6.012
 5252TIP3    H115699   3.285   2.799   6.058
 5252TIP3    H215700   3.405   2.872   6.000
 5253TIP3   OH215701   3.214   4.630   3.460
 5253TIP3    H115702   3.306   4.617   3.435
 5253TIP3    H215703   3.216   4.632   3.556
 5254TIP3   OH215704   4.970   3.510   1.811
 5254TIP3    H115705   5.044   3.564   1.838
 5254TIP3    H215706   5.010   3.430   1.776
 5255TIP3   OH215707   8.093   6.096   2.494
 5255TIP3    H115708   8.049   6.031   2.439
 5255TIP3    H215709   8.062   6.079   2.583
 5256TIP3   OH215710   0.189   7.019   4.967
 5256TIP3    H115711   0.215   6.985   4.881
 5256TIP3    H215712   0.253   6.981   5.027
 5257TIP3   OH215713   4.253   0.153   0.206
 5257TIP3    H115714   4.234   0.239   0.169
 5257TIP3    H215715   4.277   0.172   0.297
 5258TIP3   OH215716   4.542   1.334   2.860
 5258TIP3    H115717   4.555   1.423   2.893
 5258TIP3    H215718   4.630   1.295   2.862
 5259TIP3   OH215719   1.371   2.554   5.240
 5259TIP3    H115720   1.338   2.489   5.302
 5259TIP3    H215721   1.298   2.571   5.182
 5260TIP3   OH215722   7.439   3.241   0.428
 5260TIP3    H115723   7.427   3.303   0.500
 5260TIP3    H215724   7.534   3.226   0.425
 5261TIP3   OH215725   2.761   7.526  -0.006
 5261TIP3    H115726   2.748   7.571   0.078
 5261TIP3    H215727   2.673   7.525  -0.045
 5262TIP3   OH215728   7.019   3.144   2.752
 5262TIP3    H115729   7.047   3.235   2.758
 5262TIP3    H215730   7.062   3.110   2.674
 5263TIP3   OH215731   5.764   2.758   4.398
 5263TIP3    H115732   5.673   2.782   4.381
 5263TIP3    H215733   5.813   2.800   4.327
 5264TIP3   OH215734   7.637   2.415   2.317
 5264TIP3    H115735   7.652   2.327   2.282
 5264TIP3    H215736   7.669   2.473   2.248
 5265TIP3   OH215737   6.522   6.251   6.337
 5265TIP3    H115738   6.540   6.345   6.340
 5265TIP3    H215739   6.606   6.211   6.359
 5266TIP3   OH215740   2.866   0.849   4.162
 5266TIP3    H115741   2.873   0.788   4.236
 5266TIP3    H215742   2.839   0.794   4.089
 5267TIP3   OH215743   2.354   1.055   1.402
 5267TIP3    H115744   2.376   0.966   1.374
 5267TIP3    H215745   2.264   1.048   1.434
 5268TIP3   OH215746   1.931   0.624   6.233
 5268TIP3    H115747   1.866   0.679   6.189
 5268TIP3    H215748   1.911   0.536   6.203
 5269TIP3   OH215749   0.669   2.268   5.226
 5269TIP3    H115750   0.635   2.279   5.315
 5269TIP3    H215751   0.633   2.185   5.197
 5270TIP3   OH215752   6.828   1.288   0.159
 5270TIP3    H115753   6.891   1.220   0.182
 5270TIP3    H215754   6.761   1.282   0.227
 5271TIP3   OH215755   3.375   1.574   3.548
 5271TIP3    H115756   3.419   1.590   3.465
 5271TIP3    H215757   3.359   1.661   3.584
 5272TIP3   OH215758   0.424   7.508   2.723
 5272TIP3    H115759   0.376   7.448   2.666
 5272TIP3    H215760   0.456   7.577   2.665
 5273TIP3   OH215761   4.244   1.794   5.381
 5273TIP3    H115762   4.311   1.830   5.439
 5273TIP3    H215763   4.165   1.843   5.402
 5274TIP3   OH215764   1.072   3.782   1.353
 5274TIP3    H115765   1.068   3.742   1.440
 5274TIP3    H215766   1.165   3.780   1.330
 5275TIP3   OH215767   5.785   7.694   3.423
 5275TIP3    H115768   5.845   7.663   3.491
 5275TIP3    H215769   5.840   7.743   3.362
 5276TIP3   OH215770   7.499   5.092   0.610
 5276TIP3    H115771   7.419   5.141   0.625
 5276TIP3    H215772   7.474   5.000   0.623
 5277TIP3   OH215773   2.846   2.527   3.820
 5277TIP3    H115774   2.876   2.452   3.769
 5277TIP3    H215775   2.927   2.565   3.856
 5278TIP3   OH215776   5.169   3.850   2.952
 5278TIP3    H115777   5.235   3.913   2.982
 5278TIP3    H215778   5.087   3.899   2.957
 5279TIP3   OH215779   5.785   3.292   0.510
 5279TIP3    H115780   5.744   3.374   0.482
 5279TIP3    H215781   5.879   3.308   0.501
 5280TIP3   OH215782   6.305   5.440   4.236
 5280TIP3    H115783   6.212   5.445   4.260
 5280TIP3    H215784   6.314   5.498   4.161
 5281TIP3   OH215785   6.818   0.172   5.064
 5281TIP3    H115786   6.884   0.163   5.132
 5281TIP3    H215787   6.811   0.084   5.026
 5282TIP3   OH215788   5.389   7.015   0.781
 5282TIP3    H115789   5.420   6.932   0.746
 5282TIP3    H215790   5.296   7.019   0.757
 5283TIP3   OH215791   4.298   1.025   1.467
 5283TIP3    H115792   4.353   0.967   1.520
 5283TIP3    H215793   4.343   1.029   1.382
 5284TIP3   OH215794   6.110   5.581   0.634
 5284TIP3    H115795   6.057   5.638   0.579
 5284TIP3    H215796   6.112   5.497   0.587
 5285TIP3   OH215797   1.736   3.965   2.844
 5285TIP3    H115798   1.799   4.032   2.817
 5285TIP3    H215799   1.720   3.915   2.764
 5286TIP3   OH215800   1.657   6.206   4.786
 5286TIP3    H115801   1.609   6.213   4.703
 5286TIP3    H215802   1.653   6.294   4.823
 5287TIP3   OH215803   4.389   2.077   2.529
 5287TIP3    H115804   4.362   1.985   2.534
 5287TIP3    H215805   4.474   2.075   2.486
 5288TIP3   OH215806   8.190   7.647   3.537
 5288TIP3    H115807   8.123   7.711   3.558
 5288TIP3    H215808   8.202   7.655   3.442
 5289TIP3   OH215809   0.872   3.350   6.337
 5289TIP3    H115810   0.880   3.443   6.320
 5289TIP3    H215811   0.783   3.339   6.371
 5290TIP3   OH215812   6.912   2.559   3.740
 5290TIP3    H115813   6.928   2.472   3.777
 5290TIP3    H215814   6.923   2.619   3.814
 5291TIP3   OH215815   2.700   3.090   3.927
 5291TIP3    H115816   2.673   3.150   3.996
 5291TIP3    H215817   2.770   3.137   3.881
 5292TIP3   OH215818   5.278   0.585   6.116
 5292TIP3    H115819   5.338   0.642   6.164
 5292TIP3    H215820   5.324   0.564   6.035
 5293TIP3   OH215821   2.603   5.841   5.254
 5293TIP3    H115822   2.675   5.814   5.312
 5293TIP3    H215823   2.642   5.840   5.166
 5294TIP3   OH215824   4.898   1.353   5.308
 5294TIP3    H115825   4.929   1.300   5.381
 5294TIP3    H215826   4.813   1.316   5.285
 5295TIP3   OH215827   6.342   6.412   6.705
 5295TIP3    H115828   6.390   6.459   6.636
 5295TIP3    H215829   6.409   6.357   6.746
 5296TIP3   OH215830   7.812   2.104   6.746
 5296TIP3    H115831   7.740   2.141   6.695
 5296TIP3    H215832   7.823   2.166   6.818
 5297TIP3   OH215833   1.059   1.871   0.261
 5297TIP3    H115834   1.025   1.945   0.310
 5297TIP3    H215835   1.049   1.897   0.169
 5298TIP3   OH215836   7.754   6.162   5.581
 5298TIP3    H115837   7.692   6.119   5.523
 5298TIP3    H215838   7.840   6.135   5.548
 5299TIP3   OH215839   1.465   5.812   4.026
 5299TIP3    H115840   1.531   5.813   4.095
 5299TIP3    H215841   1.393   5.865   4.060
 5300TIP3   OH215842   1.420   6.258   5.742
 5300TIP3    H115843   1.419   6.238   5.649
 5300TIP3    H215844   1.452   6.348   5.747
 5301TIP3   OH215845   3.036   5.505   6.703
 5301TIP3    H115846   3.024   5.575   6.638
 5301TIP3    H215847   3.087   5.545   6.773
 5302TIP3   OH215848   6.381   3.489   1.712
 5302TIP3    H115849   6.375   3.453   1.623
 5302TIP3    H215850   6.330   3.429   1.766
 5303TIP3   OH215851   3.781   7.257   2.773
 5303TIP3    H115852   3.857   7.278   2.719
 5303TIP3    H215853   3.815   7.201   2.843
 5304TIP3   OH215854   3.114   4.248   3.885
 5304TIP3    H115855   3.129   4.154   3.895
 5304TIP3    H215856   3.200   4.284   3.862
 5305TIP3   OH215857   2.713   6.857   4.522
 5305TIP3    H115858   2.630   6.835   4.480
 5305TIP3    H215859   2.779   6.812   4.469
 5306TIP3   OH215860   5.236   6.705   5.535
 5306TIP3    H115861   5.209   6.615   5.523
 5306TIP3    H215862   5.297   6.722   5.464
 5307TIP3   OH215863   3.637   5.947   4.849
 5307TIP3    H115864   3.552   5.985   4.869
 5307TIP3    H215865   3.667   5.910   4.933
 5308TIP3   OH215866   7.083   0.224   1.372
 5308TIP3    H115867   7.084   0.128   1.369
 5308TIP3    H215868   7.093   0.251   1.280
 5309TIP3   OH215869   7.425   3.831  -0.036
 5309TIP3    H115870   7.371   3.769   0.012
 5309TIP3    H215871   7.495   3.854   0.025
 5310TIP3   OH215872   5.114   2.338   3.768
 5310TIP3    H115873   5.191   2.286   3.744
 5310TIP3    H215874   5.130   2.363   3.859
 5311TIP3   OH215875   4.429   5.602   2.548
 5311TIP3    H115876   4.480   5.682   2.558
 5311TIP3    H215877   4.426   5.586   2.453
 5312TIP3   OH215878   3.358   3.904   3.380
 5312TIP3    H115879   3.334   3.932   3.291
 5312TIP3    H215880   3.286   3.848   3.408
 5313TIP3   OH215881   3.995   6.562   3.412
 5313TIP3    H115882   4.076   6.584   3.459
 5313TIP3    H215883   4.019   6.485   3.360
 5314TIP3   OH215884   0.940   2.435   6.364
 5314TIP3    H115885   0.978   2.446   6.277
 5314TIP3    H215886   0.938   2.524   6.401
 5315TIP3   OH215887   4.168   3.780   3.048
 5315TIP3    H115888   4.221   3.707   3.081
 5315TIP3    H215889   4.104   3.795   3.118
 5316TIP3   OH215890   5.653   6.682   3.418
 5316TIP3    H115891   5.623   6.713   3.504
 5316TIP3    H215892   5.746   6.664   3.430
 5317TIP3   OH215893   3.363   5.348   2.309
 5317TIP3    H115894   3.301   5.422   2.310
 5317TIP3    H215895   3.323   5.284   2.250
 5318TIP3   OH215896   2.982   0.871   0.652
 5318TIP3    H115897   2.970   0.792   0.704
 5318TIP3    H215898   3.073   0.897   0.668
 5319TIP3   OH215899   3.275   3.759   5.623
 5319TIP3    H115900   3.205   3.723   5.569
 5319TIP3    H215901   3.275   3.705   5.702
 5320TIP3   OH215902   7.486   2.495   1.460
 5320TIP3    H115903   7.424   2.422   1.459
 5320TIP3    H215904   7.538   2.484   1.380
 5321TIP3   OH215905   2.109   4.965   0.443
 5321TIP3    H115906   2.098   5.060   0.453
 5321TIP3    H215907   2.201   4.954   0.418
 5322TIP3   OH215908   2.176   1.891   3.603
 5322TIP3    H115909   2.180   1.862   3.512
 5322TIP3    H215910   2.184   1.986   3.599
 5323TIP3   OH215911   1.267   0.773   0.624
 5323TIP3    H115912   1.179   0.766   0.587
 5323TIP3    H215913   1.292   0.865   0.611
 5324TIP3   OH215914   1.218   6.411   6.182
 5324TIP3    H115915   1.202   6.493   6.229
 5324TIP3    H215916   1.207   6.344   6.249
 5325TIP3   OH215917   3.680   0.327   4.663
 5325TIP3    H115918   3.757   0.293   4.617
 5325TIP3    H215919   3.717   0.378   4.736
 5326TIP3   OH215920   6.146   0.053   4.021
 5326TIP3    H115921   6.169  -0.011   3.953
 5326TIP3    H215922   6.157   0.138   3.978
 5327TIP3   OH215923   4.578   1.020   3.058
 5327TIP3    H115924   4.510   1.056   3.113
 5327TIP3    H215925   4.541   0.938   3.024
 5328TIP3   OH215926   0.058   3.531   0.370
 5328TIP3    H115927  -0.006   3.488   0.313
 5328TIP3    H215928   0.142   3.494   0.344
 5329TIP3   OH215929   1.715   5.494   4.327
 5329TIP3    H115930   1.734   5.538   4.410
 5329TIP3    H215931   1.695   5.404   4.353
 5330TIP3   OH215932   6.270   4.014   1.623
 5330TIP3    H115933   6.234   4.093   1.664
 5330TIP3    H215934   6.334   3.982   1.686
 5331TIP3   OH215935   4.810   3.248   5.352
 5331TIP3    H115936   4.732   3.296   5.380
 5331TIP3    H215937   4.819   3.268   5.259
 5332TIP3   OH215938   1.028   6.025   5.459
 5332TIP3    H115939   0.966   6.063   5.521
 5332TIP3    H215940   1.017   6.078   5.380
 5333TIP3   OH215941   2.883   4.667   5.000
 5333TIP3    H115942   2.794   4.696   5.020
 5333TIP3    H215943   2.938   4.711   5.065
 5334TIP3   OH215944   3.530   3.207   4.506
 5334TIP3    H115945   3.592   3.278   4.523
 5334TIP3    H215946   3.579   3.144   4.454
 5335TIP3   OH215947   8.145   5.589   6.146
 5335TIP3    H115948   8.059   5.578   6.186
 5335TIP3    H215949   8.167   5.503   6.111
 5336TIP3   OH215950   6.209   4.393   4.625
 5336TIP3    H115951   6.302   4.386   4.604
 5336TIP3    H215952   6.192   4.319   4.684
 5337TIP3   OH215953   1.734   6.042   1.520
 5337TIP3    H115954   1.753   6.128   1.484
 5337TIP3    H215955   1.748   6.051   1.614
 5338TIP3   OH215956   2.183   7.600   2.993
 5338TIP3    H115957   2.204   7.677   3.045
 5338TIP3    H215958   2.266   7.553   2.985
 5339TIP3   OH215959   7.711   2.231   1.034
 5339TIP3    H115960   7.774   2.281   1.087
 5339TIP3    H215961   7.755   2.219   0.950
 5340TIP3   OH215962   6.695   4.203   1.368
 5340TIP3    H115963   6.671   4.126   1.420
 5340TIP3    H215964   6.663   4.184   1.280
 5341TIP3   OH215965   0.288   0.748   3.372
 5341TIP3    H115966   0.283   0.802   3.451
 5341TIP3    H215967   0.343   0.798   3.312
 5342TIP3   OH215968   6.208   4.247   5.683
 5342TIP3    H115969   6.233   4.182   5.749
 5342TIP3    H215970   6.112   4.248   5.685
 5343TIP3   OH215971   0.835   5.853   4.327
 5343TIP3    H115972   0.880   5.935   4.305
 5343TIP3    H215973   0.781   5.875   4.403
 5344TIP3   OH215974   2.186   1.767   0.139
 5344TIP3    H115975   2.188   1.726   0.052
 5344TIP3    H215976   2.131   1.844   0.128
 5345TIP3   OH215977   3.906   7.425   5.794
 5345TIP3    H115978   3.863   7.421   5.879
 5345TIP3    H215979   3.912   7.518   5.774
 5346TIP3   OH215980   4.910   6.735   4.567
 5346TIP3    H115981   4.847   6.799   4.532
 5346TIP3    H215982   4.979   6.789   4.606
 5347TIP3   OH215983   6.713   2.758   2.265
 5347TIP3    H115984   6.683   2.667   2.272
 5347TIP3    H215985   6.808   2.751   2.250
 5348TIP3   OH215986   6.719   5.949   0.127
 5348TIP3    H115987   6.779   5.884   0.163
 5348TIP3    H215988   6.648   5.954   0.191
 5349TIP3   OH215989   4.515   1.080   2.014
 5349TIP3    H115990   4.596   1.124   2.042
 5349TIP3    H215991   4.543   1.022   1.943
 5350TIP3   OH215992   7.703   4.539   1.878
 5350TIP3    H115993   7.788   4.569   1.911
 5350TIP3    H215994   7.723   4.496   1.795
 5351TIP3   OH215995   1.165   3.601   0.444
 5351TIP3    H115996   1.139   3.591   0.352
 5351TIP3    H215997   1.084   3.592   0.493
 5352TIP3   OH215998   4.928   6.079   4.015
 5352TIP3    H115999   5.015   6.040   4.020
 5352TIP3    H216000   4.876   6.016   3.966
 5353TIP3   OH216001   2.853   2.966   3.059
 5353TIP3    H116002   2.834   2.921   3.142
 5353TIP3    H216003   2.795   2.925   2.995
 5354TIP3   OH216004   5.306   7.272   4.313
 5354TIP3    H116005   5.282   7.363   4.295
 5354TIP3    H216006   5.246   7.244   4.382
 5355TIP3   OH216007   6.646   6.758   0.391
 5355TIP3    H116008   6.704   6.777   0.465
 5355TIP3    H216009   6.558   6.759   0.428
 5356TIP3   OH216010   3.956   2.396   6.661
 5356TIP3    H116011   4.019   2.344   6.713
 5356TIP3    H216012   3.987   2.388   6.571
 5357TIP3   OH216013   8.171   1.161   4.883
 5357TIP3    H116014   8.164   1.241   4.935
 5357TIP3    H216015   8.088   1.115   4.897
 5358TIP3   OH216016   2.155   4.078   1.507
 5358TIP3    H116017   2.097   4.004   1.525
 5358TIP3    H216018   2.112   4.152   1.551
 5359TIP3   OH216019   6.400   2.425   4.824
 5359TIP3    H116020   6.449   2.462   4.897
 5359TIP3    H216021   6.312   2.411   4.858
 5360TIP3   OH216022   7.874   7.140   3.654
 5360TIP3    H116023   7.848   7.219   3.701
 5360TIP3    H216024   7.853   7.158   3.562
 5361TIP3   OH216025   5.936   3.132   0.779
 5361TIP3    H116026   5.844   3.123   0.803
 5361TIP3    H216027   5.967   3.042   0.768
 5362TIP3   OH216028   0.373   6.786   1.398
 5362TIP3    H116029   0.308   6.856   1.409
 5362TIP3    H216030   0.323   6.706   1.409
 5363TIP3   OH216031   6.727   0.430   4.606
 5363TIP3    H116032   6.793   0.396   4.546
 5363TIP3    H216033   6.774   0.439   4.689
 5364TIP3   OH216034   6.893   0.807   5.655
 5364TIP3    H116035   6.864   0.717   5.637
 5364TIP3    H216036   6.830   0.862   5.610
 5365TIP3   OH216037   5.168   7.777   6.363
 5365TIP3    H116038   5.152   7.854   6.309
 5365TIP3    H216039   5.120   7.793   6.444
 5366TIP3   OH216040   2.876   1.960   6.725
 5366TIP3    H116041   2.944   1.999   6.779
 5366TIP3    H216042   2.888   1.999   6.638
 5367TIP3   OH216043   3.132   6.983   1.767
 5367TIP3    H116044   3.138   6.995   1.862
 5367TIP3    H216045   3.055   7.034   1.741
 5368TIP3   OH216046   1.761   1.034   4.253
 5368TIP3    H116047   1.790   0.977   4.325
 5368TIP3    H216048   1.699   0.980   4.204
 5369TIP3   OH216049   5.660   2.498   0.248
 5369TIP3    H116050   5.602   2.427   0.275
 5369TIP3    H216051   5.715   2.460   0.180
 5370TIP3   OH216052   3.483   1.821   1.403
 5370TIP3    H116053   3.420   1.843   1.472
 5370TIP3    H216054   3.435   1.761   1.346
 5371TIP3   OH216055   4.419   5.044   3.142
 5371TIP3    H116056   4.365   5.044   3.062
 5371TIP3    H216057   4.371   4.989   3.203
 5372TIP3   OH216058   4.315   1.194   5.725
 5372TIP3    H116059   4.240   1.139   5.703
 5372TIP3    H216060   4.282   1.283   5.718
 5373TIP3   OH216061   3.968   5.038   5.015
 5373TIP3    H116062   3.881   5.047   4.977
 5373TIP3    H216063   4.027   5.037   4.939
 5374TIP3   OH216064   2.084   3.327   1.299
 5374TIP3    H116065   2.087   3.308   1.205
 5374TIP3    H216066   2.173   3.313   1.330
 5375TIP3   OH216067   1.298   4.929   2.953
 5375TIP3    H116068   1.335   5.013   2.981
 5375TIP3    H216069   1.360   4.896   2.888
 5376TIP3   OH216070   3.605   4.002   4.210
 5376TIP3    H116071   3.673   4.068   4.195
 5376TIP3    H216072   3.641   3.947   4.280
 5377TIP3   OH216073   0.182   5.342   5.396
 5377TIP3    H116074   0.147   5.430   5.407
 5377TIP3    H216075   0.257   5.352   5.338
 5378TIP3   OH216076   4.784   3.575   2.496
 5378TIP3    H116077   4.708   3.597   2.442
 5378TIP3    H216078   4.815   3.659   2.529
 5379TIP3   OH216079   4.330   4.613   1.719
 5379TIP3    H116080   4.321   4.638   1.811
 5379TIP3    H216081   4.413   4.653   1.691
 5380TIP3   OH216082   6.110   4.524   5.722
 5380TIP3    H116083   6.053   4.504   5.648
 5380TIP3    H216084   6.175   4.585   5.685
 5381TIP3   OH216085   2.969   3.814   0.352
 5381TIP3    H116086   2.883   3.826   0.313
 5381TIP3    H216087   3.002   3.903   0.366
 5382TIP3   OH216088   6.773   5.755   1.125
 5382TIP3    H116089   6.717   5.790   1.055
 5382TIP3    H216090   6.758   5.814   1.199
 5383TIP3   OH216091   3.252   6.989   1.513
 5383TIP3    H116092   3.234   6.896   1.525
 5383TIP3    H216093   3.244   7.027   1.601
 5384TIP3   OH216094   3.563   0.656   1.729
 5384TIP3    H116095   3.474   0.689   1.744
 5384TIP3    H216096   3.593   0.629   1.816
 5385TIP3   OH216097   4.930   0.814   5.490
 5385TIP3    H116098   4.910   0.723   5.471
 5385TIP3    H216099   4.909   0.824   5.583
 5386TIP3   OH216100   2.489   2.846   3.388
 5386TIP3    H116101   2.575   2.888   3.383
 5386TIP3    H216102   2.450   2.861   3.302
 5387TIP3   OH216103   2.155   6.523   2.803
 5387TIP3    H116104   2.071   6.561   2.779
 5387TIP3    H216105   2.219   6.569   2.749
 5388TIP3   OH216106   0.119   2.529   5.194
 5388TIP3    H116107   0.184   2.525   5.264
 5388TIP3    H216108   0.049   2.470   5.222
 5389TIP3   OH216109   0.383   3.650   2.192
 5389TIP3    H116110   0.292   3.623   2.180
 5389TIP3    H216111   0.429   3.570   2.219
 5390TIP3   OH216112   6.942   1.281   6.105
 5390TIP3    H116113   6.926   1.277   6.200
 5390TIP3    H216114   6.918   1.370   6.081
 5391TIP3   OH216115   0.012   7.233   2.615
 5391TIP3    H116116   0.089   7.186   2.647
 5391TIP3    H216117  -0.062   7.174   2.632
 5392TIP3   OH216118   3.963   6.565   1.844
 5392TIP3    H116119   4.047   6.586   1.802
 5392TIP3    H216120   3.903   6.633   1.812
 5393TIP3   OH216121   1.745   7.123   1.643
 5393TIP3    H116122   1.736   7.040   1.689
 5393TIP3    H216123   1.656   7.144   1.612
 5394TIP3   OH216124   4.892   5.057   4.496
 5394TIP3    H116125   4.828   4.999   4.537
 5394TIP3    H216126   4.850   5.083   4.413
 5395TIP3   OH216127   1.645   4.824  -0.007
 5395TIP3    H116128   1.713   4.768   0.031
 5395TIP3    H216129   1.601   4.863   0.069
 5396TIP3   OH216130   1.772   5.544   4.045
 5396TIP3    H116131   1.772   5.625   4.097
 5396TIP3    H216132   1.726   5.480   4.099
 5397TIP3   OH216133   7.053   0.532   3.886
 5397TIP3    H116134   7.122   0.469   3.865
 5397TIP3    H216135   6.975   0.479   3.900
 5398TIP3   OH216136   2.886   1.868   5.436
 5398TIP3    H116137   2.971   1.841   5.399
 5398TIP3    H216138   2.862   1.797   5.495
 5399TIP3   OH216139   7.184   3.900   5.851
 5399TIP3    H116140   7.133   3.868   5.777
 5399TIP3    H216141   7.145   3.985   5.872
 5400TIP3   OH216142   5.063   6.936   3.314
 5400TIP3    H116143   5.091   6.883   3.239
 5400TIP3    H216144   5.133   6.925   3.378
 5401TIP3   OH216145   4.858   6.494   1.325
 5401TIP3    H116146   4.867   6.420   1.265
 5401TIP3    H216147   4.795   6.552   1.282
 5402TIP3   OH216148   2.169   6.289   4.198
 5402TIP3    H116149   2.198   6.238   4.273
 5402TIP3    H216150   2.074   6.291   4.205
 5403TIP3   OH216151   7.383   4.666   3.685
 5403TIP3    H116152   7.438   4.626   3.618
 5403TIP3    H216153   7.359   4.593   3.742
 5404TIP3   OH216154   5.965   3.915   4.470
 5404TIP3    H116155   5.980   4.007   4.452
 5404TIP3    H216156   6.041   3.870   4.433
 5405TIP3   OH216157   2.038   0.816   1.350
 5405TIP3    H116158   1.963   0.804   1.293
 5405TIP3    H216159   2.097   0.745   1.327
 5406TIP3   OH216160   3.154   4.737   1.467
 5406TIP3    H116161   3.159   4.829   1.443
 5406TIP3    H216162   3.089   4.700   1.407
 5407TIP3   OH216163   4.862   1.442   1.648
 5407TIP3    H116164   4.844   1.449   1.554
 5407TIP3    H216165   4.869   1.348   1.664
 5408TIP3   OH216166   1.807   7.266   0.353
 5408TIP3    H116167   1.872   7.258   0.424
 5408TIP3    H216168   1.858   7.295   0.278
 5409TIP3   OH216169   1.227   4.106   6.172
 5409TIP3    H116170   1.294   4.145   6.229
 5409TIP3    H216171   1.251   4.135   6.084
 5410TIP3   OH216172   4.219   5.225   2.691
 5410TIP3    H116173   4.213   5.141   2.646
 5410TIP3    H216174   4.241   5.202   2.782
 5411TIP3   OH216175   7.912   2.727   3.333
 5411TIP3    H116176   7.981   2.793   3.332
 5411TIP3    H216177   7.959   2.644   3.325
 5412TIP3   OH216178   5.750   7.650   0.687
 5412TIP3    H116179   5.739   7.570   0.738
 5412TIP3    H216180   5.769   7.620   0.598
 5413TIP3   OH216181   4.104   3.827   5.827
 5413TIP3    H116182   4.134   3.877   5.904
 5413TIP3    H216183   4.182   3.818   5.773
 5414TIP3   OH216184   5.686   4.891   5.120
 5414TIP3    H116185   5.709   4.921   5.032
 5414TIP3    H216186   5.591   4.899   5.124
 5415TIP3   OH216187   5.722   6.894   0.286
 5415TIP3    H116188   5.773   6.900   0.367
 5415TIP3    H216189   5.787   6.880   0.218
 5416TIP3   OH216190   4.978   7.463   0.521
 5416TIP3    H116191   4.965   7.482   0.428
 5416TIP3    H216192   5.051   7.518   0.546
 5417TIP3   OH216193   7.399   2.088   3.151
 5417TIP3    H116194   7.360   2.119   3.069
 5417TIP3    H216195   7.332   2.103   3.217
 5418TIP3   OH216196   2.877   7.554   0.458
 5418TIP3    H116197   2.892   7.632   0.511
 5418TIP3    H216198   2.880   7.482   0.520
 5419TIP3   OH216199   4.435   2.562   0.223
 5419TIP3    H116200   4.519   2.568   0.270
 5419TIP3    H216201   4.375   2.522   0.286
 5420TIP3   OH216202   0.161   3.204   0.361
 5420TIP3    H116203   0.240   3.159   0.329
 5420TIP3    H216204   0.095   3.187   0.293
 5421TIP3   OH216205   6.326   1.468   0.352
 5421TIP3    H116206   6.262   1.497   0.417
 5421TIP3    H216207   6.299   1.513   0.272
 5422TIP3   OH216208   6.497   1.043   2.181
 5422TIP3    H116209   6.414   1.079   2.151
 5422TIP3    H216210   6.476   0.953   2.206
 5423TIP3   OH216211   0.451   6.499   3.283
 5423TIP3    H116212   0.420   6.587   3.265
 5423TIP3    H216213   0.547   6.505   3.277
 5424TIP3   OH216214   1.865   7.701   6.433
 5424TIP3    H116215   1.870   7.737   6.522
 5424TIP3    H216216   1.800   7.755   6.389
 5425TIP3   OH216217   1.004   4.780   5.629
 5425TIP3    H116218   1.002   4.875   5.620
 5425TIP3    H216219   0.926   4.750   5.582
 5426TIP3   OH216220   6.586   0.885   0.600
 5426TIP3    H116221   6.613   0.872   0.509
 5426TIP3    H216222   6.576   0.979   0.609
 5427TIP3   OH216223   5.842   4.965   0.375
 5427TIP3    H116224   5.819   4.932   0.462
 5427TIP3    H216225   5.799   4.905   0.314
 5428TIP3   OH216226   6.019   4.282   1.526
 5428TIP3    H116227   5.934   4.271   1.568
 5428TIP3    H216228   6.030   4.203   1.474
 5429TIP3   OH216229   0.166   3.172   6.816
 5429TIP3    H116230   0.240   3.229   6.836
 5429TIP3    H216231   0.118   3.218   6.746
 5430TIP3   OH216232   2.930   7.267   6.773
 5430TIP3    H116233   2.871   7.250   6.846
 5430TIP3    H216234   2.891   7.220   6.699
 5431TIP3   OH216235   2.437   5.671   4.931
 5431TIP3    H116236   2.522   5.629   4.946
 5431TIP3    H216237   2.377   5.597   4.916
 5432TIP3   OH216238   7.179   6.219   0.366
 5432TIP3    H116239   7.230   6.296   0.393
 5432TIP3    H216240   7.245   6.159   0.332
 5433TIP3   OH216241   4.081   2.019   1.886
 5433TIP3    H116242   4.086   1.945   1.826
 5433TIP3    H216243   4.162   2.013   1.937
 5434TIP3   OH216244   4.158   6.508   4.852
 5434TIP3    H116245   4.215   6.487   4.778
 5434TIP3    H216246   4.070   6.489   4.821
 5435TIP3   OH216247   5.065   1.933   0.383
 5435TIP3    H116248   5.055   1.908   0.475
 5435TIP3    H216249   5.076   1.850   0.336
 5436TIP3   OH216250   2.881   2.342   3.540
 5436TIP3    H116251   2.832   2.282   3.596
 5436TIP3    H216252   2.961   2.295   3.519
 5437TIP3   OH216253   5.819   0.381   4.244
 5437TIP3    H116254   5.844   0.374   4.337
 5437TIP3    H216255   5.854   0.302   4.204
 5438TIP3   OH216256   2.919   1.913   2.026
 5438TIP3    H116257   2.828   1.922   2.000
 5438TIP3    H216258   2.936   1.819   2.023
 5439TIP3   OH216259   4.637   7.654   6.447
 5439TIP3    H116260   4.677   7.568   6.453
 5439TIP3    H216261   4.646   7.692   6.534
 5440TIP3   OH216262   0.477   6.673   4.453
 5440TIP3    H116263   0.555   6.693   4.402
 5440TIP3    H216264   0.495   6.709   4.540
 5441TIP3   OH216265   3.171   1.684   0.129
 5441TIP3    H116266   3.137   1.760   0.081
 5441TIP3    H216267   3.130   1.690   0.215
 5442TIP3   OH216268   3.970   1.215   5.307
 5442TIP3    H116269   3.940   1.295   5.264
 5442TIP3    H216270   4.055   1.237   5.343
 5443TIP3   OH216271   3.720   4.512   2.892
 5443TIP3    H116272   3.668   4.584   2.856
 5443TIP3    H216273   3.655   4.446   2.917
 5444TIP3   OH216274   0.389   4.737   0.017
 5444TIP3    H116275   0.475   4.736   0.060
 5444TIP3    H216276   0.369   4.645   0.000
 5445TIP3   OH216277   7.586   6.345   4.238
 5445TIP3    H116278   7.581   6.422   4.180
 5445TIP3    H216279   7.560   6.378   4.323
 5446TIP3   OH216280   7.046   3.386   0.384
 5446TIP3    H116281   7.008   3.473   0.374
 5446TIP3    H216282   7.008   3.335   0.313
 5447TIP3   OH216283   3.657   3.169   2.232
 5447TIP3    H116284   3.575   3.178   2.184
 5447TIP3    H216285   3.724   3.200   2.171
 5448TIP3   OH216286   0.578   2.534   0.652
 5448TIP3    H116287   0.528   2.571   0.725
 5448TIP3    H216288   0.645   2.481   0.693
 5449TIP3   OH216289   3.705   1.991   1.788
 5449TIP3    H116290   3.738   1.947   1.866
 5449TIP3    H216291   3.770   1.971   1.720
 5450TIP3   OH216292   1.205   2.981   0.330
 5450TIP3    H116293   1.154   2.911   0.372
 5450TIP3    H216294   1.154   3.060   0.344
 5451TIP3   OH216295   2.376   1.002   2.912
 5451TIP3    H116296   2.427   0.945   2.855
 5451TIP3    H216297   2.437   1.027   2.981
 5452TIP3   OH216298   8.281   0.948   1.374
 5452TIP3    H116299   8.294   0.936   1.468
 5452TIP3    H216300   8.187   0.964   1.364
 5453TIP3   OH216301   6.090   1.321   3.248
 5453TIP3    H116302   6.155   1.390   3.257
 5453TIP3    H216303   6.141   1.240   3.249
 5454TIP3   OH216304   3.053   6.645   3.241
 5454TIP3    H116305   3.095   6.596   3.311
 5454TIP3    H216306   2.972   6.598   3.224
 5455TIP3   OH216307   8.246   4.922   6.321
 5455TIP3    H116308   8.294   4.997   6.358
 5455TIP3    H216309   8.213   4.955   6.238
 5456TIP3   OH216310   0.965   6.691   2.522
 5456TIP3    H116311   1.045   6.638   2.517
 5456TIP3    H216312   0.899   6.640   2.475
 5457TIP3   OH216313   7.898   1.819   3.188
 5457TIP3    H116314   7.806   1.814   3.214
 5457TIP3    H216315   7.931   1.729   3.198
 5458TIP3   OH216316   3.912   5.131   6.588
 5458TIP3    H116317   3.954   5.112   6.504
 5458TIP3    H216318   3.901   5.226   6.588
 5459TIP3   OH216319   1.465   7.510   5.308
 5459TIP3    H116320   1.461   7.428   5.260
 5459TIP3    H216321   1.557   7.535   5.306
 5460TIP3   OH216322   4.362   0.510   5.809
 5460TIP3    H116323   4.434   0.531   5.749
 5460TIP3    H216324   4.404   0.503   5.895
 5461TIP3   OH216325   2.442   4.347   5.065
 5461TIP3    H116326   2.404   4.421   5.017
 5461TIP3    H216327   2.446   4.276   5.001
 5462TIP3   OH216328   0.460   4.777   5.709
 5462TIP3    H116329   0.443   4.871   5.702
 5462TIP3    H216330   0.448   4.743   5.621
 5463TIP3   OH216331   3.873   4.646   3.973
 5463TIP3    H116332   3.872   4.643   4.069
 5463TIP3    H216333   3.965   4.654   3.950
 5464TIP3   OH216334   4.896   5.747   5.615
 5464TIP3    H116335   4.882   5.701   5.698
 5464TIP3    H216336   4.906   5.677   5.551
 5465TIP3   OH216337   0.651   4.760   0.110
 5465TIP3    H116338   0.613   4.803   0.187
 5465TIP3    H216339   0.745   4.767   0.122
 5466TIP3   OH216340   1.724   7.652   5.186
 5466TIP3    H116341   1.638   7.665   5.147
 5466TIP3    H216342   1.784   7.654   5.111
 5467TIP3   OH216343   1.849   3.123   1.917
 5467TIP3    H116344   1.821   3.094   1.830
 5467TIP3    H216345   1.896   3.048   1.953
 5468TIP3   OH216346   5.237   6.020   5.932
 5468TIP3    H116347   5.329   6.014   5.907
 5468TIP3    H216348   5.212   5.929   5.952
 5469TIP3   OH216349   7.586   6.745   0.642
 5469TIP3    H116350   7.526   6.812   0.674
 5469TIP3    H216351   7.546   6.714   0.561
 5470TIP3   OH216352   0.621   7.220   1.060
 5470TIP3    H116353   0.647   7.272   1.137
 5470TIP3    H216354   0.527   7.208   1.070
 5471TIP3   OH216355   3.039   5.491   0.533
 5471TIP3    H116356   3.072   5.425   0.594
 5471TIP3    H216357   3.045   5.574   0.581
 5472TIP3   OH216358   0.903   4.049   2.466
 5472TIP3    H116359   0.823   4.065   2.416
 5472TIP3    H216360   0.955   3.992   2.409
 5473TIP3   OH216361   7.176   7.795   3.007
 5473TIP3    H116362   7.188   7.846   2.927
 5473TIP3    H216363   7.137   7.712   2.977
 5474TIP3   OH216364   4.360   0.135   2.050
 5474TIP3    H116365   4.448   0.156   2.021
 5474TIP3    H216366   4.305   0.205   2.015
 5475TIP3   OH216367   5.202   2.594   0.500
 5475TIP3    H116368   5.285   2.563   0.536
 5475TIP3    H216369   5.217   2.686   0.481
 5476TIP3   OH216370   0.122   0.293   3.714
 5476TIP3    H116371   0.150   0.208   3.682
 5476TIP3    H216372   0.028   0.296   3.695
 5477TIP3   OH216373   6.636   7.264   3.220
 5477TIP3    H116374   6.565   7.270   3.284
 5477TIP3    H216375   6.674   7.177   3.235
 5478TIP3   OH216376   0.776   2.597   3.521
 5478TIP3    H116377   0.710   2.529   3.530
 5478TIP3    H216378   0.738   2.659   3.460
 5479TIP3   OH216379   6.355   7.294   6.042
 5479TIP3    H116380   6.302   7.229   6.088
 5479TIP3    H216381   6.442   7.285   6.080
 5480TIP3   OH216382   0.790   0.679   3.678
 5480TIP3    H116383   0.803   0.663   3.771
 5480TIP3    H216384   0.769   0.592   3.641
 5481TIP3   OH216385   7.055   5.947   3.420
 5481TIP3    H116386   7.061   5.881   3.352
 5481TIP3    H216387   7.133   6.001   3.409
 5482TIP3   OH216388   1.809   1.754   1.114
 5482TIP3    H116389   1.760   1.689   1.063
 5482TIP3    H216390   1.837   1.706   1.192
 5483TIP3   OH216391   1.051   4.422   6.077
 5483TIP3    H116392   0.966   4.437   6.036
 5483TIP3    H216393   1.112   4.472   6.022
 5484TIP3   OH216394   4.282   5.535   3.022
 5484TIP3    H116395   4.355   5.478   3.045
 5484TIP3    H216396   4.268   5.520   2.929
 5485TIP3   OH216397   2.562   1.893   6.433
 5485TIP3    H116398   2.502   1.947   6.483
 5485TIP3    H216399   2.613   1.955   6.380
 5486TIP3   OH216400   4.674   5.099   3.309
 5486TIP3    H116401   4.579   5.091   3.304
 5486TIP3    H216402   4.706   5.047   3.235
 5487TIP3   OH216403   1.181   1.229   6.149
 5487TIP3    H116404   1.261   1.251   6.196
 5487TIP3    H216405   1.120   1.299   6.172
 5488TIP3   OH216406   4.759   1.651   5.622
 5488TIP3    H116407   4.787   1.655   5.530
 5488TIP3    H216408   4.721   1.737   5.639
 5489TIP3   OH216409   0.689   4.375   4.605
 5489TIP3    H116410   0.658   4.425   4.681
 5489TIP3    H216411   0.611   4.361   4.552
 5490TIP3   OH216412   6.119   4.315   4.136
 5490TIP3    H116413   6.188   4.349   4.079
 5490TIP3    H216414   6.082   4.241   4.087
 5491TIP3   OH216415   0.150   6.288   5.192
 5491TIP3    H116416   0.067   6.325   5.161
 5491TIP3    H216417   0.189   6.249   5.114
 5492TIP3   OH216418   1.712   0.567   3.560
 5492TIP3    H116419   1.644   0.511   3.598
 5492TIP3    H216420   1.793   0.516   3.568
 5493TIP3   OH216421   3.525   5.372   1.622
 5493TIP3    H116422   3.510   5.318   1.700
 5493TIP3    H216423   3.569   5.450   1.655
 5494TIP3   OH216424   0.910   1.354   1.693
 5494TIP3    H116425   0.841   1.333   1.630
 5494TIP3    H216426   0.986   1.304   1.663
 5495TIP3   OH216427   5.727   6.365   4.551
 5495TIP3    H116428   5.705   6.326   4.636
 5495TIP3    H216429   5.709   6.295   4.487
 5496TIP3   OH216430   0.333   3.083   6.527
 5496TIP3    H116431   0.307   3.155   6.584
 5496TIP3    H216432   0.395   3.122   6.465
 5497TIP3   OH216433   3.021   3.245   1.199
 5497TIP3    H116434   2.949   3.285   1.151
 5497TIP3    H216435   3.042   3.166   1.149
 5498TIP3   OH216436   0.150   6.078   6.753
 5498TIP3    H116437   0.238   6.065   6.788
 5498TIP3    H216438   0.141   6.173   6.742
 5499TIP3   OH216439   7.869   3.857   6.049
 5499TIP3    H116440   7.858   3.847   5.954
 5499TIP3    H216441   7.803   3.921   6.075
 5500TIP3   OH216442   5.831   7.730   5.660
 5500TIP3    H116443   5.791   7.682   5.733
 5500TIP3    H216444   5.761   7.735   5.594
 5501TIP3   OH216445   6.926   3.644   0.401
 5501TIP3    H116446   6.859   3.659   0.468
 5501TIP3    H216447   6.965   3.730   0.386
 5502TIP3   OH216448   7.679   0.554   3.566
 5502TIP3    H116449   7.627   0.474   3.561
 5502TIP3    H216450   7.634   0.609   3.630
 5503TIP3   OH216451   2.629   1.702   4.765
 5503TIP3    H116452   2.648   1.785   4.722
 5503TIP3    H216453   2.714   1.660   4.776
 5504TIP3   OH216454   1.272   1.773   1.402
 5504TIP3    H116455   1.261   1.868   1.396
 5504TIP3    H216456   1.321   1.751   1.323
 5505TIP3   OH216457   5.910   0.394   0.171
 5505TIP3    H116458   5.973   0.335   0.212
 5505TIP3    H216459   5.946   0.482   0.186
 5506TIP3   OH216460   5.235   1.840   1.604
 5506TIP3    H116461   5.173   1.768   1.607
 5506TIP3    H216462   5.213   1.894   1.680
 5507TIP3   OH216463   5.094   5.880   4.188
 5507TIP3    H116464   5.188   5.878   4.167
 5507TIP3    H216465   5.091   5.891   4.283
 5508TIP3   OH216466   3.109   5.876   2.030
 5508TIP3    H116467   3.143   5.809   1.972
 5508TIP3    H216468   3.085   5.949   1.972
 5509TIP3   OH216469   8.022   2.906   6.331
 5509TIP3    H116470   8.101   2.942   6.370
 5509TIP3    H216471   7.951   2.962   6.363
 5510TIP3   OH216472   7.053   1.677   0.896
 5510TIP3    H116473   6.990   1.650   0.829
 5510TIP3    H216474   7.138   1.649   0.860
 5511TIP3   OH216475   0.875   4.690   6.010
 5511TIP3    H116476   0.892   4.647   6.094
 5511TIP3    H216477   0.826   4.624   5.960
 5512TIP3   OH216478   6.817   7.795   2.816
 5512TIP3    H116479   6.782   7.826   2.732
 5512TIP3    H216480   6.797   7.865   2.878
 5513TIP3   OH216481   2.515   4.844   6.180
 5513TIP3    H116482   2.565   4.765   6.161
 5513TIP3    H216483   2.566   4.890   6.246
 5514TIP3   OH216484   7.128   6.668   5.524
 5514TIP3    H116485   7.064   6.651   5.593
 5514TIP3    H216486   7.082   6.725   5.462
 5515TIP3   OH216487   5.343   6.794   4.419
 5515TIP3    H116488   5.336   6.747   4.336
 5515TIP3    H216489   5.394   6.872   4.397
 5516TIP3   OH216490   7.791   1.949   0.159
 5516TIP3    H116491   7.812   2.042   0.166
 5516TIP3    H216492   7.806   1.928   0.067
 5517TIP3   OH216493   2.426   5.025   2.752
 5517TIP3    H116494   2.497   4.962   2.744
 5517TIP3    H216495   2.468   5.105   2.783
 5518TIP3   OH216496   0.883   5.805   5.164
 5518TIP3    H116497   0.925   5.735   5.114
 5518TIP3    H216498   0.930   5.884   5.140
 5519TIP3   OH216499   0.542   6.473   0.030
 5519TIP3    H116500   0.516   6.389   0.067
 5519TIP3    H216501   0.460   6.512   0.000
 5520TIP3   OH216502   2.752   2.819   3.907
 5520TIP3    H116503   2.753   2.805   3.812
 5520TIP3    H216504   2.729   2.911   3.918
 5521TIP3   OH216505   6.266   7.330   4.304
 5521TIP3    H116506   6.208   7.254   4.292
 5521TIP3    H216507   6.207   7.405   4.304
 5522TIP3   OH216508   5.655   5.760   0.226
 5522TIP3    H116509   5.560   5.769   0.226
 5522TIP3    H216510   5.686   5.843   0.189
 5523TIP3   OH216511   5.104   3.108   1.595
 5523TIP3    H116512   5.180   3.051   1.596
 5523TIP3    H216513   5.136   3.190   1.558
 5524TIP3   OH216514   2.740   1.554   5.310
 5524TIP3    H116515   2.813   1.499   5.283
 5524TIP3    H216516   2.762   1.580   5.400
 5525TIP3   OH216517   8.073   6.057   2.787
 5525TIP3    H116518   8.027   6.020   2.862
 5525TIP3    H216519   8.160   6.080   2.820
 5526TIP3   OH216520   4.089   2.248   3.854
 5526TIP3    H116521   3.997   2.246   3.831
 5526TIP3    H216522   4.125   2.167   3.818
 5527TIP3   OH216523   3.772   5.210   5.837
 5527TIP3    H116524   3.731   5.132   5.799
 5527TIP3    H216525   3.755   5.203   5.931
 5528TIP3   OH216526   4.479   2.032   6.444
 5528TIP3    H116527   4.422   1.990   6.508
 5528TIP3    H216528   4.444   2.005   6.359
 5529TIP3   OH216529   0.756   7.067   6.252
 5529TIP3    H116530   0.807   6.991   6.280
 5529TIP3    H216531   0.696   7.082   6.325
 5530TIP3   OH216532   2.029   1.382   0.506
 5530TIP3    H116533   2.067   1.433   0.435
 5530TIP3    H216534   1.960   1.331   0.464
 5531TIP3   OH216535   0.997   5.970   5.868
 5531TIP3    H116536   0.954   5.886   5.884
 5531TIP3    H216537   1.085   5.947   5.839
 5532TIP3   OH216538   0.075   3.410   4.465
 5532TIP3    H116539   0.041   3.371   4.545
 5532TIP3    H216540   0.054   3.346   4.397
 5533TIP3   OH216541   0.049   5.429   6.787
 5533TIP3    H116542   0.048   5.524   6.799
 5533TIP3    H216543   0.080   5.395   6.871
 5534TIP3   OH216544   7.770   1.198   0.991
 5534TIP3    H116545   7.680   1.229   0.979
 5534TIP3    H216546   7.824   1.276   0.981
 5535TIP3   OH216547   7.180   6.996   0.115
 5535TIP3    H116548   7.086   6.990   0.133
 5535TIP3    H216549   7.185   7.008   0.020
 5536TIP3   OH216550   5.735   4.552   0.487
 5536TIP3    H116551   5.768   4.484   0.428
 5536TIP3    H216552   5.639   4.543   0.482
 5537TIP3   OH216553   7.086   2.970   2.144
 5537TIP3    H116554   7.146   2.932   2.080
 5537TIP3    H216555   7.066   2.898   2.204
 5538TIP3   OH216556   2.745   3.325   5.487
 5538TIP3    H116557   2.791   3.363   5.562
 5538TIP3    H216558   2.685   3.394   5.459
 5539TIP3   OH216559   7.886   3.467   3.012
 5539TIP3    H116560   7.848   3.398   3.067
 5539TIP3    H216561   7.927   3.420   2.940
 5540TIP3   OH216562   8.079   5.269   0.518
 5540TIP3    H116563   8.053   5.220   0.596
 5540TIP3    H216564   8.146   5.215   0.476
 5541TIP3   OH216565   4.108   5.069   5.703
 5541TIP3    H116566   4.044   5.054   5.634
 5541TIP3    H216567   4.088   5.156   5.736
 5542TIP3   OH216568   2.640   2.482   1.806
 5542TIP3    H116569   2.649   2.407   1.748
 5542TIP3    H216570   2.695   2.550   1.766
 5543TIP3   OH216571   5.573   0.276   5.103
 5543TIP3    H116572   5.668   0.279   5.115
 5543TIP3    H216573   5.552   0.356   5.055
 5544TIP3   OH216574   6.598   3.918   0.885
 5544TIP3    H116575   6.522   3.861   0.889
 5544TIP3    H216576   6.563   4.006   0.873
 5545TIP3   OH216577   8.194   3.455   1.809
 5545TIP3    H116578   8.242   3.423   1.733
 5545TIP3    H216579   8.147   3.532   1.777
 5546TIP3   OH216580   5.815   3.118   3.005
 5546TIP3    H116581   5.793   3.052   3.071
 5546TIP3    H216582   5.910   3.122   3.005
 5547TIP3   OH216583   7.472   4.051   3.733
 5547TIP3    H116584   7.549   3.994   3.728
 5547TIP3    H216585   7.414   4.019   3.663
 5548TIP3   OH216586   5.806   1.386   2.049
 5548TIP3    H116587   5.898   1.359   2.060
 5548TIP3    H216588   5.801   1.417   1.958
 5549TIP3   OH216589   7.879   1.319   2.187
 5549TIP3    H116590   7.840   1.312   2.274
 5549TIP3    H216591   7.809   1.292   2.127
 5550TIP3   OH216592   1.449   3.633   6.734
 5550TIP3    H116593   1.379   3.687   6.697
 5550TIP3    H216594   1.516   3.695   6.761
 5551TIP3   OH216595   1.308   6.368   6.739
 5551TIP3    H116596   1.338   6.423   6.667
 5551TIP3    H216597   1.370   6.296   6.742
 5552TIP3   OH216598   1.679   1.856   5.980
 5552TIP3    H116599   1.614   1.788   5.966
 5552TIP3    H216600   1.642   1.911   6.049
 5553TIP3   OH216601   6.361   7.091   4.708
 5553TIP3    H116602   6.435   7.123   4.657
 5553TIP3    H216603   6.301   7.166   4.711
 5554TIP3   OH216604   0.955   7.801   4.529
 5554TIP3    H116605   1.046   7.827   4.541
 5554TIP3    H216606   0.952   7.762   4.442
 5555TIP3   OH216607   5.947   4.611   5.187
 5555TIP3    H116608   5.884   4.541   5.172
 5555TIP3    H216609   5.899   4.676   5.238
 5556TIP3   OH216610   5.931   2.504   0.332
 5556TIP3    H116611   5.984   2.532   0.257
 5556TIP3    H216612   5.841   2.519   0.304
 5557TIP3   OH216613   7.325   0.193   3.195
 5557TIP3    H116614   7.323   0.113   3.249
 5557TIP3    H216615   7.233   0.218   3.187
 5558TIP3   OH216616   0.209   6.633   4.391
 5558TIP3    H116617   0.293   6.663   4.425
 5558TIP3    H216618   0.163   6.599   4.467
 5559TIP3   OH216619   7.101   1.239   3.725
 5559TIP3    H116620   7.157   1.230   3.803
 5559TIP3    H216621   7.134   1.318   3.682
 5560TIP3   OH216622   6.697   6.094   4.254
 5560TIP3    H116623   6.654   6.178   4.241
 5560TIP3    H216624   6.785   6.116   4.284
 5561TIP3   OH216625   6.232   2.318   3.396
 5561TIP3    H116626   6.191   2.278   3.473
 5561TIP3    H216627   6.223   2.412   3.410
 5562TIP3   OH216628   3.157   7.438   3.751
 5562TIP3    H116629   3.090   7.405   3.811
 5562TIP3    H216630   3.230   7.378   3.760
 5563TIP3   OH216631   5.539   7.177   0.152
 5563TIP3    H116632   5.515   7.085   0.168
 5563TIP3    H216633   5.461   7.227   0.175
 5564TIP3   OH216634   3.982   5.629   1.791
 5564TIP3    H116635   3.979   5.553   1.732
 5564TIP3    H216636   4.047   5.606   1.856
 5565TIP3   OH216637   3.147   5.264   6.707
 5565TIP3    H116638   3.116   5.198   6.644
 5565TIP3    H216639   3.078   5.330   6.708
 5566TIP3   OH216640   1.609   4.253   3.022
 5566TIP3    H116641   1.527   4.205   3.031
 5566TIP3    H216642   1.609   4.315   3.095
 5567TIP3   OH216643   5.750   0.854   3.078
 5567TIP3    H116644   5.778   0.943   3.098
 5567TIP3    H216645   5.663   0.847   3.116
 5568TIP3   OH216646   5.025   1.482   2.561
 5568TIP3    H116647   4.937   1.502   2.530
 5568TIP3    H216648   5.079   1.555   2.530
 5569TIP3   OH216649   2.419   3.654   3.628
 5569TIP3    H116650   2.488   3.600   3.666
 5569TIP3    H216651   2.354   3.592   3.598
 5570TIP3   OH216652   0.252   5.256   5.919
 5570TIP3    H116653   0.340   5.288   5.941
 5570TIP3    H216654   0.232   5.193   5.987
 5571TIP3   OH216655   2.742   6.083   4.324
 5571TIP3    H116656   2.716   6.130   4.403
 5571TIP3    H216657   2.661   6.042   4.293
 5572TIP3   OH216658   7.047   1.624   4.130
 5572TIP3    H116659   6.972   1.663   4.174
 5572TIP3    H216660   7.041   1.531   4.150
 5573TIP3   OH216661   2.011   1.972   0.111
 5573TIP3    H116662   1.984   1.992   0.021
 5573TIP3    H216663   1.996   2.054   0.159
 5574TIP3   OH216664   2.721   7.554   2.972
 5574TIP3    H116665   2.684   7.490   3.032
 5574TIP3    H216666   2.811   7.525   2.958
 5575TIP3   OH216667   4.720   7.352   6.125
 5575TIP3    H116668   4.794   7.309   6.168
 5575TIP3    H216669   4.735   7.446   6.140
 5576TIP3   OH216670   5.251   6.324   0.296
 5576TIP3    H116671   5.222   6.275   0.219
 5576TIP3    H216672   5.172   6.334   0.349
 5577TIP3   OH216673   3.398   4.360   2.170
 5577TIP3    H116674   3.455   4.283   2.178
 5577TIP3    H216675   3.349   4.345   2.089
 5578TIP3   OH216676   3.750   3.095   1.479
 5578TIP3    H116677   3.732   3.188   1.494
 5578TIP3    H216678   3.804   3.069   1.553
 5579TIP3   OH216679   2.104   5.836   1.038
 5579TIP3    H116680   2.092   5.878   1.123
 5579TIP3    H216681   2.098   5.742   1.056
 5580TIP3   OH216682   0.417   1.823   2.191
 5580TIP3    H116683   0.326   1.847   2.172
 5580TIP3    H216684   0.417   1.727   2.188
 5581TIP3   OH216685   6.906   3.173   4.316
 5581TIP3    H116686   6.920   3.244   4.378
 5581TIP3    H216687   6.982   3.116   4.327
 5582TIP3   OH216688   7.571   1.979   1.807
 5582TIP3    H116689   7.561   2.018   1.720
 5582TIP3    H216690   7.501   1.915   1.812
 5583TIP3   OH216691   0.221   6.019   3.487
 5583TIP3    H116692   0.146   5.984   3.535
 5583TIP3    H216693   0.218   6.114   3.503
 5584TIP3   OH216694   1.870   0.116   4.601
 5584TIP3    H116695   1.807   0.045   4.608
 5584TIP3    H216696   1.825   0.183   4.549
 5585TIP3   OH216697   0.130   5.434   4.696
 5585TIP3    H116698   0.190   5.381   4.748
 5585TIP3    H216699   0.162   5.426   4.606
 5586TIP3   OH216700   7.696   5.197   5.464
 5586TIP3    H116701   7.703   5.113   5.419
 5586TIP3    H216702   7.605   5.224   5.451
 5587TIP3   OH216703   5.091   3.955   4.359
 5587TIP3    H116704   5.070   4.018   4.428
 5587TIP3    H216705   5.171   3.988   4.319
 5588TIP3   OH216706   4.045   3.131   3.681
 5588TIP3    H116707   4.063   3.154   3.772
 5588TIP3    H216708   3.954   3.101   3.681
 5589TIP3   OH216709   3.172   1.725   2.707
 5589TIP3    H116710   3.153   1.674   2.786
 5589TIP3    H216711   3.090   1.771   2.688
 5590TIP3   OH216712   5.304   2.175   1.211
 5590TIP3    H116713   5.237   2.188   1.144
 5590TIP3    H216714   5.298   2.252   1.267
 5591TIP3   OH216715   8.084   1.524   1.209
 5591TIP3    H116716   8.010   1.497   1.154
 5591TIP3    H216717   8.110   1.445   1.255
 5592TIP3   OH216718   0.337   7.888   2.182
 5592TIP3    H116719   0.318   7.795   2.169
 5592TIP3    H216720   0.404   7.889   2.251
 5593TIP3   OH216721   0.058   0.204   5.092
 5593TIP3    H116722  -0.006   0.266   5.126
 5593TIP3    H216723   0.135   0.258   5.071
 5594TIP3   OH216724   3.845   4.871   5.683
 5594TIP3    H116725   3.899   4.820   5.743
 5594TIP3    H216726   3.775   4.907   5.738
 5595TIP3   OH216727   0.100   2.739   3.342
 5595TIP3    H116728   0.148   2.814   3.376
 5595TIP3    H216729   0.113   2.670   3.407
 5596TIP3   OH216730   6.694   6.841   4.887
 5596TIP3    H116731   6.744   6.783   4.945
 5596TIP3    H216732   6.606   6.842   4.924
 5597TIP3   OH216733   2.906   7.573   2.219
 5597TIP3    H116734   2.957   7.612   2.149
 5597TIP3    H216735   2.815   7.581   2.190
 5598TIP3   OH216736   1.447   3.601   2.461
 5598TIP3    H116737   1.505   3.625   2.388
 5598TIP3    H216738   1.472   3.511   2.482
 5599TIP3   OH216739   7.326   1.153   0.754
 5599TIP3    H116740   7.255   1.217   0.747
 5599TIP3    H216741   7.310   1.091   0.683
 5600TIP3   OH216742   3.620   1.113   4.760
 5600TIP3    H116743   3.598   1.190   4.813
 5600TIP3    H216744   3.713   1.122   4.743
 5601TIP3   OH216745   1.876   4.235   0.672
 5601TIP3    H116746   1.832   4.319   0.661
 5601TIP3    H216747   1.809   4.170   0.651
 5602TIP3   OH216748   7.582   2.969   4.163
 5602TIP3    H116749   7.518   2.975   4.093
 5602TIP3    H216750   7.635   3.048   4.155
 5603TIP3   OH216751   2.617   7.396   6.113
 5603TIP3    H116752   2.678   7.344   6.165
 5603TIP3    H216753   2.551   7.334   6.083
 5604TIP3   OH216754   5.649   6.870   1.425
 5604TIP3    H116755   5.570   6.917   1.399
 5604TIP3    H216756   5.631   6.840   1.514
 5605TIP3   OH216757   2.852   4.629   4.459
 5605TIP3    H116758   2.831   4.711   4.505
 5605TIP3    H216759   2.874   4.567   4.529
 5606TIP3   OH216760   8.088   2.185   5.919
 5606TIP3    H116761   8.091   2.238   5.998
 5606TIP3    H216762   8.142   2.234   5.856
 5607TIP3   OH216763   2.835   5.632   2.555
 5607TIP3    H116764   2.796   5.707   2.600
 5607TIP3    H216765   2.879   5.583   2.625
 5608TIP3   OH216766   1.171   5.379   6.017
 5608TIP3    H116767   1.250   5.384   5.963
 5608TIP3    H216768   1.109   5.329   5.965
 5609TIP3   OH216769   8.155   5.118   3.485
 5609TIP3    H116770   8.133   5.191   3.543
 5609TIP3    H216771   8.079   5.108   3.429
 5610TIP3   OH216772   4.210   4.182   4.461
 5610TIP3    H116773   4.245   4.219   4.380
 5610TIP3    H216774   4.153   4.110   4.432
 5611TIP3   OH216775   1.181   0.222   1.112
 5611TIP3    H116776   1.170   0.265   1.197
 5611TIP3    H216777   1.155   0.288   1.048
 5612TIP3   OH216778   7.816   5.318   2.343
 5612TIP3    H116779   7.821   5.314   2.438
 5612TIP3    H216780   7.872   5.393   2.319
 5613TIP3   OH216781   5.326   0.038   6.010
 5613TIP3    H116782   5.291   0.122   5.981
 5613TIP3    H216783   5.412   0.033   5.968
 5614TIP3   OH216784   6.795   1.168   5.438
 5614TIP3    H116785   6.731   1.181   5.369
 5614TIP3    H216786   6.813   1.256   5.472
 5615TIP3   OH216787   5.677   2.686   3.071
 5615TIP3    H116788   5.655   2.723   2.985
 5615TIP3    H216789   5.712   2.760   3.120
 5616TIP3   OH216790   0.050   5.355   3.198
 5616TIP3    H116791   0.023   5.275   3.153
 5616TIP3    H216792   0.135   5.377   3.159
 5617TIP3   OH216793   6.491   1.670   6.102
 5617TIP3    H116794   6.520   1.599   6.045
 5617TIP3    H216795   6.399   1.651   6.120
 5618TIP3   OH216796   4.875   5.073   5.027
 5618TIP3    H116797   4.937   5.013   4.984
 5618TIP3    H216798   4.918   5.097   5.109
 5619TIP3   OH216799   0.402   7.169   4.863
 5619TIP3    H116800   0.429   7.253   4.900
 5619TIP3    H216801   0.310   7.160   4.890
 5620TIP3   OH216802   5.124   0.694   1.665
 5620TIP3    H116803   5.080   0.612   1.689
 5620TIP3    H216804   5.130   0.743   1.746
 5621TIP3   OH216805   2.637   1.992   1.990
 5621TIP3    H116806   2.663   1.900   1.996
 5621TIP3    H216807   2.546   1.993   2.017
 5622TIP3   OH216808   0.916   6.207   4.758
 5622TIP3    H116809   0.968   6.245   4.686
 5622TIP3    H216810   0.826   6.209   4.726
 5623TIP3   OH216811   6.440   4.155   3.199
 5623TIP3    H116812   6.372   4.093   3.175
 5623TIP3    H216813   6.513   4.100   3.230
 5624TIP3   OH216814   5.931   6.244   3.948
 5624TIP3    H116815   6.020   6.258   3.981
 5624TIP3    H216816   5.902   6.330   3.919
 5625TIP3   OH216817   2.875   7.099   1.739
 5625TIP3    H116818   2.807   7.075   1.801
 5625TIP3    H216819   2.895   7.191   1.759
 5626TIP3   OH216820   6.019   7.226   3.195
 5626TIP3    H116821   6.101   7.179   3.181
 5626TIP3    H216822   5.980   7.232   3.107
 5627TIP3   OH216823   7.336   5.542   2.674
 5627TIP3    H116824   7.362   5.458   2.637
 5627TIP3    H216825   7.416   5.594   2.676
 5628TIP3   OH216826   1.561   1.242   1.880
 5628TIP3    H116827   1.543   1.149   1.869
 5628TIP3    H216828   1.502   1.285   1.818
 5629TIP3   OH216829   5.457   2.827   1.187
 5629TIP3    H116830   5.510   2.749   1.173
 5629TIP3    H216831   5.404   2.807   1.264
 5630TIP3   OH216832   7.083   2.093   4.552
 5630TIP3    H116833   7.141   2.154   4.507
 5630TIP3    H216834   7.139   2.018   4.573
 5631TIP3   OH216835   5.851   0.040   6.357
 5631TIP3    H116836   5.932   0.091   6.364
 5631TIP3    H216837   5.803   0.060   6.438
 5632TIP3   OH216838   0.599   7.577   1.832
 5632TIP3    H116839   0.639   7.492   1.852
 5632TIP3    H216840   0.531   7.587   1.898
 5633TIP3   OH216841   2.359   7.160   0.740
 5633TIP3    H116842   2.312   7.107   0.804
 5633TIP3    H216843   2.383   7.240   0.788
 5634TIP3   OH216844   3.742   2.096   2.098
 5634TIP3    H116845   3.696   2.172   2.062
 5634TIP3    H216846   3.724   2.100   2.192
 5635TIP3   OH216847   7.334   7.288   6.112
 5635TIP3    H116848   7.317   7.376   6.078
 5635TIP3    H216849   7.250   7.259   6.148
 5636TIP3   OH216850   4.192   6.958   4.218
 5636TIP3    H116851   4.103   6.991   4.228
 5636TIP3    H216852   4.191   6.871   4.257
 5637TIP3   OH216853   2.359   6.736   6.336
 5637TIP3    H116854   2.414   6.740   6.258
 5637TIP3    H216855   2.283   6.684   6.308
 5638TIP3   OH216856   0.980   7.601   1.353
 5638TIP3    H116857   0.973   7.506   1.349
 5638TIP3    H216858   0.994   7.621   1.446
 5639TIP3   OH216859   1.494   0.469   1.845
 5639TIP3    H116860   1.417   0.492   1.792
 5639TIP3    H216861   1.499   0.539   1.910
 5640TIP3   OH216862   7.482   5.337   3.350
 5640TIP3    H116863   7.423   5.350   3.425
 5640TIP3    H216864   7.462   5.249   3.319
 5641TIP3   OH216865   2.253   6.683   0.985
 5641TIP3    H116866   2.336   6.700   0.939
 5641TIP3    H216867   2.202   6.630   0.923
 5642TIP3   OH216868   0.353   7.280   3.518
 5642TIP3    H116869   0.328   7.189   3.531
 5642TIP3    H216870   0.278   7.318   3.472
 5643TIP3   OH216871   2.977   0.584   2.399
 5643TIP3    H116872   2.882   0.584   2.407
 5643TIP3    H216873   2.999   0.672   2.368
 5644TIP3   OH216874   2.997   6.389   1.274
 5644TIP3    H116875   3.057   6.341   1.217
 5644TIP3    H216876   2.916   6.396   1.224
 5645TIP3   OH216877   4.977   5.699   1.086
 5645TIP3    H116878   5.058   5.723   1.131
 5645TIP3    H216879   5.006   5.643   1.014
 5646TIP3   OH216880   6.665   1.884   4.759
 5646TIP3    H116881   6.600   1.953   4.775
 5646TIP3    H216882   6.621   1.803   4.785
 5647TIP3   OH216883   0.440   0.497   2.898
 5647TIP3    H116884   0.457   0.403   2.899
 5647TIP3    H216885   0.507   0.534   2.955
 5648TIP3   OH216886   6.561   4.092   2.731
 5648TIP3    H116887   6.473   4.083   2.769
 5648TIP3    H216888   6.607   4.151   2.791
 5649TIP3   OH216889   4.387   4.413   2.112
 5649TIP3    H116890   4.341   4.485   2.070
 5649TIP3    H216891   4.428   4.453   2.189
 5650TIP3   OH216892   3.261   5.519   6.504
 5650TIP3    H116893   3.170   5.531   6.477
 5650TIP3    H216894   3.276   5.585   6.571
 5651TIP3   OH216895   1.486   0.371   0.216
 5651TIP3    H116896   1.579   0.355   0.197
 5651TIP3    H216897   1.473   0.463   0.195
 5652TIP3   OH216898   1.008   2.645   3.371
 5652TIP3    H116899   1.070   2.579   3.402
 5652TIP3    H216900   0.922   2.610   3.397
 5653TIP3   OH216901   7.763   6.589   5.608
 5653TIP3    H116902   7.673   6.559   5.595
 5653TIP3    H216903   7.763   6.624   5.697
 5654TIP3   OH216904   4.903   5.876   1.620
 5654TIP3    H116905   4.859   5.956   1.592
 5654TIP3    H216906   4.982   5.906   1.664
 5655TIP3   OH216907   3.729   3.569   0.821
 5655TIP3    H116908   3.634   3.572   0.819
 5655TIP3    H216909   3.755   3.587   0.730
 5656TIP3   OH216910   7.176   0.884   1.980
 5656TIP3    H116911   7.182   0.834   1.899
 5656TIP3    H216912   7.085   0.877   2.006
 5657TIP3   OH216913   8.226   4.204   4.162
 5657TIP3    H116914   8.172   4.266   4.211
 5657TIP3    H216915   8.192   4.118   4.187
 5658TIP3   OH216916   3.357   3.335   5.758
 5658TIP3    H116917   3.312   3.368   5.680
 5658TIP3    H216918   3.448   3.323   5.731
 5659TIP3   OH216919   7.792   7.294   6.059
 5659TIP3    H116920   7.863   7.345   6.098
 5659TIP3    H216921   7.784   7.328   5.970
 5660TIP3   OH216922   6.756   0.482   1.906
 5660TIP3    H116923   6.792   0.459   1.992
 5660TIP3    H216924   6.772   0.405   1.852
 5661TIP3   OH216925   4.580   1.626   3.216
 5661TIP3    H116926   4.527   1.672   3.280
 5661TIP3    H216927   4.660   1.678   3.209
 5662TIP3   OH216928   4.783   7.704   3.213
 5662TIP3    H116929   4.712   7.735   3.156
 5662TIP3    H216930   4.841   7.655   3.155
 5663TIP3   OH216931   5.171   0.453   0.693
 5663TIP3    H116932   5.232   0.383   0.672
 5663TIP3    H216933   5.193   0.478   0.783
 5664TIP3   OH216934  -0.029   2.076   1.387
 5664TIP3    H116935  -0.012   2.000   1.442
 5664TIP3    H216936   0.058   2.110   1.364
 5665TIP3   OH216937   6.068   0.588   5.177
 5665TIP3    H116938   6.052   0.511   5.232
 5665TIP3    H216939   6.135   0.638   5.224
 5666TIP3   OH216940   3.048   7.755   5.192
 5666TIP3    H116941   3.000   7.703   5.126
 5666TIP3    H216942   2.984   7.768   5.262
 5667TIP3   OH216943   3.585   7.554   5.788
 5667TIP3    H116944   3.638   7.545   5.867
 5667TIP3    H216945   3.574   7.464   5.757
 5668TIP3   OH216946   6.596   0.897   5.305
 5668TIP3    H116947   6.551   0.814   5.324
 5668TIP3    H216948   6.585   0.908   5.210
 5669TIP3   OH216949   6.787   6.057   2.142
 5669TIP3    H116950   6.781   6.050   2.047
 5669TIP3    H216951   6.858   6.121   2.157
 5670TIP3   OH216952   3.882   7.591   6.460
 5670TIP3    H116953   3.889   7.657   6.391
 5670TIP3    H216954   3.969   7.589   6.500
 5671TIP3   OH216955   0.909   3.805   5.965
 5671TIP3    H116956   1.003   3.792   5.951
 5671TIP3    H216957   0.900   3.898   5.986
 5672TIP3   OH216958   3.966   4.270   0.048
 5672TIP3    H116959   3.911   4.344   0.073
 5672TIP3    H216960   4.052   4.289   0.085
 5673TIP3   OH216961   7.217   1.076   0.483
 5673TIP3    H116962   7.279   1.037   0.422
 5673TIP3    H216963   7.143   1.015   0.484
 5674TIP3   OH216964   7.649   2.119   0.578
 5674TIP3    H116965   7.560   2.121   0.543
 5674TIP3    H216966   7.644   2.058   0.651
 5675TIP3   OH216967   7.197   3.591   1.311
 5675TIP3    H116968   7.231   3.599   1.400
 5675TIP3    H216969   7.224   3.503   1.283
 5676TIP3   OH216970   0.941   4.183   0.863
 5676TIP3    H116971   0.938   4.242   0.787
 5676TIP3    H216972   0.964   4.240   0.936
 5677TIP3   OH216973   2.969   3.927   1.822
 5677TIP3    H116974   2.966   3.951   1.914
 5677TIP3    H216975   3.059   3.900   1.807
 5678TIP3   OH216976   7.875   6.159   1.759
 5678TIP3    H116977   7.870   6.228   1.693
 5678TIP3    H216978   7.908   6.203   1.838
 5679TIP3   OH216979   6.905   2.587   4.331
 5679TIP3    H116980   6.916   2.547   4.418
 5679TIP3    H216981   6.821   2.633   4.337
 5680TIP3   OH216982   6.702   5.770   3.441
 5680TIP3    H116983   6.734   5.761   3.351
 5680TIP3    H216984   6.702   5.865   3.456
 5681TIP3   OH216985   2.602   2.807   5.954
 5681TIP3    H116986   2.610   2.712   5.941
 5681TIP3    H216987   2.650   2.823   6.035
 5682TIP3   OH216988   6.090   1.519   0.930
 5682TIP3    H116989   6.114   1.437   0.974
 5682TIP3    H216990   6.167   1.541   0.877
 5683TIP3   OH216991   7.665   7.687   0.700
 5683TIP3    H116992   7.722   7.725   0.632
 5683TIP3    H216993   7.705   7.602   0.719
 5684TIP3   OH216994   7.593   4.918   5.250
 5684TIP3    H116995   7.673   4.936   5.200
 5684TIP3    H216996   7.620   4.853   5.316
 5685TIP3   OH216997   6.056   7.030   4.728
 5685TIP3    H116998   6.102   6.989   4.655
 5685TIP3    H216999   6.011   6.957   4.771
 5686TIP3   OH217000   4.877   4.270   0.014
 5686TIP3    H117001   4.916   4.184  -0.001
 5686TIP3    H217002   4.908   4.296   0.100
 5687TIP3   OH217003   3.085   3.875   2.490
 5687TIP3    H117004   3.003   3.913   2.520
 5687TIP3    H217005   3.120   3.940   2.428
 5688TIP3   OH217006   2.620   0.068   2.943
 5688TIP3    H117007   2.566   0.062   2.865
 5688TIP3    H217008   2.710   0.066   2.910
 5689TIP3   OH217009   6.334   0.819   5.978
 5689TIP3    H117010   6.414   0.858   5.942
 5689TIP3    H217011   6.362   0.734   6.012
 5690TIP3   OH217012   0.160   1.091   3.413
 5690TIP3    H117013   0.175   1.157   3.481
 5690TIP3    H217014   0.247   1.074   3.377
 5691TIP3   OH217015   7.403   1.647   2.530
 5691TIP3    H117016   7.416   1.581   2.598
 5691TIP3    H217017   7.340   1.607   2.470
 5692TIP3   OH217018   6.459   0.037   3.752
 5692TIP3    H117019   6.368   0.007   3.750
 5692TIP3    H217020   6.509  -0.041   3.777
 5693TIP3   OH217021   0.203   2.203   1.235
 5693TIP3    H117022   0.188   2.161   1.150
 5693TIP3    H217023   0.290   2.242   1.227
 5694TIP3   OH217024   7.968   6.632   6.040
 5694TIP3    H117025   8.048   6.584   6.022
 5694TIP3    H217026   7.983   6.675   6.125
 5695TIP3   OH217027   5.708   6.950   6.151
 5695TIP3    H117028   5.652   7.014   6.193
 5695TIP3    H217029   5.694   6.962   6.057
 5696TIP3   OH217030   4.632   5.024   4.904
 5696TIP3    H117031   4.715   5.035   4.950
 5696TIP3    H217032   4.642   4.942   4.856
 5697TIP3   OH217033   6.767   0.443   0.240
 5697TIP3    H117034   6.796   0.362   0.282
 5697TIP3    H217035   6.755   0.505   0.312
 5698TIP3   OH217036  -0.001   1.592   1.749
 5698TIP3    H117037   0.061   1.545   1.694
 5698TIP3    H217038   0.046   1.670   1.779
 5699TIP3   OH217039   3.745   7.192   3.817
 5699TIP3    H117040   3.690   7.114   3.815
 5699TIP3    H217041   3.832   7.162   3.792
 5700TIP3   OH217042   5.706   2.171   2.350
 5700TIP3    H117043   5.703   2.082   2.383
 5700TIP3    H217044   5.632   2.215   2.393
 5701TIP3   OH217045   5.763   1.128   0.395
 5701TIP3    H117046   5.803   1.044   0.372
 5701TIP3    H217047   5.672   1.107   0.416
 5702TIP3   OH217048   8.094   5.780   5.930
 5702TIP3    H117049   8.019   5.839   5.932
 5702TIP3    H217050   8.076   5.716   5.999
 5703TIP3   OH217051   1.883   2.559   1.685
 5703TIP3    H117052   1.903   2.474   1.646
 5703TIP3    H217053   1.951   2.570   1.752
 5704TIP3   OH217054   7.457   3.663   3.199
 5704TIP3    H117055   7.507   3.626   3.271
 5704TIP3    H217056   7.488   3.616   3.122
 5705TIP3   OH217057   6.888   6.345   0.252
 5705TIP3    H117058   6.900   6.356   0.347
 5705TIP3    H217059   6.848   6.427   0.224
 5706TIP3   OH217060   0.810   5.580   4.392
 5706TIP3    H117061   0.828   5.671   4.368
 5706TIP3    H217062   0.720   5.580   4.424
 5707TIP3   OH217063  -0.038   4.576   1.994
 5707TIP3    H117064  -0.002   4.509   2.052
 5707TIP3    H217065   0.034   4.599   1.936
 5708TIP3   OH217066   1.880   7.107   0.687
 5708TIP3    H117067   1.926   7.113   0.770
 5708TIP3    H217068   1.896   7.017   0.657
 5709TIP3   OH217069   1.575   3.814   3.959
 5709TIP3    H117070   1.635   3.830   3.886
 5709TIP3    H217071   1.505   3.761   3.921
 5710TIP3   OH217072   4.842   2.169   4.063
 5710TIP3    H117073   4.929   2.139   4.091
 5710TIP3    H217074   4.784   2.097   4.086
 5711TIP3   OH217075   5.492   6.306   6.597
 5711TIP3    H117076   5.488   6.360   6.675
 5711TIP3    H217077   5.516   6.367   6.527
 5712TIP3   OH217078   4.192   5.422   4.194
 5712TIP3    H117079   4.143   5.351   4.236
 5712TIP3    H217080   4.252   5.377   4.134
 5713TIP3   OH217081   7.270   1.324   3.373
 5713TIP3    H117082   7.274   1.369   3.458
 5713TIP3    H217083   7.249   1.393   3.310
 5714TIP3   OH217084   3.905   0.763   1.564
 5714TIP3    H117085   3.968   0.779   1.494
 5714TIP3    H217086   3.849   0.693   1.530
 5715TIP3   OH217087   2.425   2.381   6.573
 5715TIP3    H117088   2.496   2.316   6.570
 5715TIP3    H217089   2.471   2.465   6.572
 5716TIP3   OH217090   8.207   3.255   4.301
 5716TIP3    H117091   8.179   3.340   4.267
 5716TIP3    H217092   8.154   3.191   4.252
 5717TIP3   OH217093   2.578   7.605   4.628
 5717TIP3    H117094   2.591   7.657   4.548
 5717TIP3    H217095   2.554   7.670   4.694
 5718TIP3   OH217096   5.327   4.894   1.843
 5718TIP3    H117097   5.255   4.855   1.794
 5718TIP3    H217098   5.406   4.858   1.802
 5719TIP3   OH217099   6.852   6.130   3.769
 5719TIP3    H117100   6.808   6.131   3.854
 5719TIP3    H217101   6.943   6.111   3.789
 5720TIP3   OH217102   1.308   4.307   3.100
 5720TIP3    H117103   1.282   4.363   3.026
 5720TIP3    H217104   1.355   4.365   3.159
 5721TIP3   OH217105   6.559   0.299   3.695
 5721TIP3    H117106   6.518   0.222   3.732
 5721TIP3    H217107   6.502   0.324   3.622
 5722TIP3   OH217108   1.941   6.511   6.590
 5722TIP3    H117109   1.914   6.425   6.558
 5722TIP3    H217110   1.930   6.506   6.684
 5723TIP3   OH217111   2.623   0.210   1.442
 5723TIP3    H117112   2.586   0.169   1.520
 5723TIP3    H217113   2.640   0.301   1.468
 5724TIP3   OH217114   2.385   1.622   6.151
 5724TIP3    H117115   2.300   1.579   6.143
 5724TIP3    H217116   2.397   1.634   6.245
 5725TIP3   OH217117   6.872   0.061   5.715
 5725TIP3    H117118   6.947   0.117   5.733
 5725TIP3    H217119   6.837   0.093   5.632
 5726TIP3   OH217120   1.473   5.121   0.523
 5726TIP3    H117121   1.480   5.215   0.506
 5726TIP3    H217122   1.560   5.094   0.550
 5727TIP3   OH217123   6.406   1.714   3.364
 5727TIP3    H117124   6.419   1.630   3.409
 5727TIP3    H217125   6.321   1.705   3.321
 5728TIP3   OH217126   6.057   4.815   3.527
 5728TIP3    H117127   6.122   4.778   3.588
 5728TIP3    H217128   6.109   4.848   3.454
 5729TIP3   OH217129   5.162   0.206   3.574
 5729TIP3    H117130   5.231   0.220   3.638
 5729TIP3    H217131   5.208   0.199   3.490
 5730TIP3   OH217132   4.969   2.655   0.631
 5730TIP3    H117133   4.923   2.738   0.620
 5730TIP3    H217134   5.057   2.672   0.598
 5731TIP3   OH217135   6.945   7.820   6.523
 5731TIP3    H117136   6.985   7.896   6.481
 5731TIP3    H217137   6.989   7.745   6.485
 5732TIP3   OH217138   3.217   5.134   5.897
 5732TIP3    H117139   3.141   5.192   5.901
 5732TIP3    H217140   3.286   5.187   5.856
 5733TIP3   OH217141   0.737   2.865   5.594
 5733TIP3    H117142   0.823   2.900   5.571
 5733TIP3    H217143   0.746   2.771   5.581
 5734TIP3   OH217144   7.069   2.170   3.675
 5734TIP3    H117145   7.049   2.080   3.648
 5734TIP3    H217146   6.984   2.213   3.684
 5735TIP3   OH217147   0.734   1.330   0.849
 5735TIP3    H117148   0.671   1.390   0.810
 5735TIP3    H217149   0.780   1.383   0.914
 5736TIP3   OH217150   5.227   7.301   2.253
 5736TIP3    H117151   5.151   7.299   2.194
 5736TIP3    H217152   5.281   7.228   2.225
 5737TIP3   OH217153   3.786   0.086   5.096
 5737TIP3    H117154   3.767   0.023   5.165
 5737TIP3    H217155   3.701   0.112   5.062
 5738TIP3   OH217156   8.236   4.401   5.935
 5738TIP3    H117157   8.313   4.427   5.885
 5738TIP3    H217158   8.260   4.418   6.027
 5739TIP3   OH217159   8.177   1.294   3.351
 5739TIP3    H117160   8.223   1.235   3.292
 5739TIP3    H217161   8.195   1.382   3.317
 5740TIP3   OH217162   3.517   1.145   4.254
 5740TIP3    H117163   3.601   1.137   4.209
 5740TIP3    H217164   3.533   1.110   4.342
 5741TIP3   OH217165   8.096   4.961   0.597
 5741TIP3    H117166   8.005   4.953   0.624
 5741TIP3    H217167   8.119   4.873   0.566
 5742TIP3   OH217168   8.007   6.897   0.517
 5742TIP3    H117169   7.967   6.811   0.528
 5742TIP3    H217170   8.094   6.879   0.481
 5743TIP3   OH217171   7.908   1.135   0.398
 5743TIP3    H117172   7.852   1.171   0.329
 5743TIP3    H217173   7.992   1.119   0.355
 5744TIP3   OH217174   1.432   3.144   0.246
 5744TIP3    H117175   1.382   3.070   0.280
 5744TIP3    H217176   1.368   3.214   0.237
 5745TIP3   OH217177   0.585   4.957   1.919
 5745TIP3    H117178   0.592   4.936   1.826
 5745TIP3    H217179   0.565   5.051   1.921
 5746TIP3   OH217180   2.362   5.392   5.454
 5746TIP3    H117181   2.376   5.393   5.360
 5746TIP3    H217182   2.280   5.440   5.467
 5747TIP3   OH217183   5.501   5.276   5.084
 5747TIP3    H117184   5.439   5.289   5.156
 5747TIP3    H217185   5.496   5.182   5.065
 5748TIP3   OH217186   2.034   7.683   6.178
 5748TIP3    H117187   2.118   7.725   6.193
 5748TIP3    H217188   1.970   7.743   6.214
 5749TIP3   OH217189   5.618   1.048   1.750
 5749TIP3    H117190   5.691   1.076   1.694
 5749TIP3    H217191   5.646   1.073   1.839
 5750TIP3   OH217192   4.602   0.052   6.189
 5750TIP3    H117193   4.543   0.054   6.113
 5750TIP3    H217194   4.581   0.132   6.237
 5751TIP3   OH217195   7.481   4.448   6.666
 5751TIP3    H117196   7.482   4.405   6.751
 5751TIP3    H217197   7.427   4.527   6.679
 5752TIP3   OH217198   4.431   4.893   0.460
 5752TIP3    H117199   4.506   4.899   0.401
 5752TIP3    H217200   4.410   4.800   0.463
 5753TIP3   OH217201   4.431   6.433   0.489
 5753TIP3    H117202   4.433   6.487   0.410
 5753TIP3    H217203   4.404   6.347   0.459
 5754TIP3   OH217204   0.370   2.852   1.098
 5754TIP3    H117205   0.311   2.894   1.160
 5754TIP3    H217206   0.315   2.830   1.023
 5755TIP3   OH217207   7.101   1.050   2.285
 5755TIP3    H117208   7.017   1.004   2.283
 5755TIP3    H217209   7.163   0.984   2.316
 5756TIP3   OH217210   7.416   7.786   2.197
 5756TIP3    H117211   7.488   7.741   2.152
 5756TIP3    H217212   7.392   7.857   2.138
 5757TIP3   OH217213   0.277   5.774   2.465
 5757TIP3    H117214   0.211   5.708   2.444
 5757TIP3    H217215   0.337   5.730   2.525
 5758TIP3   OH217216   5.035   3.847   5.244
 5758TIP3    H117217   5.009   3.816   5.157
 5758TIP3    H217218   4.966   3.909   5.269
 5759TIP3   OH217219   7.923   3.566   4.416
 5759TIP3    H117220   7.917   3.546   4.509
 5759TIP3    H217221   7.941   3.660   4.412
 5760TIP3   OH217222   1.607   7.202   0.627
 5760TIP3    H117223   1.687   7.166   0.665
 5760TIP3    H217224   1.608   7.294   0.652
 5761TIP3   OH217225   5.105   3.851   3.277
 5761TIP3    H117226   5.151   3.768   3.288
 5761TIP3    H217227   5.021   3.828   3.238
 5762TIP3   OH217228   4.349   3.785   3.655
 5762TIP3    H117229   4.255   3.793   3.638
 5762TIP3    H217230   4.385   3.869   3.626
 5763TIP3   OH217231   2.539   4.762   4.708
 5763TIP3    H117232   2.560   4.712   4.788
 5763TIP3    H217233   2.465   4.818   4.734
 5764TIP3   OH217234   5.416   2.207   4.219
 5764TIP3    H117235   5.478   2.259   4.166
 5764TIP3    H217236   5.467   2.132   4.249
 5765TIP3   OH217237   2.351   5.153   2.247
 5765TIP3    H117238   2.340   5.247   2.262
 5765TIP3    H217239   2.443   5.136   2.267
 5766TIP3   OH217240   7.706   2.672   4.602
 5766TIP3    H117241   7.778   2.734   4.615
 5766TIP3    H217242   7.634   2.726   4.568
 5767TIP3   OH217243   0.180   5.886   5.033
 5767TIP3    H117244   0.118   5.826   5.075
 5767TIP3    H217245   0.221   5.834   4.964
 5768TIP3   OH217246   1.637   3.535   6.217
 5768TIP3    H117247   1.721   3.494   6.237
 5768TIP3    H217248   1.629   3.606   6.280
 5769TIP3   OH217249   1.296   3.599   2.015
 5769TIP3    H117250   1.308   3.559   1.929
 5769TIP3    H217251   1.369   3.660   2.024
 5770TIP3   OH217252   6.533   3.376   4.790
 5770TIP3    H117253   6.627   3.355   4.785
 5770TIP3    H217254   6.490   3.290   4.784
 5771TIP3   OH217255   7.601   2.314   3.070
 5771TIP3    H117256   7.543   2.385   3.042
 5771TIP3    H217257   7.545   2.257   3.124
 5772TIP3   OH217258   0.401   4.339   5.273
 5772TIP3    H117259   0.362   4.312   5.356
 5772TIP3    H217260   0.488   4.300   5.273
 5773TIP3   OH217261   5.687   2.142   0.846
 5773TIP3    H117262   5.744   2.077   0.888
 5773TIP3    H217263   5.655   2.098   0.768
 5774TIP3   OH217264   5.282   1.170   1.995
 5774TIP3    H117265   5.343   1.101   2.018
 5774TIP3    H217266   5.293   1.236   2.062
 5775TIP3   OH217267   1.797   2.966   0.426
 5775TIP3    H117268   1.842   2.891   0.465
 5775TIP3    H217269   1.737   2.996   0.493
 5776TIP3   OH217270   7.414   5.432   4.544
 5776TIP3    H117271   7.478   5.477   4.490
 5776TIP3    H217272   7.445   5.443   4.634
 5777TIP3   OH217273   3.531   7.668   1.476
 5777TIP3    H117274   3.506   7.593   1.530
 5777TIP3    H217275   3.451   7.690   1.428
 5778TIP3   OH217276   8.011   1.906   5.895
 5778TIP3    H117277   8.060   1.981   5.863
 5778TIP3    H217278   8.030   1.902   5.989
 5779TIP3   OH217279   6.879   1.423   1.032
 5779TIP3    H117280   6.851   1.498   0.980
 5779TIP3    H217281   6.818   1.419   1.105
 5780TIP3   OH217282   3.175   3.151   5.010
 5780TIP3    H117283   3.226   3.200   4.946
 5780TIP3    H217284   3.205   3.061   5.000
 5781TIP3   OH217285   7.322   4.432   3.207
 5781TIP3    H117286   7.325   4.527   3.218
 5781TIP3    H217287   7.320   4.398   3.296
 5782TIP3   OH217288   1.513   2.488   3.612
 5782TIP3    H117289   1.524   2.396   3.637
 5782TIP3    H217290   1.575   2.501   3.540
 5783TIP3   OH217291   2.954   1.695   6.096
 5783TIP3    H117292   2.921   1.629   6.035
 5783TIP3    H217293   3.046   1.704   6.073
 5784TIP3   OH217294   1.606   7.716   0.169
 5784TIP3    H117295   1.625   7.685   0.257
 5784TIP3    H217296   1.570   7.804   0.181
 5785TIP3   OH217297   2.291   6.051   6.560
 5785TIP3    H117298   2.217   6.111   6.556
 5785TIP3    H217299   2.335   6.060   6.476
 5786TIP3   OH217300   7.831   5.180   3.829
 5786TIP3    H117301   7.797   5.269   3.817
 5786TIP3    H217302   7.800   5.132   3.753
 5787TIP3   OH217303   0.893   3.407   2.191
 5787TIP3    H117304   0.846   3.395   2.273
 5787TIP3    H217305   0.974   3.451   2.215
 5788TIP3   OH217306   0.045   1.709   5.394
 5788TIP3    H117307   0.069   1.655   5.469
 5788TIP3    H217308  -0.027   1.764   5.425
 5789TIP3   OH217309   8.345   0.010   4.907
 5789TIP3    H117310   8.363   0.063   4.984
 5789TIP3    H217311   8.278   0.058   4.859
 5790TIP3   OH217312   5.850   4.759   2.931
 5790TIP3    H117313   5.837   4.845   2.971
 5790TIP3    H217314   5.925   4.723   2.979
 5791TIP3   OH217315   0.731   5.828   5.981
 5791TIP3    H117316   0.767   5.777   5.909
 5791TIP3    H217317   0.753   5.918   5.961
 5792TIP3   OH217318   6.761   3.845   4.642
 5792TIP3    H117319   6.752   3.920   4.702
 5792TIP3    H217320   6.744   3.882   4.556
 5793TIP3   OH217321   3.730   0.831   2.788
 5793TIP3    H117322   3.688   0.885   2.855
 5793TIP3    H217323   3.747   0.748   2.831
 5794TIP3   OH217324   1.534   2.195   2.197
 5794TIP3    H117325   1.606   2.134   2.212
 5794TIP3    H217326   1.492   2.205   2.283
 5795TIP3   OH217327   4.371   2.582   1.170
 5795TIP3    H117328   4.439   2.551   1.110
 5795TIP3    H217329   4.308   2.510   1.174
 5796TIP3   OH217330   6.511   7.622   2.476
 5796TIP3    H117331   6.563   7.593   2.401
 5796TIP3    H217332   6.570   7.611   2.551
 5797TIP3   OH217333   1.503   5.273   4.165
 5797TIP3    H117334   1.416   5.289   4.202
 5797TIP3    H217335   1.503   5.322   4.084
 5798TIP3   OH217336   0.412   6.294   6.643
 5798TIP3    H117337   0.437   6.228   6.708
 5798TIP3    H217338   0.353   6.248   6.584
 5799TIP3   OH217339   6.419   5.877   6.361
 5799TIP3    H117340   6.349   5.897   6.299
 5799TIP3    H217341   6.414   5.782   6.372
 5800TIP3   OH217342   5.895   0.013   2.391
 5800TIP3    H117343   5.931   0.096   2.361
 5800TIP3    H217344   5.801   0.019   2.370
 5801TIP3   OH217345   2.554   1.067   2.624
 5801TIP3    H117346   2.599   1.020   2.694
 5801TIP3    H217347   2.625   1.097   2.566
 5802TIP3   OH217348   2.685   5.754   2.150
 5802TIP3    H117349   2.688   5.850   2.140
 5802TIP3    H217350   2.776   5.729   2.165
 5803TIP3   OH217351   6.710   6.070   6.569
 5803TIP3    H117352   6.680   6.037   6.484
 5803TIP3    H217353   6.794   6.111   6.550
 5804TIP3   OH217354   4.641   4.327   4.489
 5804TIP3    H117355   4.625   4.333   4.394
 5804TIP3    H217356   4.724   4.371   4.502
 5805TIP3   OH217357   1.482   0.934   1.807
 5805TIP3    H117358   1.457   0.929   1.899
 5805TIP3    H217359   1.401   0.917   1.759
 5806TIP3   OH217360   2.235   7.619   2.582
 5806TIP3    H117361   2.226   7.695   2.639
 5806TIP3    H217362   2.148   7.608   2.543
 5807TIP3   OH217363   1.852   6.673   0.580
 5807TIP3    H117364   1.765   6.689   0.543
 5807TIP3    H217365   1.891   6.609   0.521
 5808TIP3   OH217366   7.209   6.113   1.133
 5808TIP3    H117367   7.143   6.182   1.120
 5808TIP3    H217368   7.258   6.141   1.210
 5809TIP3   OH217369   3.849   0.903   0.647
 5809TIP3    H117370   3.936   0.882   0.681
 5809TIP3    H217371   3.798   0.926   0.724
 5810TIP3   OH217372   2.111   6.553   3.356
 5810TIP3    H117373   2.176   6.535   3.288
 5810TIP3    H217374   2.074   6.638   3.332
 5811TIP3   OH217375   7.039   4.165   6.308
 5811TIP3    H117376   7.101   4.137   6.376
 5811TIP3    H217377   7.028   4.259   6.323
 5812TIP3   OH217378   1.118   1.061   4.199
 5812TIP3    H117379   1.051   1.007   4.241
 5812TIP3    H217380   1.186   0.998   4.173
 5813TIP3   OH217381   3.902   2.915   2.571
 5813TIP3    H117382   3.968   2.848   2.588
 5813TIP3    H217383   3.950   2.997   2.577
 5814TIP3   OH217384   6.734   6.513   3.281
 5814TIP3    H117385   6.819   6.529   3.322
 5814TIP3    H217386   6.692   6.600   3.279
 5815TIP3   OH217387   6.754   6.357   6.784
 5815TIP3    H117388   6.794   6.331   6.867
 5815TIP3    H217389   6.686   6.291   6.768
 5816TIP3   OH217390   3.367   0.486   6.007
 5816TIP3    H117391   3.390   0.578   6.012
 5816TIP3    H217392   3.351   0.460   6.098
 5817TIP3   OH217393   4.903   2.753   6.488
 5817TIP3    H117394   4.950   2.753   6.571
 5817TIP3    H217395   4.920   2.667   6.451
 5818TIP3   OH217396   4.481   1.695   6.304
 5818TIP3    H117397   4.418   1.749   6.352
 5818TIP3    H217398   4.504   1.747   6.228
 5819TIP3   OH217399   4.904   5.279   3.536
 5819TIP3    H117400   4.899   5.245   3.446
 5819TIP3    H217401   4.978   5.339   3.534
 5820TIP3   OH217402   6.629   6.018   6.034
 5820TIP3    H117403   6.631   6.020   5.938
 5820TIP3    H217404   6.573   5.944   6.055
 5821TIP3   OH217405   8.009   1.482   6.384
 5821TIP3    H117406   7.992   1.424   6.458
 5821TIP3    H217407   8.104   1.488   6.380
 5822TIP3   OH217408   1.326   3.853   4.351
 5822TIP3    H117409   1.396   3.843   4.286
 5822TIP3    H217410   1.365   3.906   4.421
 5823TIP3   OH217411   3.916   5.632   0.488
 5823TIP3    H117412   3.858   5.657   0.416
 5823TIP3    H217413   3.879   5.676   0.565
 5824TIP3   OH217414   0.475   3.295   5.652
 5824TIP3    H117415   0.528   3.223   5.687
 5824TIP3    H217416   0.511   3.310   5.565
 5825TIP3   OH217417   5.118   2.113   4.113
 5825TIP3    H117418   5.174   2.118   4.036
 5825TIP3    H217419   5.179   2.119   4.187
 5826TIP3   OH217420   1.768   0.295   1.784
 5826TIP3    H117421   1.795   0.376   1.827
 5826TIP3    H217422   1.695   0.321   1.727
 5827TIP3   OH217423   6.558   2.264   1.658
 5827TIP3    H117424   6.640   2.219   1.682
 5827TIP3    H217425   6.585   2.354   1.640
 5828TIP3   OH217426   4.673   2.393   0.712
 5828TIP3    H117427   4.706   2.378   0.624
 5828TIP3    H217428   4.741   2.445   0.755
 5829TIP3   OH217429   2.239   3.280   2.835
 5829TIP3    H117430   2.169   3.338   2.867
 5829TIP3    H217431   2.234   3.203   2.891
 5830TIP3   OH217432   5.125   7.128   3.834
 5830TIP3    H117433   5.132   7.043   3.878
 5830TIP3    H217434   5.056   7.174   3.882
 5831TIP3   OH217435   7.804   6.428   4.816
 5831TIP3    H117436   7.810   6.381   4.899
 5831TIP3    H217437   7.815   6.360   4.749
 5832TIP3   OH217438   1.454   7.538   0.027
 5832TIP3    H117439   1.521   7.604   0.040
 5832TIP3    H217440   1.496   7.455   0.051
 5833TIP3   OH217441   5.170   5.536   4.398
 5833TIP3    H117442   5.229   5.612   4.407
 5833TIP3    H217443   5.214   5.480   4.335
 5834TIP3   OH217444   4.187   4.119   6.228
 5834TIP3    H117445   4.218   4.153   6.311
 5834TIP3    H217446   4.210   4.185   6.164
 5835TIP3   OH217447   6.113   4.539   5.389
 5835TIP3    H117448   6.085   4.593   5.462
 5835TIP3    H217449   6.041   4.544   5.326
 5836TIP3   OH217450   7.262   6.364   4.256
 5836TIP3    H117451   7.174   6.330   4.244
 5836TIP3    H217452   7.312   6.329   4.182
 5837TIP3   OH217453   2.125   1.031   5.022
 5837TIP3    H117454   2.041   0.998   5.055
 5837TIP3    H217455   2.190   0.997   5.083
 5838TIP3   OH217456   3.769   1.020   2.506
 5838TIP3    H117457   3.848   1.058   2.546
 5838TIP3    H217458   3.698   1.048   2.563
 5839TIP3   OH217459   3.681   4.980   2.255
 5839TIP3    H117460   3.596   5.002   2.292
 5839TIP3    H217461   3.700   4.893   2.290
 5840TIP3   OH217462   6.645   5.662   4.579
 5840TIP3    H117463   6.672   5.715   4.503
 5840TIP3    H217464   6.574   5.607   4.545
 5841TIP3   OH217465   6.187   7.601   3.776
 5841TIP3    H117466   6.202   7.695   3.765
 5841TIP3    H217467   6.200   7.564   3.689
 5842TIP3   OH217468   4.092   0.651   0.289
 5842TIP3    H117469   4.051   0.625   0.372
 5842TIP3    H217470   4.025   0.704   0.245
 5843TIP3   OH217471   7.870   2.421   6.659
 5843TIP3    H117472   7.891   2.406   6.567
 5843TIP3    H217473   7.955   2.426   6.703
 5844TIP3   OH217474   6.897   6.149   0.085
 5844TIP3    H117475   6.849   6.070   0.112
 5844TIP3    H217476   6.877   6.213   0.153
 5845TIP3   OH217477   1.808   0.859   6.621
 5845TIP3    H117478   1.884   0.836   6.675
 5845TIP3    H217479   1.812   0.800   6.546
 5846TIP3   OH217480   7.172   4.385   4.159
 5846TIP3    H117481   7.256   4.429   4.167
 5846TIP3    H217482   7.177   4.313   4.223
 5847TIP3   OH217483   4.270   1.367   4.740
 5847TIP3    H117484   4.347   1.334   4.694
 5847TIP3    H217485   4.197   1.353   4.679
 5848TIP3   OH217486   1.305   7.043   4.577
 5848TIP3    H117487   1.356   6.975   4.532
 5848TIP3    H217488   1.273   7.000   4.656
 5849TIP3   OH217489   2.880   3.579   0.945
 5849TIP3    H117490   2.811   3.572   0.878
 5849TIP3    H217491   2.929   3.658   0.920
 5850TIP3   OH217492   7.470   0.126   1.230
 5850TIP3    H117493   7.512   0.195   1.281
 5850TIP3    H217494   7.472   0.157   1.140
 5851TIP3   OH217495   2.704   7.313   5.801
 5851TIP3    H117496   2.690   7.232   5.752
 5851TIP3    H217497   2.640   7.308   5.872
 5852TIP3   OH217498   4.052   6.046   3.725
 5852TIP3    H117499   3.980   5.984   3.728
 5852TIP3    H217500   4.011   6.132   3.730
 5853TIP3   OH217501   2.383   0.575   2.573
 5853TIP3    H117502   2.333   0.521   2.512
 5853TIP3    H217503   2.350   0.664   2.560
 5854TIP3   OH217504   5.998   0.152   0.403
 5854TIP3    H117505   6.077   0.205   0.412
 5854TIP3    H217506   6.012   0.099   0.324
 5855TIP3   OH217507   4.795   1.075   1.946
 5855TIP3    H117508   4.810   1.051   1.855
 5855TIP3    H217509   4.881   1.067   1.988
 5856TIP3   OH217510   5.548   0.379   1.077
 5856TIP3    H117511   5.612   0.349   1.142
 5856TIP3    H217512   5.539   0.305   1.016
 5857TIP3   OH217513   7.190   1.305   5.935
 5857TIP3    H117514   7.142   1.298   5.852
 5857TIP3    H217515   7.126   1.278   6.001
 5858TIP3   OH217516   4.344   5.774   3.790
 5858TIP3    H117517   4.301   5.800   3.709
 5858TIP3    H217518   4.414   5.715   3.762
 5859TIP3   OH217519   4.625   3.057   1.475
 5859TIP3    H117520   4.712   3.029   1.503
 5859TIP3    H217521   4.636   3.078   1.382
 5860TIP3   OH217522   1.285   1.110   1.281
 5860TIP3    H117523   1.271   1.016   1.270
 5860TIP3    H217524   1.376   1.124   1.256
 5861TIP3   OH217525   6.089   6.329   3.513
 5861TIP3    H117526   6.171   6.326   3.562
 5861TIP3    H217527   6.116   6.325   3.422
 5862TIP3   OH217528   6.589   4.448   0.166
 5862TIP3    H117529   6.508   4.404   0.142
 5862TIP3    H217530   6.629   4.472   0.082
 5863TIP3   OH217531   5.433   5.471   3.713
 5863TIP3    H117532   5.476   5.547   3.674
 5863TIP3    H217533   5.502   5.426   3.761
 5864TIP3   OH217534   3.449   7.790   1.003
 5864TIP3    H117535   3.483   7.776   1.091
 5864TIP3    H217536   3.416   7.880   1.004
 5865TIP3   OH217537   2.443   5.638   0.547
 5865TIP3    H117538   2.355   5.660   0.516
 5865TIP3    H217539   2.497   5.637   0.468
 5866TIP3   OH217540   0.613   3.877   4.442
 5866TIP3    H117541   0.645   3.793   4.408
 5866TIP3    H217542   0.648   3.882   4.531
 5867TIP3   OH217543   4.541   3.933   6.322
 5867TIP3    H117544   4.537   4.019   6.281
 5867TIP3    H217545   4.532   3.950   6.415
 5868TIP3   OH217546   6.131   6.066   1.789
 5868TIP3    H117547   6.045   6.041   1.823
 5868TIP3    H217548   6.144   6.155   1.820
 5869TIP3   OH217549   2.676   4.420   1.665
 5869TIP3    H117550   2.758   4.443   1.709
 5869TIP3    H217551   2.694   4.336   1.623
 5870TIP3   OH217552   5.916   4.155   6.614
 5870TIP3    H117553   5.849   4.182   6.677
 5870TIP3    H217554   5.888   4.068   6.585
 5871TIP3   OH217555   5.622   5.729   3.269
 5871TIP3    H117556   5.664   5.653   3.309
 5871TIP3    H217557   5.549   5.749   3.327
 5872TIP3   OH217558   0.740   2.320   0.749
 5872TIP3    H117559   0.702   2.256   0.809
 5872TIP3    H217560   0.702   2.299   0.664
 5873TIP3   OH217561   5.617   6.341   2.721
 5873TIP3    H117562   5.644   6.279   2.789
 5873TIP3    H217563   5.544   6.298   2.677
 5874TIP3   OH217564   4.448   6.288   2.362
 5874TIP3    H117565   4.393   6.365   2.351
 5874TIP3    H217566   4.418   6.227   2.295
 5875TIP3   OH217567   4.622   6.473   6.796
 5875TIP3    H117568   4.581   6.396   6.755
 5875TIP3    H217569   4.705   6.483   6.750
 5876TIP3   OH217570   1.740   5.786   5.548
 5876TIP3    H117571   1.791   5.735   5.610
 5876TIP3    H217572   1.775   5.875   5.555
 5877TIP3   OH217573   7.337   6.439   1.080
 5877TIP3    H117574   7.311   6.381   1.008
 5877TIP3    H217575   7.255   6.458   1.126
 5878TIP3   OH217576   1.407   0.762   5.780
 5878TIP3    H117577   1.403   0.844   5.829
 5878TIP3    H217578   1.433   0.696   5.844
 5879TIP3   OH217579   2.009   3.838   4.770
 5879TIP3    H117580   1.983   3.901   4.703
 5879TIP3    H217581   1.927   3.812   4.811
 5880TIP3   OH217582   1.720   0.309   5.576
 5880TIP3    H117583   1.804   0.354   5.584
 5880TIP3    H217584   1.681   0.316   5.663
 5881TIP3   OH217585   6.192   0.996   5.535
 5881TIP3    H117586   6.271   1.039   5.503
 5881TIP3    H217587   6.133   0.993   5.460
 5882TIP3   OH217588   6.704   5.173   1.588
 5882TIP3    H117589   6.697   5.245   1.651
 5882TIP3    H217590   6.671   5.097   1.634
 5883TIP3   OH217591   3.029   2.724   2.956
 5883TIP3    H117592   3.077   2.796   2.914
 5883TIP3    H217593   3.093   2.684   3.014
 5884TIP3   OH217594   0.150   3.025   3.979
 5884TIP3    H117595   0.089   2.951   3.971
 5884TIP3    H217596   0.205   3.017   3.901
 5885TIP3   OH217597   5.468   2.303   2.405
 5885TIP3    H117598   5.391   2.288   2.460
 5885TIP3    H217599   5.501   2.388   2.434
 5886TIP3   OH217600   5.536   6.900   3.272
 5886TIP3    H117601   5.608   6.949   3.232
 5886TIP3    H217602   5.570   6.811   3.279
 5887TIP3   OH217603   4.083   6.082   1.406
 5887TIP3    H117604   4.139   6.160   1.403
 5887TIP3    H217605   4.057   6.074   1.498
 5888TIP3   OH217606   0.422   4.167   1.661
 5888TIP3    H117607   0.438   4.161   1.567
 5888TIP3    H217608   0.327   4.184   1.668
 5889TIP3   OH217609   0.044   0.443   4.924
 5889TIP3    H117610  -0.018   0.415   4.857
 5889TIP3    H217611   0.128   0.449   4.879
 5890TIP3   OH217612   1.929   1.251   1.223
 5890TIP3    H117613   1.959   1.257   1.132
 5890TIP3    H217614   1.909   1.159   1.236
 5891TIP3   OH217615   6.541   6.489   0.028
 5891TIP3    H117616   6.508   6.423   0.089
 5891TIP3    H217617   6.592   6.438  -0.036
 5892TIP3   OH217618   4.693   2.749   1.499
 5892TIP3    H117619   4.629   2.758   1.429
 5892TIP3    H217620   4.768   2.801   1.470
 5893TIP3   OH217621   7.613   2.711   6.501
 5893TIP3    H117622   7.675   2.744   6.566
 5893TIP3    H217623   7.668   2.663   6.438
 5894TIP3   OH217624   5.050   5.157   6.354
 5894TIP3    H117625   5.015   5.068   6.352
 5894TIP3    H217626   5.013   5.199   6.276
 5895TIP3   OH217627   8.213   6.203   5.642
 5895TIP3    H117628   8.290   6.202   5.585
 5895TIP3    H217629   8.201   6.112   5.667
 5896TIP3   OH217630   4.378   0.593   1.532
 5896TIP3    H117631   4.448   0.553   1.480
 5896TIP3    H217632   4.318   0.521   1.552
 5897TIP3   OH217633   1.428   3.940   0.788
 5897TIP3    H117634   1.351   3.948   0.843
 5897TIP3    H217635   1.463   3.853   0.809
 5898TIP3   OH217636   8.031   3.875   4.944
 5898TIP3    H117637   8.082   3.955   4.926
 5898TIP3    H217638   7.954   3.883   4.887
 5899TIP3   OH217639   0.068   4.391   0.379
 5899TIP3    H117640   0.071   4.302   0.344
 5899TIP3    H217641   0.158   4.409   0.405
 5900TIP3   OH217642   2.012   6.545   0.841
 5900TIP3    H117643   1.938   6.486   0.825
 5900TIP3    H217644   2.088   6.497   0.810
 5901TIP3   OH217645   0.850   6.728   4.920
 5901TIP3    H117646   0.770   6.777   4.940
 5901TIP3    H217647   0.884   6.770   4.841
 5902TIP3   OH217648   2.922   5.782   1.131
 5902TIP3    H117649   2.912   5.806   1.039
 5902TIP3    H217650   3.016   5.765   1.140
 5903TIP3   OH217651   0.527   5.619   5.485
 5903TIP3    H117652   0.562   5.604   5.397
 5903TIP3    H217653   0.432   5.616   5.473
 5904TIP3   OH217654   6.428   7.273   6.370
 5904TIP3    H117655   6.357   7.235   6.421
 5904TIP3    H217656   6.500   7.283   6.433
 5905TIP3   OH217657   6.892   0.483   0.980
 5905TIP3    H117658   6.870   0.461   1.071
 5905TIP3    H217659   6.985   0.505   0.983
 5906TIP3   OH217660   7.028   2.840   2.546
 5906TIP3    H117661   7.112   2.811   2.580
 5906TIP3    H217662   7.048   2.916   2.492
 5907TIP3   OH217663   0.863   5.538   4.689
 5907TIP3    H117664   0.939   5.524   4.746
 5907TIP3    H217665   0.846   5.453   4.650
 5908TIP3   OH217666   4.507   3.145   3.785
 5908TIP3    H117667   4.505   3.132   3.880
 5908TIP3    H217668   4.421   3.180   3.763
 5909TIP3   OH217669   6.112   7.555   4.362
 5909TIP3    H117670   6.087   7.567   4.453
 5909TIP3    H217671   6.067   7.624   4.315
 5910TIP3   OH217672   4.631   3.602   2.181
 5910TIP3    H117673   4.661   3.522   2.138
 5910TIP3    H217674   4.705   3.663   2.173
 5911TIP3   OH217675   3.543   1.959   2.601
 5911TIP3    H117676   3.474   1.905   2.563
 5911TIP3    H217677   3.523   2.048   2.572
 5912TIP3   OH217678   4.429   6.363   3.979
 5912TIP3    H117679   4.334   6.354   3.991
 5912TIP3    H217680   4.462   6.381   4.067
 5913TIP3   OH217681   4.988   5.555   0.056
 5913TIP3    H117682   4.942   5.522   0.134
 5913TIP3    H217683   5.029   5.477   0.018
 5914TIP3   OH217684   6.828   1.062   2.659
 5914TIP3    H117685   6.863   1.151   2.670
 5914TIP3    H217686   6.891   1.006   2.704
 5915TIP3   OH217687   7.803   5.153   6.685
 5915TIP3    H117688   7.717   5.119   6.708
 5915TIP3    H217689   7.790   5.248   6.678
 5916TIP3   OH217690   5.204   4.989   2.081
 5916TIP3    H117691   5.273   4.972   2.018
 5916TIP3    H217692   5.123   4.968   2.034
 5917TIP3   OH217693   2.353   1.128   4.900
 5917TIP3    H117694   2.365   1.213   4.944
 5917TIP3    H217695   2.262   1.104   4.919
 5918TIP3   OH217696   4.602   5.560   5.695
 5918TIP3    H117697   4.514   5.532   5.719
 5918TIP3    H217698   4.645   5.482   5.661
 5919TIP3   OH217699   4.851   5.903   5.928
 5919TIP3    H117700   4.776   5.934   5.876
 5919TIP3    H217701   4.811   5.860   6.003
 5920TIP3   OH217702   0.592   5.113   4.773
 5920TIP3    H117703   0.522   5.054   4.800
 5920TIP3    H217704   0.613   5.163   4.852
 5921TIP3   OH217705   7.476   1.478   2.761
 5921TIP3    H117706   7.477   1.383   2.744
 5921TIP3    H217707   7.384   1.498   2.779
 5922TIP3   OH217708   7.886   0.206   6.286
 5922TIP3    H117709   7.950   0.247   6.345
 5922TIP3    H217710   7.833   0.280   6.254
 5923TIP3   OH217711   6.884   1.859   0.321
 5923TIP3    H117712   6.890   1.927   0.254
 5923TIP3    H217713   6.901   1.777   0.274
 5924TIP3   OH217714   3.600   0.862   5.876
 5924TIP3    H117715   3.635   0.775   5.853
 5924TIP3    H217716   3.642   0.921   5.814
 5925TIP3   OH217717   8.318   5.761   4.466
 5925TIP3    H117718   8.268   5.719   4.397
 5925TIP3    H217719   8.405   5.773   4.429
 5926TIP3   OH217720   7.255   3.945   3.564
 5926TIP3    H117721   7.212   4.015   3.612
 5926TIP3    H217722   7.224   3.956   3.474
 5927TIP3   OH217723   3.514   7.037   1.704
 5927TIP3    H117724   3.495   6.947   1.677
 5927TIP3    H217725   3.600   7.056   1.666
 5928TIP3   OH217726   4.681   2.379   0.424
 5928TIP3    H117727   4.722   2.313   0.368
 5928TIP3    H217728   4.684   2.459   0.371
 5929TIP3   OH217729   0.299   1.312   5.497
 5929TIP3    H117730   0.382   1.318   5.450
 5929TIP3    H217731   0.267   1.223   5.480
 5930TIP3   OH217732   6.148   1.827   2.167
 5930TIP3    H117733   6.194   1.745   2.147
 5930TIP3    H217734   6.114   1.814   2.255
 5931TIP3   OH217735   0.938   0.872   4.293
 5931TIP3    H117736   0.950   0.786   4.334
 5931TIP3    H217737   0.848   0.870   4.260
 5932TIP3   OH217738   4.686   0.450   6.530
 5932TIP3    H117739   4.694   0.365   6.572
 5932TIP3    H217740   4.763   0.499   6.559
 5933TIP3   OH217741   2.389   0.287   5.902
 5933TIP3    H117742   2.482   0.285   5.876
 5933TIP3    H217743   2.341   0.290   5.819
 5934TIP3   OH217744   1.235   7.727   0.740
 5934TIP3    H117745   1.224   7.812   0.783
 5934TIP3    H217746   1.237   7.664   0.812
 5935TIP3   OH217747   0.297   7.638   0.734
 5935TIP3    H117748   0.223   7.601   0.783
 5935TIP3    H217749   0.263   7.721   0.700
 5936TIP3   OH217750   7.760   2.644   0.271
 5936TIP3    H117751   7.740   2.555   0.299
 5936TIP3    H217752   7.781   2.636   0.178
 5937TIP3   OH217753   1.967   5.120   6.236
 5937TIP3    H117754   2.015   5.095   6.314
 5937TIP3    H217755   2.032   5.121   6.166
 5938TIP3   OH217756   0.128   1.341   5.718
 5938TIP3    H117757   0.178   1.329   5.637
 5938TIP3    H217758   0.108   1.252   5.746
 5939TIP3   OH217759   8.205   3.472   2.909
 5939TIP3    H117760   8.155   3.495   2.988
 5939TIP3    H217761   8.237   3.383   2.926
 5940TIP3   OH217762   5.708   7.372   3.438
 5940TIP3    H117763   5.704   7.284   3.476
 5940TIP3    H217764   5.617   7.399   3.430
 5941TIP3   OH217765   2.041   7.216   2.859
 5941TIP3    H117766   1.962   7.266   2.879
 5941TIP3    H217767   2.110   7.259   2.908
 5942TIP3   OH217768   4.142   6.065   6.610
 5942TIP3    H117769   4.124   6.022   6.526
 5942TIP3    H217770   4.059   6.106   6.634
 5943TIP3   OH217771   4.897   7.855   4.585
 5943TIP3    H117772   4.948   7.796   4.640
 5943TIP3    H217773   4.943   7.939   4.592
 5944TIP3   OH217774   0.510   2.153   4.720
 5944TIP3    H117775   0.467   2.236   4.741
 5944TIP3    H217776   0.443   2.086   4.737
 5945TIP3   OH217777   6.379   0.041   6.400
 5945TIP3    H117778   6.376   0.052   6.305
 5945TIP3    H217779   6.428   0.117   6.432
 5946TIP3   OH217780   1.974   0.945   1.797
 5946TIP3    H117781   1.992   1.013   1.732
 5946TIP3    H217782   1.944   0.870   1.746
 5947TIP3   OH217783   4.408   3.737   5.074
 5947TIP3    H117784   4.420   3.778   4.988
 5947TIP3    H217785   4.490   3.755   5.120
 5948TIP3   OH217786   0.187   4.492   4.752
 5948TIP3    H117787   0.167   4.410   4.798
 5948TIP3    H217788   0.190   4.557   4.822
 5949TIP3   OH217789   0.544   1.879   5.621
 5949TIP3    H117790   0.611   1.905   5.684
 5949TIP3    H217791   0.538   1.784   5.630
 5950TIP3   OH217792   7.847   5.917   3.426
 5950TIP3    H117793   7.798   5.993   3.457
 5950TIP3    H217794   7.833   5.851   3.494
 5951TIP3   OH217795   5.780   4.082   2.615
 5951TIP3    H117796   5.799   4.148   2.681
 5951TIP3    H217797   5.795   3.998   2.660
 5952TIP3   OH217798   4.208   2.128   1.058
 5952TIP3    H117799   4.266   2.084   0.996
 5952TIP3    H217800   4.186   2.061   1.123
 5953TIP3   OH217801   5.918   7.616   4.923
 5953TIP3    H117802   5.895   7.529   4.891
 5953TIP3    H217803   5.885   7.675   4.855
 5954TIP3   OH217804   0.922   6.066   6.177
 5954TIP3    H117805   0.858   6.074   6.247
 5954TIP3    H217806   0.947   5.973   6.178
 5955TIP3   OH217807   0.320   5.333   3.139
 5955TIP3    H117808   0.362   5.260   3.092
 5955TIP3    H217809   0.393   5.391   3.162
 5956TIP3   OH217810   0.500   6.775   1.149
 5956TIP3    H117811   0.512   6.816   1.235
 5956TIP3    H217812   0.454   6.693   1.168
 5957TIP3   OH217813   7.205   0.586   5.079
 5957TIP3    H117814   7.296   0.613   5.063
 5957TIP3    H217815   7.202   0.494   5.054
 5958TIP3   OH217816   0.066   2.714   1.338
 5958TIP3    H117817   0.148   2.763   1.344
 5958TIP3    H217818   0.014   2.762   1.274
 5959TIP3   OH217819   1.018   4.932   1.071
 5959TIP3    H117820   1.030   5.020   1.107
 5959TIP3    H217821   1.094   4.918   1.015
 5960TIP3   OH217822   3.033   4.398   2.073
 5960TIP3    H117823   3.098   4.461   2.103
 5960TIP3    H217824   3.072   4.312   2.090
 5961TIP3   OH217825   0.261   3.506   6.280
 5961TIP3    H117826   0.285   3.529   6.190
 5961TIP3    H217827   0.165   3.508   6.281
 5962TIP3   OH217828   6.768   7.401   5.239
 5962TIP3    H117829   6.846   7.454   5.252
 5962TIP3    H217830   6.794   7.334   5.176
 5963TIP3   OH217831   6.924   1.612   3.806
 5963TIP3    H117832   6.951   1.537   3.858
 5963TIP3    H217833   6.984   1.682   3.832
 5964TIP3   OH217834   0.422   6.756   4.769
 5964TIP3    H117835   0.486   6.688   4.789
 5964TIP3    H217836   0.365   6.717   4.703
 5965TIP3   OH217837   5.698   1.282   3.069
 5965TIP3    H117838   5.718   1.373   3.048
 5965TIP3    H217839   5.603   1.275   3.058
 5966TIP3   OH217840   0.189   6.592   4.676
 5966TIP3    H117841   0.131   6.656   4.718
 5966TIP3    H217842   0.188   6.517   4.736
 5967TIP3   OH217843   6.809   2.073   1.726
 5967TIP3    H117844   6.815   1.997   1.783
 5967TIP3    H217845   6.855   2.047   1.646
 5968TIP3   OH217846   7.514   1.857   3.491
 5968TIP3    H117847   7.532   1.871   3.584
 5968TIP3    H217848   7.600   1.867   3.449
 5969TIP3   OH217849   5.047   4.231   0.262
 5969TIP3    H117850   5.128   4.184   0.242
 5969TIP3    H217851   4.983   4.162   0.282
 5970TIP3   OH217852   7.888   3.366   0.921
 5970TIP3    H117853   7.972   3.412   0.915
 5970TIP3    H217854   7.822   3.434   0.911
 5971TIP3   OH217855   2.438   4.875   3.588
 5971TIP3    H117856   2.454   4.886   3.494
 5971TIP3    H217857   2.379   4.800   3.594
 5972TIP3   OH217858   3.397   2.543   1.415
 5972TIP3    H117859   3.441   2.602   1.354
 5972TIP3    H217860   3.401   2.458   1.372
 5973TIP3   OH217861   7.287   1.341   1.067
 5973TIP3    H117862   7.215   1.330   1.005
 5973TIP3    H217863   7.342   1.264   1.052
 5974TIP3   OH217864   4.232   5.972   5.973
 5974TIP3    H117865   4.219   6.044   5.912
 5974TIP3    H217866   4.212   5.894   5.922
 5975TIP3   OH217867   1.454   4.478   4.619
 5975TIP3    H117868   1.488   4.563   4.592
 5975TIP3    H217869   1.395   4.496   4.691
 5976TIP3   OH217870   2.416   6.747   1.851
 5976TIP3    H117871   2.474   6.748   1.775
 5976TIP3    H217872   2.419   6.656   1.882
 5977TIP3   OH217873   7.258   4.591   5.304
 5977TIP3    H117874   7.215   4.615   5.221
 5977TIP3    H217875   7.186   4.583   5.366
 5978TIP3   OH217876   6.630   5.297   4.488
 5978TIP3    H117877   6.566   5.368   4.496
 5978TIP3    H217878   6.600   5.230   4.549
 5979TIP3   OH217879   6.911   5.439   1.659
 5979TIP3    H117880   6.918   5.491   1.740
 5979TIP3    H217881   6.819   5.445   1.634
 5980TIP3   OH217882   6.284   1.562   6.616
 5980TIP3    H117883   6.349   1.523   6.675
 5980TIP3    H217884   6.201   1.553   6.664
 5981TIP3   OH217885   1.040   6.178   3.339
 5981TIP3    H117886   1.018   6.156   3.430
 5981TIP3    H217887   0.997   6.111   3.287
 5982TIP3   OH217888   0.226   1.402   3.532
 5982TIP3    H117889   0.263   1.461   3.466
 5982TIP3    H217890   0.301   1.374   3.584
 5983TIP3   OH217891   8.105   4.663   2.254
 5983TIP3    H117892   8.184   4.616   2.228
 5983TIP3    H217893   8.120   4.754   2.226
 5984TIP3   OH217894   7.505   7.303   2.071
 5984TIP3    H117895   7.481   7.210   2.065
 5984TIP3    H217896   7.429   7.345   2.111
 5985TIP3   OH217897   4.621   3.457   5.730
 5985TIP3    H117898   4.540   3.504   5.748
 5985TIP3    H217899   4.642   3.412   5.813
 5986TIP3   OH217900   0.675   5.733   4.961
 5986TIP3    H117901   0.725   5.805   4.999
 5986TIP3    H217902   0.731   5.656   4.973
 5987TIP3   OH217903   6.885   7.115   5.721
 5987TIP3    H117904   6.943   7.177   5.765
 5987TIP3    H217905   6.812   7.103   5.781
 5988TIP3   OH217906   4.171   2.376   2.192
 5988TIP3    H117907   4.119   2.336   2.261
 5988TIP3    H217908   4.144   2.330   2.112
 5989TIP3   OH217909   5.550   0.367   4.349
 5989TIP3    H117910   5.572   0.323   4.431
 5989TIP3    H217911   5.634   0.391   4.310
 5990TIP3   OH217912   7.587   4.695   2.693
 5990TIP3    H117913   7.670   4.725   2.730
 5990TIP3    H217914   7.580   4.740   2.610
 5991TIP3   OH217915   3.572   5.918   1.960
 5991TIP3    H117916   3.528   5.868   1.891
 5991TIP3    H217917   3.583   5.856   2.032
 5992TIP3   OH217918   5.275   5.810   6.415
 5992TIP3    H117919   5.332   5.887   6.408
 5992TIP3    H217920   5.196   5.841   6.459
 5993TIP3   OH217921   2.783   7.806   5.881
 5993TIP3    H117922   2.789   7.717   5.917
 5993TIP3    H217923   2.766   7.793   5.788
 5994TIP3   OH217924   6.672   3.583   1.023
 5994TIP3    H117925   6.700   3.666   0.985
 5994TIP3    H217926   6.601   3.553   0.965
 5995TIP3   OH217927   3.465   4.496   0.188
 5995TIP3    H117928   3.395   4.442   0.154
 5995TIP3    H217929   3.520   4.436   0.239
 5996TIP3   OH217930   1.758   2.187   5.776
 5996TIP3    H117931   1.853   2.199   5.781
 5996TIP3    H217932   1.742   2.154   5.688
 5997TIP3   OH217933   7.777   4.830   3.494
 5997TIP3    H117934   7.840   4.787   3.437
 5997TIP3    H217935   7.817   4.827   3.581
 5998TIP3   OH217936   1.784   1.952   6.235
 5998TIP3    H117937   1.823   1.908   6.159
 5998TIP3    H217938   1.854   1.956   6.300
 5999TIP3   OH217939   7.255   7.751   2.449
 5999TIP3    H117940   7.265   7.775   2.357
 5999TIP3    H217941   7.192   7.679   2.448
 6000TIP3   OH217942   0.472   0.971   3.325
 6000TIP3    H117943   0.487   0.997   3.416
 6000TIP3    H217944   0.559   0.949   3.292
 6001TIP3   OH217945   3.580   5.128   4.667
 6001TIP3    H117946   3.504   5.147   4.612
 6001TIP3    H217947   3.646   5.192   4.641
 6002TIP3   OH217948   3.606   5.816   0.817
 6002TIP3    H117949   3.675   5.779   0.762
 6002TIP3    H217950   3.561   5.878   0.760
 6003TIP3   OH217951   6.497   3.221   3.732
 6003TIP3    H117952   6.583   3.179   3.732
 6003TIP3    H217953   6.449   3.180   3.804
 6004TIP3   OH217954   6.490   4.471   0.435
 6004TIP3    H117955   6.398   4.448   0.426
 6004TIP3    H217956   6.531   4.438   0.354
 6005TIP3   OH217957   5.231   7.155   1.420
 6005TIP3    H117958   5.277   7.176   1.338
 6005TIP3    H217959   5.145   7.125   1.392
 6006TIP3   OH217960   2.472  -0.011   0.728
 6006TIP3    H117961   2.450  -0.020   0.635
 6006TIP3    H217962   2.565  -0.032   0.733
 6007TIP3   OH217963   3.085   6.505   1.883
 6007TIP3    H117964   3.046   6.589   1.858
 6007TIP3    H217965   3.066   6.448   1.809
 6008TIP3   OH217966   1.706   6.893   1.253
 6008TIP3    H117967   1.743   6.810   1.223
 6008TIP3    H217968   1.770   6.926   1.316
 6009TIP3   OH217969   7.025   7.599   5.596
 6009TIP3    H117970   7.076   7.543   5.655
 6009TIP3    H217971   6.999   7.674   5.650
 6010TIP3   OH217972   8.302   5.895   3.626
 6010TIP3    H117973   8.318   5.834   3.554
 6010TIP3    H217974   8.219   5.938   3.603
 6011TIP3   OH217975   0.420   5.152   6.223
 6011TIP3    H117976   0.509   5.181   6.203
 6011TIP3    H217977   0.427   5.111   6.309
 6012TIP3   OH217978   2.345   7.012   5.200
 6012TIP3    H117979   2.420   6.981   5.251
 6012TIP3    H217980   2.274   6.953   5.223
 6013TIP3   OH217981   6.189   4.772   2.082
 6013TIP3    H117982   6.201   4.686   2.122
 6013TIP3    H217983   6.222   4.763   1.993
 6014TIP3   OH217984   5.487   4.374   2.728
 6014TIP3    H117985   5.410   4.422   2.696
 6014TIP3    H217986   5.490   4.295   2.674
 6015TIP3   OH217987   6.620   6.489   4.894
 6015TIP3    H117988   6.641   6.576   4.861
 6015TIP3    H217989   6.698   6.462   4.942
 6016TIP3   OH217990   3.307   3.535   4.831
 6016TIP3    H117991   3.229   3.590   4.826
 6016TIP3    H217992   3.378   3.596   4.852
 6017TIP3   OH217993   6.898   2.373   6.091
 6017TIP3    H117994   6.841   2.447   6.071
 6017TIP3    H217995   6.887   2.358   6.185
 6018TIP3   OH217996   8.314   5.337   6.314
 6018TIP3    H117997   8.332   5.277   6.387
 6018TIP3    H217998   8.317   5.281   6.236
 6019TIP3   OH217999   2.001   0.928   0.429
 6019TIP3    H118000   1.979   1.002   0.485
 6019TIP3    H218001   2.095   0.916   0.442
 6020TIP3   OH218002   4.777   1.057   6.305
 6020TIP3    H118003   4.814   1.145   6.303
 6020TIP3    H218004   4.712   1.057   6.235
 6021TIP3   OH218005   4.955   1.601   3.644
 6021TIP3    H118006   4.951   1.507   3.624
 6021TIP3    H218007   5.049   1.619   3.652
 6022TIP3   OH218008   1.513   0.050   0.655
 6022TIP3    H118009   1.477   0.121   0.602
 6022TIP3    H218010   1.441   0.025   0.713
 6023TIP3   OH218011   7.322   7.710   5.293
 6023TIP3    H118012   7.364   7.795   5.303
 6023TIP3    H218013   7.228   7.728   5.306
 6024TIP3   OH218014   1.514   5.605   0.895
 6024TIP3    H118015   1.579   5.642   0.955
 6024TIP3    H218016   1.538   5.513   0.888
 6025TIP3   OH218017   4.243   5.606   5.998
 6025TIP3    H118018   4.313   5.661   6.032
 6025TIP3    H218019   4.221   5.644   5.913
 6026TIP3   OH218020   7.830   3.630   1.267
 6026TIP3    H118021   7.784   3.547   1.256
 6026TIP3    H218022   7.762   3.696   1.262
 6027TIP3   OH218023   4.346   0.731   0.283
 6027TIP3    H118024   4.361   0.725   0.377
 6027TIP3    H218025   4.254   0.710   0.271
 6028TIP3   OH218026   8.098   6.012   3.502
 6028TIP3    H118027   8.082   6.097   3.542
 6028TIP3    H218028   8.012   5.983   3.473
 6029TIP3   OH218029   1.477   6.553   5.083
 6029TIP3    H118030   1.562   6.509   5.077
 6029TIP3    H218031   1.454   6.547   5.176
 6030TIP3   OH218032   4.507   1.097   4.670
 6030TIP3    H118033   4.531   1.005   4.677
 6030TIP3    H218034   4.464   1.104   4.584
 6031TIP3   OH218035   7.966   3.152   3.676
 6031TIP3    H118036   7.999   3.171   3.764
 6031TIP3    H218037   7.937   3.061   3.680
 6032TIP3   OH218038   3.035   0.074   3.583
 6032TIP3    H118039   2.998   0.037   3.503
 6032TIP3    H218040   3.022   0.169   3.574
 6033TIP3   OH218041   6.200   6.463   0.494
 6033TIP3    H118042   6.115   6.428   0.523
 6033TIP3    H218043   6.263   6.427   0.556
 6034TIP3   OH218044   0.275   2.663   3.977
 6034TIP3    H118045   0.284   2.576   4.014
 6034TIP3    H218046   0.209   2.706   4.032
 6035TIP3   OH218047   2.953   0.267   2.477
 6035TIP3    H118048   2.891   0.337   2.498
 6035TIP3    H218049   2.909   0.187   2.506
 6036TIP3   OH218050   4.309   5.588   1.655
 6036TIP3    H118051   4.301   5.508   1.603
 6036TIP3    H218052   4.332   5.656   1.591
 6037TIP3   OH218053   2.330   1.967   5.875
 6037TIP3    H118054   2.308   2.023   5.949
 6037TIP3    H218055   2.401   2.012   5.830
 6038TIP3   OH218056   7.785   7.323   6.609
 6038TIP3    H118057   7.792   7.229   6.589
 6038TIP3    H218058   7.784   7.326   6.705
 6039TIP3   OH218059   3.355   2.094   3.426
 6039TIP3    H118060   3.341   2.003   3.398
 6039TIP3    H218061   3.432   2.123   3.377
 6040TIP3   OH218062   0.730   5.264   0.325
 6040TIP3    H118063   0.751   5.232   0.237
 6040TIP3    H218064   0.661   5.328   0.311
 6041TIP3   OH218065   1.929   5.767   4.202
 6041TIP3    H118066   1.907   5.683   4.243
 6041TIP3    H218067   1.934   5.829   4.275
 6042TIP3   OH218068   7.529   4.552   4.510
 6042TIP3    H118069   7.449   4.582   4.468
 6042TIP3    H218070   7.596   4.562   4.443
 6043TIP3   OH218071   1.816   1.012   1.080
 6043TIP3    H118072   1.728   0.973   1.080
 6043TIP3    H218073   1.868   0.951   1.027
 6044TIP3   OH218074   0.558   2.519   5.216
 6044TIP3    H118075   0.645   2.538   5.251
 6044TIP3    H218076   0.565   2.429   5.183
 6045TIP3   OH218077   7.411   5.449   3.812
 6045TIP3    H118078   7.423   5.407   3.897
 6045TIP3    H218079   7.428   5.379   3.748
 6046TIP3   OH218080   0.630   4.562   5.770
 6046TIP3    H118081   0.669   4.572   5.684
 6046TIP3    H218082   0.548   4.612   5.766
 6047TIP3   OH218083   8.060   2.150   2.697
 6047TIP3    H118084   8.118   2.105   2.758
 6047TIP3    H218085   8.081   2.243   2.707
 6048TIP3   OH218086   3.122  -0.053   2.463
 6048TIP3    H118087   3.026  -0.056   2.465
 6048TIP3    H218088   3.143   0.039   2.477
 6049TIP3   OH218089   2.866   0.933   2.456
 6049TIP3    H118090   2.800   0.961   2.393
 6049TIP3    H218091   2.945   0.922   2.404
 6050TIP3   OH218092   6.989   7.603   2.896
 6050TIP3    H118093   6.912   7.657   2.877
 6050TIP3    H218094   7.033   7.593   2.812
 6051TIP3   OH218095   0.310   3.204   4.139
 6051TIP3    H118096   0.347   3.270   4.080
 6051TIP3    H218097   0.238   3.165   4.089
 6052TIP3   OH218098   0.029   0.672   3.288
 6052TIP3    H118099   0.024   0.653   3.194
 6052TIP3    H218100   0.121   0.693   3.304
 6053TIP3   OH218101   5.502   1.775   1.647
 6053TIP3    H118102   5.542   1.858   1.620
 6053TIP3    H218103   5.408   1.791   1.642
 6054TIP3   OH218104   6.961   6.733   6.324
 6054TIP3    H118105   6.922   6.817   6.298
 6054TIP3    H218106   6.894   6.668   6.302
 6055TIP3   OH218107   6.104   4.980   0.027
 6055TIP3    H118108   6.012   4.996   0.010
 6055TIP3    H218109   6.121   4.893  -0.011
 6056TIP3   OH218110   0.638   2.343   4.220
 6056TIP3    H118111   0.547   2.374   4.221
 6056TIP3    H218112   0.665   2.346   4.311
 6057TIP3   OH218113   6.585   7.791   2.107
 6057TIP3    H118114   6.509   7.841   2.079
 6057TIP3    H218115   6.643   7.856   2.147
 6058TIP3   OH218116   3.967   0.376   4.538
 6058TIP3    H118117   3.970   0.438   4.465
 6058TIP3    H218118   4.040   0.316   4.522
 6059TIP3   OH218119   1.916   4.411   6.257
 6059TIP3    H118120   1.864   4.485   6.225
 6059TIP3    H218121   1.861   4.371   6.324
 6060TIP3   OH218122   4.232   3.266   2.302
 6060TIP3    H118123   4.289   3.190   2.287
 6060TIP3    H218124   4.274   3.314   2.373
 6061TIP3   OH218125   0.534   3.601   5.814
 6061TIP3    H118126   0.450   3.565   5.787
 6061TIP3    H218127   0.528   3.608   5.909
 6062TIP3   OH218128   5.131   0.379   5.481
 6062TIP3    H118129   5.197   0.437   5.517
 6062TIP3    H218130   5.049   0.405   5.523
 6063TIP3   OH218131   3.537   5.755   6.426
 6063TIP3    H118132   3.493   5.705   6.357
 6063TIP3    H218133   3.520   5.847   6.403
 6064TIP3   OH218134   0.591   4.371   4.002
 6064TIP3    H118135   0.560   4.283   4.023
 6064TIP3    H218136   0.617   4.367   3.910
 6065TIP3   OH218137   0.745   2.578   5.509
 6065TIP3    H118138   0.773   2.487   5.498
 6065TIP3    H218139   0.798   2.627   5.446
 6066TIP3   OH218140   8.203   6.749   3.057
 6066TIP3    H118141   8.173   6.831   3.018
 6066TIP3    H218142   8.242   6.700   2.985
 6067TIP3   OH218143   1.342   2.591   2.372
 6067TIP3    H118144   1.413   2.538   2.409
 6067TIP3    H218145   1.275   2.527   2.347
 6068TIP3   OH218146   0.147   5.163   1.366
 6068TIP3    H118147   0.239   5.180   1.386
 6068TIP3    H218148   0.103   5.246   1.383
 6069TIP3   OH218149   7.171   2.783   1.964
 6069TIP3    H118150   7.089   2.796   1.916
 6069TIP3    H218151   7.202   2.697   1.937
 6070TIP3   OH218152   7.134   6.146   5.201
 6070TIP3    H118153   7.145   6.059   5.240
 6070TIP3    H218154   7.222   6.171   5.172
 6071TIP3   OH218155   4.075   5.046   6.075
 6071TIP3    H118156   4.170   5.039   6.080
 6071TIP3    H218157   4.059   5.126   6.025
 6072TIP3   OH218158   8.064   3.950   1.893
 6072TIP3    H118159   8.121   4.026   1.901
 6072TIP3    H218160   7.976   3.983   1.910
 6073TIP3   OH218161   0.093   4.070   1.449
 6073TIP3    H118162   0.136   4.149   1.484
 6073TIP3    H218163   0.010   4.065   1.496
 6074TIP3   OH218164   7.938   4.703   5.394
 6074TIP3    H118165   8.021   4.731   5.356
 6074TIP3    H218166   7.946   4.724   5.487
 6075TIP3   OH218167   2.303   0.457   5.355
 6075TIP3    H118168   2.209   0.474   5.347
 6075TIP3    H218169   2.327   0.415   5.272
 6076TIP3   OH218170   1.209   3.283   0.159
 6076TIP3    H118171   1.194   3.229   0.081
 6076TIP3    H218172   1.230   3.370   0.124
 6077TIP3   OH218173   7.799   1.899   3.490
 6077TIP3    H118174   7.798   1.931   3.400
 6077TIP3    H218175   7.808   1.804   3.482
 6078TIP3   OH218176   4.188   7.191   4.058
 6078TIP3    H118177   4.228   7.212   3.974
 6078TIP3    H218178   4.246   7.124   4.096
 6079TIP3   OH218179   5.254   7.052   0.025
 6079TIP3    H118180   5.269   7.114  -0.047
 6079TIP3    H218181   5.283   7.099   0.103
 6080TIP3   OH218182   4.439   6.162   3.456
 6080TIP3    H118183   4.378   6.101   3.416
 6080TIP3    H218184   4.496   6.190   3.385
 6081TIP3   OH218185   6.900   6.160   4.691
 6081TIP3    H118186   6.973   6.138   4.749
 6081TIP3    H218187   6.823   6.156   4.747
 6082TIP3   OH218188   7.770   0.769   6.236
 6082TIP3    H118189   7.857   0.793   6.203
 6082TIP3    H218190   7.715   0.844   6.215
 6083TIP3   OH218191   0.155   0.117   2.793
 6083TIP3    H118192   0.156   0.198   2.845
 6083TIP3    H218193   0.125   0.144   2.707
 6084TIP3   OH218194   4.847   4.354   6.034
 6084TIP3    H118195   4.836   4.393   5.948
 6084TIP3    H218196   4.776   4.390   6.086
 6085TIP3   OH218197   4.925   0.803   3.129
 6085TIP3    H118198   4.877   0.871   3.176
 6085TIP3    H218199   5.012   0.840   3.115
 6086TIP3   OH218200   0.473   5.432   5.992
 6086TIP3    H118201   0.507   5.521   5.981
 6086TIP3    H218202   0.432   5.433   6.078
 6087TIP3   OH218203   0.076   5.461   3.806
 6087TIP3    H118204   0.075   5.365   3.799
 6087TIP3    H218205   0.129   5.479   3.883
 6088TIP3   OH218206   2.287   6.158   2.045
 6088TIP3    H118207   2.363   6.197   2.002
 6088TIP3    H218208   2.248   6.229   2.096
 6089TIP3   OH218209   0.304   2.384   3.332
 6089TIP3    H118210   0.318   2.382   3.237
 6089TIP3    H218211   0.212   2.409   3.342
 6090TIP3   OH218212   2.822   3.175   5.805
 6090TIP3    H118213   2.823   3.180   5.901
 6090TIP3    H218214   2.855   3.261   5.777
 6091TIP3   OH218215   2.813   1.651   5.621
 6091TIP3    H118216   2.862   1.590   5.676
 6091TIP3    H218217   2.722   1.623   5.630
 6092TIP3   OH218218   4.204   0.503   5.185
 6092TIP3    H118219   4.187   0.595   5.168
 6092TIP3    H218220   4.207   0.463   5.098
 6093TIP3   OH218221   6.517   4.185   4.626
 6093TIP3    H118222   6.428   4.152   4.615
 6093TIP3    H218223   6.563   4.155   4.548
 6094TIP3   OH218224   4.346   4.293   4.843
 6094TIP3    H118225   4.339   4.234   4.917
 6094TIP3    H218226   4.389   4.241   4.775
 6095TIP3   OH218227   2.820   2.715   1.742
 6095TIP3    H118228   2.767   2.687   1.667
 6095TIP3    H218229   2.864   2.794   1.712
 6096TIP3   OH218230   0.189   0.138   5.757
 6096TIP3    H118231   0.264   0.084   5.784
 6096TIP3    H218232   0.116   0.106   5.810
 6097TIP3   OH218233   1.575   5.978   0.837
 6097TIP3    H118234   1.644   5.991   0.903
 6097TIP3    H218235   1.551   6.067   0.810
 6098TIP3   OH218236   3.987   2.240   2.011
 6098TIP3    H118237   3.892   2.232   2.005
 6098TIP3    H218238   4.020   2.174   1.951
 6099TIP3   OH218239   1.426   7.030   5.634
 6099TIP3    H118240   1.351   7.080   5.600
 6099TIP3    H218241   1.416   7.034   5.729
 6100TIP3   OH218242   5.481   6.107   0.202
 6100TIP3    H118243   5.441   6.114   0.288
 6100TIP3    H218244   5.409   6.126   0.141
 6101TIP3   OH218245   5.617   2.058   4.897
 6101TIP3    H118246   5.526   2.088   4.894
 6101TIP3    H218247   5.669   2.137   4.885
 6102TIP3   OH218248   2.140   7.549   6.712
 6102TIP3    H118249   2.069   7.491   6.741
 6102TIP3    H218250   2.198   7.555   6.787
 6103TIP3   OH218251   2.441   5.087   1.483
 6103TIP3    H118252   2.440   5.170   1.529
 6103TIP3    H218253   2.426   5.110   1.391
 6104TIP3   OH218254   5.545   0.294   6.407
 6104TIP3    H118255   5.478   0.356   6.435
 6104TIP3    H218256   5.496   0.218   6.375
 6105TIP3   OH218257   0.682   3.590   4.602
 6105TIP3    H118258   0.687   3.670   4.655
 6105TIP3    H218259   0.698   3.519   4.664
 6106TIP3   OH218260   5.731   3.841   0.315
 6106TIP3    H118261   5.745   3.837   0.221
 6106TIP3    H218262   5.638   3.865   0.324
 6107TIP3   OH218263   5.907   7.314   1.262
 6107TIP3    H118264   5.944   7.396   1.230
 6107TIP3    H218265   5.902   7.325   1.357
 6108TIP3   OH218266   5.778   1.999   3.854
 6108TIP3    H118267   5.857   2.003   3.800
 6108TIP3    H218268   5.731   1.922   3.820
 6109TIP3   OH218269   0.227   3.696   1.512
 6109TIP3    H118270   0.223   3.729   1.422
 6109TIP3    H218271   0.172   3.757   1.562
 6110TIP3   OH218272   8.006   5.551   0.594
 6110TIP3    H118273   7.996   5.606   0.517
 6110TIP3    H218274   8.046   5.470   0.561
 6111TIP3   OH218275   6.081   6.991   3.573
 6111TIP3    H118276   6.032   6.972   3.493
 6111TIP3    H218277   6.022   6.966   3.644
 6112TIP3   OH218278   0.617   7.476   5.535
 6112TIP3    H118279   0.546   7.437   5.586
 6112TIP3    H218280   0.645   7.552   5.586
 6113TIP3   OH218281   3.365   5.925   2.782
 6113TIP3    H118282   3.359   5.934   2.687
 6113TIP3    H218283   3.457   5.904   2.799
 6114TIP3   OH218284   0.151   6.412   6.475
 6114TIP3    H118285   0.069   6.433   6.431
 6114TIP3    H218286   0.218   6.459   6.426
 6115TIP3   OH218287   2.559   0.743   4.546
 6115TIP3    H118288   2.488   0.681   4.562
 6115TIP3    H218289   2.624   0.693   4.497
 6116TIP3   OH218290   0.756   0.807   3.196
 6116TIP3    H118291   0.754   0.849   3.281
 6116TIP3    H218292   0.828   0.744   3.201
 6117TIP3   OH218293   4.961   7.746   2.175
 6117TIP3    H118294   4.953   7.796   2.256
 6117TIP3    H218295   4.901   7.672   2.186
 6118TIP3   OH218296   7.606   2.440   1.212
 6118TIP3    H118297   7.575   2.415   1.125
 6118TIP3    H218298   7.672   2.375   1.234
 6119TIP3   OH218299   3.930   0.356   5.708
 6119TIP3    H118300   4.014   0.326   5.743
 6119TIP3    H218301   3.935   0.338   5.614
 6120TIP3   OH218302   5.714   0.580   5.913
 6120TIP3    H118303   5.643   0.636   5.942
 6120TIP3    H218304   5.679   0.491   5.919
 6121TIP3   OH218305   6.910   1.890   2.115
 6121TIP3    H118306   6.934   1.855   2.029
 6121TIP3    H218307   6.974   1.959   2.131
 6122TIP3   OH218308   0.513   4.774   5.446
 6122TIP3    H118309   0.497   4.701   5.386
 6122TIP3    H218310   0.465   4.847   5.407
 6123TIP3   OH218311   6.228   0.964   0.390
 6123TIP3    H118312   6.291   1.034   0.406
 6123TIP3    H218313   6.170   0.967   0.466
 6124TIP3   OH218314   2.837   2.128   5.370
 6124TIP3    H118315   2.874   2.113   5.283
 6124TIP3    H218316   2.809   2.041   5.400
 6125TIP3   OH218317   6.430   5.467   4.487
 6125TIP3    H118318   6.389   5.448   4.402
 6125TIP3    H218319   6.357   5.488   4.545
 6126TIP3   OH218320   7.752   0.290   4.682
 6126TIP3    H118321   7.830   0.277   4.737
 6126TIP3    H218322   7.787   0.322   4.599
 6127TIP3   OH218323   0.977   2.922   4.403
 6127TIP3    H118324   0.889   2.901   4.371
 6127TIP3    H218325   0.980   3.018   4.401
 6128TIP3   OH218326   6.459   4.684   6.450
 6128TIP3    H118327   6.430   4.688   6.541
 6128TIP3    H218328   6.551   4.659   6.456
 6129TIP3   OH218329   4.167   7.738   4.312
 6129TIP3    H118330   4.208   7.657   4.283
 6129TIP3    H218331   4.180   7.798   4.238
 6130TIP3   OH218332   2.282   7.583   2.292
 6130TIP3    H118333   2.316   7.516   2.233
 6130TIP3    H218334   2.220   7.537   2.348
 6131TIP3   OH218335   4.974   6.792   5.253
 6131TIP3    H118336   4.929   6.749   5.326
 6131TIP3    H218337   4.955   6.885   5.265
 6132TIP3   OH218338   6.327   7.838   5.128
 6132TIP3    H118339   6.274   7.759   5.123
 6132TIP3    H218340   6.311   7.873   5.216
 6133TIP3   OH218341   3.031   0.596   1.803
 6133TIP3    H118342   2.949   0.634   1.771
 6133TIP3    H218343   3.036   0.622   1.895
 6134TIP3   OH218344   0.300   5.427   2.654
 6134TIP3    H118345   0.389   5.395   2.637
 6134TIP3    H218346   0.308   5.474   2.737
 6135TIP3   OH218347   5.467   7.571   0.236
 6135TIP3    H118348   5.553   7.585   0.196
 6135TIP3    H218349   5.488   7.527   0.319
 6136TIP3   OH218350   7.607   5.233   4.588
 6136TIP3    H118351   7.512   5.229   4.573
 6136TIP3    H218352   7.643   5.257   4.503
 6137TIP3   OH218353   0.129   7.424   3.398
 6137TIP3    H118354   0.071   7.497   3.374
 6137TIP3    H218355   0.073   7.365   3.449
 6138TIP3   OH218356   4.509   2.775   1.291
 6138TIP3    H118357   4.454   2.704   1.258
 6138TIP3    H218358   4.450   2.850   1.300
 6139TIP3   OH218359   4.283   2.985   0.691
 6139TIP3    H118360   4.206   2.931   0.711
 6139TIP3    H218361   4.251   3.075   0.696
 6140TIP3   OH218362   5.040   7.451   3.447
 6140TIP3    H118363   5.088   7.412   3.520
 6140TIP3    H218364   4.955   7.476   3.485
 6141TIP3   OH218365   4.169   3.257   0.764
 6141TIP3    H118366   4.116   3.306   0.827
 6141TIP3    H218367   4.256   3.297   0.770
 6142TIP3   OH218368   1.606   5.001   6.523
 6142TIP3    H118369   1.681   4.942   6.523
 6142TIP3    H218370   1.536   4.953   6.567
 6143TIP3   OH218371   4.522   1.267   5.536
 6143TIP3    H118372   4.592   1.321   5.571
 6143TIP3    H218373   4.459   1.260   5.607
 6144TIP3   OH218374   0.637   1.866   0.416
 6144TIP3    H118375   0.665   1.805   0.348
 6144TIP3    H218376   0.638   1.815   0.497
 6145TIP3   OH218377   6.298   5.365   6.253
 6145TIP3    H118378   6.257   5.401   6.332
 6145TIP3    H218379   6.292   5.271   6.264
 6146TIP3   OH218380   4.964   0.975   6.478
 6146TIP3    H118381   5.024   1.040   6.441
 6146TIP3    H218382   4.882   0.988   6.430
 6147TIP3   OH218383   4.144   2.577   1.906
 6147TIP3    H118384   4.192   2.656   1.881
 6147TIP3    H218385   4.115   2.594   1.996
 6148TIP3   OH218386   3.841   6.918   6.226
 6148TIP3    H118387   3.826   6.895   6.135
 6148TIP3    H218388   3.907   6.856   6.257
 6149TIP3   OH218389   0.579   1.345   1.201
 6149TIP3    H118390   0.597   1.425   1.251
 6149TIP3    H218391   0.558   1.375   1.113
 6150TIP3   OH218392   3.389   7.328   1.975
 6150TIP3    H118393   3.415   7.236   1.970
 6150TIP3    H218394   3.448   7.366   2.040
 6151TIP3   OH218395   0.936   4.069   4.447
 6151TIP3    H118396   0.952   4.089   4.539
 6151TIP3    H218397   0.879   4.140   4.418
 6152TIP3   OH218398   2.233   3.734   0.306
 6152TIP3    H118399   2.287   3.812   0.316
 6152TIP3    H218400   2.146   3.761   0.337
 6153TIP3   OH218401   7.771   3.800   0.994
 6153TIP3    H118402   7.720   3.774   1.071
 6153TIP3    H218403   7.861   3.773   1.016
 6154TIP3   OH218404   5.338   2.595   2.766
 6154TIP3    H118405   5.302   2.631   2.847
 6154TIP3    H218406   5.291   2.641   2.696
 6155TIP3   OH218407   5.704   7.665   3.900
 6155TIP3    H118408   5.654   7.699   3.825
 6155TIP3    H218409   5.669   7.576   3.913
 6156TIP3   OH218410   5.289   0.860   1.116
 6156TIP3    H118411   5.215   0.799   1.121
 6156TIP3    H218412   5.260   0.929   1.057
 6157TIP3   OH218413   3.661   2.113   4.905
 6157TIP3    H118414   3.619   2.091   4.989
 6157TIP3    H218415   3.750   2.078   4.913
 6158TIP3   OH218416   3.118   1.566   2.967
 6158TIP3    H118417   3.146   1.601   3.052
 6158TIP3    H218418   3.160   1.480   2.962
 6159TIP3   OH218419   0.948   2.422   1.585
 6159TIP3    H118420   0.853   2.428   1.569
 6159TIP3    H218421   0.979   2.360   1.519
 6160TIP3   OH218422   5.110   6.960   0.738
 6160TIP3    H118423   5.093   6.886   0.681
 6160TIP3    H218424   5.063   6.939   0.819
 6161TIP3   OH218425   8.159   4.100   4.857
 6161TIP3    H118426   8.209   4.159   4.913
 6161TIP3    H218427   8.225   4.049   4.810
 6162TIP3   OH218428   6.579   5.403   5.118
 6162TIP3    H118429   6.655   5.345   5.125
 6162TIP3    H218430   6.573   5.423   5.024
 6163TIP3   OH218431   2.644   4.036   1.276
 6163TIP3    H118432   2.585   4.046   1.200
 6163TIP3    H218433   2.587   4.046   1.352
 6164TIP3   OH218434   6.150   0.246   4.576
 6164TIP3    H118435   6.237   0.224   4.543
 6164TIP3    H218436   6.167   0.296   4.656
 6165TIP3   OH218437   3.140   0.382   4.564
 6165TIP3    H118438   3.224   0.417   4.596
 6165TIP3    H218439   3.082   0.387   4.639
 6166TIP3   OH218440   6.824   2.086   1.143
 6166TIP3    H118441   6.859   2.075   1.231
 6166TIP3    H218442   6.891   2.048   1.086
 6167TIP3   OH218443   5.689   4.413   1.174
 6167TIP3    H118444   5.731   4.442   1.093
 6167TIP3    H218445   5.637   4.488   1.203
 6168TIP3   OH218446   8.302   3.207   3.009
 6168TIP3    H118447   8.244   3.184   3.081
 6168TIP3    H218448   8.390   3.197   3.044
 6169TIP3   OH218449   3.906   2.316   2.292
 6169TIP3    H118450   3.884   2.279   2.377
 6169TIP3    H218451   3.935   2.241   2.239
 6170TIP3   OH218452   0.438   2.665   3.062
 6170TIP3    H118453   0.424   2.739   3.003
 6170TIP3    H218454   0.447   2.589   3.004
 6171TIP3   OH218455   4.695   4.122   5.623
 6171TIP3    H118456   4.760   4.163   5.679
 6171TIP3    H218457   4.711   4.158   5.536
 6172TIP3   OH218458   4.339   4.680   1.997
 6172TIP3    H118459   4.287   4.758   2.016
 6172TIP3    H218460   4.430   4.710   2.004
 6173TIP3   OH218461   7.525   0.968   4.938
 6173TIP3    H118462   7.443   1.017   4.936
 6173TIP3    H218463   7.509   0.892   4.882
 6174TIP3   OH218464   3.091   7.450   4.360
 6174TIP3    H118465   3.041   7.370   4.344
 6174TIP3    H218466   3.141   7.432   4.439
 6175TIP3   OH218467   0.254   2.731   5.060
 6175TIP3    H118468   0.227   2.655   5.111
 6175TIP3    H218469   0.199   2.803   5.092
 6176TIP3   OH218470   8.132   0.772   4.490
 6176TIP3    H118471   8.093   0.786   4.576
 6176TIP3    H218472   8.129   0.677   4.478
 6177TIP3   OH218473   5.167   6.752   2.042
 6177TIP3    H118474   5.154   6.797   1.958
 6177TIP3    H218475   5.188   6.662   2.017
 6178TIP3   OH218476   2.641   6.607   3.503
 6178TIP3    H118477   2.667   6.669   3.572
 6178TIP3    H218478   2.555   6.576   3.530
 6179TIP3   OH218479   8.170   2.480   0.999
 6179TIP3    H118480   8.142   2.562   1.040
 6179TIP3    H218481   8.141   2.411   1.059
 6180TIP3   OH218482   5.089   2.561   3.362
 6180TIP3    H118483   5.172   2.534   3.323
 6180TIP3    H218484   5.025   2.497   3.330
 6181TIP3   OH218485   7.059   3.899   4.494
 6181TIP3    H118486   7.033   3.807   4.487
 6181TIP3    H218487   7.010   3.932   4.570
 6182TIP3   OH218488   0.023   3.289   0.590
 6182TIP3    H118489   0.065   3.263   0.508
 6182TIP3    H218490   0.043   3.382   0.598
 6183TIP3   OH218491   2.412   3.438   2.999
 6183TIP3    H118492   2.359   3.361   2.980
 6183TIP3    H218493   2.490   3.428   2.945
 6184TIP3   OH218494   0.316   6.982   6.383
 6184TIP3    H118495   0.238   6.955   6.433
 6184TIP3    H218496   0.389   6.942   6.430
 6185TIP3   OH218497   1.182   2.387   4.522
 6185TIP3    H118498   1.148   2.474   4.502
 6185TIP3    H218499   1.272   2.388   4.492
 6186TIP3   OH218500   3.407   5.047   2.821
 6186TIP3    H118501   3.465   5.038   2.896
 6186TIP3    H218502   3.355   4.967   2.821
 6187TIP3   OH218503   4.229   0.928   6.659
 6187TIP3    H118504   4.280   0.876   6.722
 6187TIP3    H218505   4.295   0.979   6.612
 6188TIP3   OH218506   4.708   2.895   4.666
 6188TIP3    H118507   4.632   2.847   4.635
 6188TIP3    H218508   4.783   2.842   4.641
 6189TIP3   OH218509   5.459   3.027   4.026
 6189TIP3    H118510   5.410   3.052   4.104
 6189TIP3    H218511   5.440   3.096   3.963
 6190TIP3   OH218512   4.690   3.241   2.441
 6190TIP3    H118513   4.761   3.222   2.502
 6190TIP3    H218514   4.696   3.172   2.375
 6191TIP3   OH218515   1.293   5.695   1.671
 6191TIP3    H118516   1.309   5.612   1.625
 6191TIP3    H218517   1.304   5.762   1.604
 6192TIP3   OH218518   4.593   0.022   3.417
 6192TIP3    H118519   4.557   0.011   3.329
 6192TIP3    H218520   4.661  -0.046   3.424
 6193TIP3   OH218521   8.189   4.030   4.416
 6193TIP3    H118522   8.283   4.044   4.427
 6193TIP3    H218523   8.149   4.116   4.429
 6194TIP3   OH218524   6.092   4.696   6.514
 6194TIP3    H118525   6.145   4.776   6.507
 6194TIP3    H218526   6.155   4.625   6.503
 6195TIP3   OH218527   0.140   2.842   5.300
 6195TIP3    H118528   0.143   2.860   5.394
 6195TIP3    H218529   0.055   2.800   5.286
 6196TIP3   OH218530   1.087   2.597   6.698
 6196TIP3    H118531   1.056   2.521   6.749
 6196TIP3    H218532   1.180   2.579   6.684
 6197TIP3   OH218533   1.960   4.683   4.132
 6197TIP3    H118534   1.990   4.651   4.047
 6197TIP3    H218535   2.029   4.657   4.193
 6198TIP3   OH218536   5.962   1.059   1.903
 6198TIP3    H118537   5.930   1.119   1.970
 6198TIP3    H218538   6.014   0.995   1.952
 6199TIP3   OH218539   2.097   0.083   3.139
 6199TIP3    H118540   2.077   0.162   3.088
 6199TIP3    H218541   2.037   0.017   3.106
 6200TIP3   OH218542   8.092   1.794   0.207
 6200TIP3    H118543   8.037   1.750   0.272
 6200TIP3    H218544   8.072   1.750   0.125
 6201TIP3   OH218545   5.350   0.813   3.845
 6201TIP3    H118546   5.308   0.770   3.919
 6201TIP3    H218547   5.435   0.842   3.879
 6202TIP3   OH218548   6.042   1.205   0.485
 6202TIP3    H118549   5.953   1.180   0.461
 6202TIP3    H218550   6.064   1.150   0.560
 6203TIP3   OH218551   4.989   2.013   0.994
 6203TIP3    H118552   4.972   2.058   0.911
 6203TIP3    H218553   5.032   2.078   1.049
 6204TIP3   OH218554   0.197   6.396   2.976
 6204TIP3    H118555   0.287   6.403   2.946
 6204TIP3    H218556   0.202   6.344   3.056
 6205TIP3   OH218557   2.607   6.317   3.665
 6205TIP3    H118558   2.602   6.289   3.573
 6205TIP3    H218559   2.664   6.251   3.706
 6206TIP3   OH218560   7.391   0.621   1.108
 6206TIP3    H118561   7.330   0.640   1.180
 6206TIP3    H218562   7.427   0.706   1.085
 6207TIP3   OH218563   2.455   0.709   5.415
 6207TIP3    H118564   2.536   0.722   5.367
 6207TIP3    H218565   2.395   0.774   5.379
 6208TIP3   OH218566   4.328   4.938   5.992
 6208TIP3    H118567   4.270   4.862   5.987
 6208TIP3    H218568   4.407   4.905   6.034
 6209TIP3   OH218569   5.319   2.741   5.067
 6209TIP3    H118570   5.229   2.711   5.074
 6209TIP3    H218571   5.372   2.661   5.069
 6210TIP3   OH218572   0.459   3.648   0.948
 6210TIP3    H118573   0.474   3.555   0.964
 6210TIP3    H218574   0.368   3.653   0.919
 6211TIP3   OH218575   4.172   5.337   6.401
 6211TIP3    H118576   4.085   5.322   6.363
 6211TIP3    H218577   4.156   5.398   6.473
 6212TIP3   OH218578   5.153   0.755   6.461
 6212TIP3    H118579   5.114   0.709   6.387
 6212TIP3    H218580   5.081   0.808   6.496
 6213TIP3   OH218581   7.092   6.088   1.777
 6213TIP3    H118582   7.117   6.164   1.830
 6213TIP3    H218583   7.159   6.022   1.797
 6214TIP3   OH218584   3.972   0.717   2.108
 6214TIP3    H118585   4.003   0.726   2.018
 6214TIP3    H218586   4.019   0.785   2.156
 6215TIP3   OH218587   2.331   1.987   1.446
 6215TIP3    H118588   2.252   2.008   1.395
 6215TIP3    H218589   2.309   1.906   1.491
 6216TIP3   OH218590   5.421   1.039   5.716
 6216TIP3    H118591   5.380   1.007   5.636
 6216TIP3    H218592   5.389   0.980   5.785
 6217TIP3   OH218593   1.070   4.190   4.857
 6217TIP3    H118594   0.975   4.182   4.862
 6217TIP3    H218595   1.088   4.208   4.765
 6218TIP3   OH218596   2.936   2.381   5.910
 6218TIP3    H118597   2.917   2.341   5.995
 6218TIP3    H218598   2.985   2.460   5.932
 6219TIP3   OH218599   0.341   1.205   1.032
 6219TIP3    H118600   0.295   1.131   1.072
 6219TIP3    H218601   0.289   1.282   1.057
 6220TIP3   OH218602   4.749   3.260   1.790
 6220TIP3    H118603   4.702   3.247   1.872
 6220TIP3    H218604   4.803   3.182   1.781
 6221TIP3   OH218605   6.919   2.344   3.916
 6221TIP3    H118606   6.874   2.361   3.999
 6221TIP3    H218607   7.002   2.304   3.942
 6222TIP3   OH218608   6.449   0.924   4.270
 6222TIP3    H118609   6.393   0.889   4.340
 6222TIP3    H218610   6.400   1.000   4.238
 6223TIP3   OH218611   4.220   2.302   1.773
 6223TIP3    H118612   4.236   2.367   1.704
 6223TIP3    H218613   4.125   2.297   1.779
 6224TIP3   OH218614   6.850   1.022   1.325
 6224TIP3    H118615   6.797   0.953   1.284
 6224TIP3    H218616   6.787   1.087   1.354
 6225TIP3   OH218617   8.122   4.168   5.851
 6225TIP3    H118618   8.042   4.194   5.897
 6225TIP3    H218619   8.186   4.235   5.875
 6226TIP3   OH218620   2.420   3.657   0.504
 6226TIP3    H118621   2.457   3.743   0.526
 6226TIP3    H218622   2.326   3.666   0.525
 6227TIP3   OH218623   4.590   2.660   0.653
 6227TIP3    H118624   4.673   2.638   0.695
 6227TIP3    H218625   4.567   2.746   0.688
 6228TIP3   OH218626   7.346   4.184   5.811
 6228TIP3    H118627   7.412   4.121   5.785
 6228TIP3    H218628   7.338   4.173   5.906
 6229TIP3   OH218629   5.435   0.118   2.553
 6229TIP3    H118630   5.501   0.068   2.505
 6229TIP3    H218631   5.372   0.052   2.583
 6230TIP3   OH218632   2.978   6.329   0.852
 6230TIP3    H118633   3.010   6.239   0.850
 6230TIP3    H218634   3.055   6.382   0.831
 6231TIP3   OH218635   1.524   3.913   1.083
 6231TIP3    H118636   1.585   3.884   1.015
 6231TIP3    H218637   1.579   3.954   1.149
 6232TIP3   OH218638   5.684   6.598   6.571
 6232TIP3    H118639   5.758   6.559   6.525
 6232TIP3    H218640   5.683   6.689   6.543
 6233TIP3   OH218641   3.761   2.244   5.967
 6233TIP3    H118642   3.697   2.314   5.953
 6233TIP3    H218643   3.722   2.166   5.927
 6234TIP3   OH218644   0.103   1.887   1.147
 6234TIP3    H118645   0.041   1.923   1.084
 6234TIP3    H218646   0.051   1.829   1.203
 6235TIP3   OH218647   5.772   6.520   2.247
 6235TIP3    H118648   5.764   6.554   2.158
 6235TIP3    H218649   5.843   6.456   2.242
 6236TIP3   OH218650   2.388   4.998   0.382
 6236TIP3    H118651   2.420   5.064   0.443
 6236TIP3    H218652   2.457   4.931   0.381
 6237TIP3   OH218653   7.078   4.891   1.075
 6237TIP3    H118654   7.123   4.974   1.057
 6237TIP3    H218655   7.068   4.890   1.170
 6238TIP3   OH218656   5.989   4.367   0.145
 6238TIP3    H118657   6.049   4.343   0.074
 6238TIP3    H218658   5.982   4.287   0.198
 6239TIP3   OH218659   5.298   0.399   1.583
 6239TIP3    H118660   5.333   0.475   1.630
 6239TIP3    H218661   5.323   0.414   1.492
 6240TIP3   OH218662   1.356   0.315   5.590
 6240TIP3    H118663   1.409   0.344   5.517
 6240TIP3    H218664   1.315   0.234   5.560
 6241TIP3   OH218665   0.681   1.265   5.869
 6241TIP3    H118666   0.737   1.190   5.890
 6241TIP3    H218667   0.654   1.250   5.778
 6242TIP3   OH218668   3.310   1.020   4.628
 6242TIP3    H118669   3.239   1.074   4.593
 6242TIP3    H218670   3.332   1.062   4.712
 6243TIP3   OH218671   2.434   1.129   5.218
 6243TIP3    H118672   2.372   1.196   5.247
 6243TIP3    H218673   2.476   1.167   5.141
 6244TIP3   OH218674   2.400   2.650   1.305
 6244TIP3    H118675   2.413   2.584   1.372
 6244TIP3    H218676   2.480   2.703   1.307
 6245TIP3   OH218677   5.591   3.927   1.449
 6245TIP3    H118678   5.580   3.866   1.376
 6245TIP3    H218679   5.590   4.014   1.409
 6246TIP3   OH218680   4.533   4.162   3.981
 6246TIP3    H118681   4.624   4.139   4.001
 6246TIP3    H218682   4.497   4.084   3.940
 6247TIP3   OH218683   1.550   6.744   2.739
 6247TIP3    H118684   1.582   6.713   2.654
 6247TIP3    H218685   1.611   6.814   2.763
 6248TIP3   OH218686   1.054   6.190   2.719
 6248TIP3    H118687   1.128   6.168   2.662
 6248TIP3    H218688   1.093   6.242   2.790
 6249TIP3   OH218689   7.905   3.857   6.518
 6249TIP3    H118690   7.814   3.881   6.534
 6249TIP3    H218691   7.923   3.886   6.429
 6250TIP3   OH218692   1.619   6.233   3.684
 6250TIP3    H118693   1.598   6.215   3.592
 6250TIP3    H218694   1.710   6.263   3.681
 6251TIP3   OH218695   2.801   6.520   1.472
 6251TIP3    H118696   2.853   6.453   1.428
 6251TIP3    H218697   2.859   6.597   1.474
 6252TIP3   OH218698   0.643   4.850   1.105
 6252TIP3    H118699   0.626   4.768   1.059
 6252TIP3    H218700   0.649   4.916   1.036
 6253TIP3   OH218701   5.329   7.582   6.516
 6253TIP3    H118702   5.288   7.635   6.447
 6253TIP3    H218703   5.270   7.508   6.528
 6254TIP3   OH218704   0.377   3.600   1.770
 6254TIP3    H118705   0.334   3.637   1.693
 6254TIP3    H218706   0.307   3.588   1.834
 6255TIP3   OH218707   7.197   4.246   5.112
 6255TIP3    H118708   7.275   4.280   5.157
 6255TIP3    H218709   7.154   4.191   5.178
 6256TIP3   OH218710   5.365   6.714   0.181
 6256TIP3    H118711   5.374   6.629   0.138
 6256TIP3    H218712   5.272   6.736   0.171
 6257TIP3   OH218713   1.741   2.312   2.342
 6257TIP3    H118714   1.741   2.220   2.316
 6257TIP3    H218715   1.817   2.350   2.296
 6258TIP3   OH218716   1.432   2.227   4.620
 6258TIP3    H118717   1.480   2.297   4.574
 6258TIP3    H218718   1.435   2.153   4.560
 6259TIP3   OH218719   6.612   1.237   2.516
 6259TIP3    H118720   6.545   1.177   2.549
 6259TIP3    H218721   6.682   1.232   2.580
 6260TIP3   OH218722   0.881   4.147  -0.015
 6260TIP3    H118723   0.970   4.113  -0.016
 6260TIP3    H218724   0.829   4.079   0.028
 6261TIP3   OH218725   5.117   6.476   6.563
 6261TIP3    H118726   5.185   6.540   6.584
 6261TIP3    H218727   5.154   6.423   6.493
 6262TIP3   OH218728   6.102   6.190   0.377
 6262TIP3    H118729   6.188   6.149   0.387
 6262TIP3    H218730   6.050   6.154   0.449
 6263TIP3   OH218731   4.081   0.488   2.249
 6263TIP3    H118732   4.061   0.397   2.226
 6263TIP3    H218733   4.029   0.540   2.187
 6264TIP3   OH218734   2.207   4.199   2.447
 6264TIP3    H118735   2.302   4.200   2.440
 6264TIP3    H218736   2.183   4.106   2.445
 6265TIP3   OH218737   3.870   6.027   2.666
 6265TIP3    H118738   3.959   6.037   2.631
 6265TIP3    H218739   3.857   6.103   2.722
 6266TIP3   OH218740   2.965   0.297   0.628
 6266TIP3    H118741   2.929   0.343   0.552
 6266TIP3    H218742   3.030   0.357   0.664
 6267TIP3   OH218743   3.985   5.038   3.925
 6267TIP3    H118744   4.017   5.128   3.912
 6267TIP3    H218745   4.035   5.005   4.000
 6268TIP3   OH218746   7.488   4.975   4.328
 6268TIP3    H118747   7.549   5.049   4.320
 6268TIP3    H218748   7.543   4.899   4.342
 6269TIP3   OH218749   1.395   5.338   5.482
 6269TIP3    H118750   1.349   5.418   5.507
 6269TIP3    H218751   1.488   5.358   5.497
 6270TIP3   OH218752   5.876   0.205   5.124
 6270TIP3    H118753   5.934   0.241   5.192
 6270TIP3    H218754   5.863   0.114   5.150
 6271TIP3   OH218755   2.694   1.060   0.712
 6271TIP3    H118756   2.671   1.127   0.647
 6271TIP3    H218757   2.625   0.994   0.704
 6272TIP3   OH218758   7.954   2.392   5.565
 6272TIP3    H118759   7.900   2.471   5.569
 6272TIP3    H218760   7.917   2.334   5.632
 6273TIP3   OH218761   0.283   6.509   3.697
 6273TIP3    H118762   0.348   6.546   3.638
 6273TIP3    H218763   0.304   6.547   3.783
 6274TIP3   OH218764   0.582   1.574   4.543
 6274TIP3    H118765   0.598   1.662   4.578
 6274TIP3    H218766   0.670   1.536   4.534
 6275TIP3   OH218767   2.298   5.879   5.084
 6275TIP3    H118768   2.274   5.969   5.063
 6275TIP3    H218769   2.356   5.852   5.013
 6276TIP3   OH218770   1.077   6.253   6.540
 6276TIP3    H118771   1.012   6.322   6.551
 6276TIP3    H218772   1.147   6.277   6.602
 6277TIP3   OH218773   2.851   0.322   3.362
 6277TIP3    H118774   2.773   0.272   3.341
 6277TIP3    H218775   2.901   0.325   3.281
 6278TIP3   OH218776   3.340   0.285   1.059
 6278TIP3    H118777   3.305   0.212   1.110
 6278TIP3    H218778   3.290   0.361   1.088
 6279TIP3   OH218779   1.380   3.295   3.391
 6279TIP3    H118780   1.378   3.383   3.429
 6279TIP3    H218781   1.347   3.238   3.460
 6280TIP3   OH218782   4.306   2.217   5.506
 6280TIP3    H118783   4.269   2.175   5.583
 6280TIP3    H218784   4.268   2.169   5.432
 6281TIP3   OH218785   0.525   6.256   5.005
 6281TIP3    H118786   0.513   6.164   5.026
 6281TIP3    H218787   0.591   6.287   5.067
 6282TIP3   OH218788   4.853   5.713   4.156
 6282TIP3    H118789   4.914   5.785   4.143
 6282TIP3    H218790   4.776   5.736   4.103
 6283TIP3   OH218791   1.209   7.407   5.505
 6283TIP3    H118792   1.199   7.386   5.412
 6283TIP3    H218793   1.232   7.500   5.506
 6284TIP3   OH218794   5.179   1.686   2.421
 6284TIP3    H118795   5.105   1.720   2.370
 6284TIP3    H218796   5.242   1.658   2.355
 6285TIP3   OH218797   4.574   3.281   0.858
 6285TIP3    H118798   4.613   3.356   0.904
 6285TIP3    H218799   4.578   3.209   0.921
 6286TIP3   OH218800   5.006   2.098   2.342
 6286TIP3    H118801   5.028   2.190   2.324
 6286TIP3    H218802   5.079   2.049   2.304
 6287TIP3   OH218803   7.279   2.192   2.927
 6287TIP3    H118804   7.252   2.279   2.953
 6287TIP3    H218805   7.205   2.157   2.878
 6288TIP3   OH218806   8.088   4.338   2.127
 6288TIP3    H118807   8.038   4.281   2.185
 6288TIP3    H218808   8.124   4.405   2.186
 6289TIP3   OH218809   3.735   3.808   3.056
 6289TIP3    H118810   3.702   3.898   3.056
 6289TIP3    H218811   3.692   3.766   3.131
 6290TIP3   OH218812   4.144   4.559   0.428
 6290TIP3    H118813   4.124   4.638   0.480
 6290TIP3    H218814   4.225   4.526   0.467
 6291TIP3   OH218815   1.090   7.401   2.793
 6291TIP3    H118816   1.074   7.463   2.864
 6291TIP3    H218817   1.104   7.317   2.837
 6292TIP3   OH218818   2.638   3.491   2.798
 6292TIP3    H118819   2.719   3.442   2.783
 6292TIP3    H218820   2.648   3.528   2.886
 6293TIP3   OH218821   4.270   2.497   4.309
 6293TIP3    H118822   4.187   2.504   4.263
 6293TIP3    H218823   4.311   2.418   4.274
 6294TIP3   OH218824   5.919   5.623   0.423
 6294TIP3    H118825   5.971   5.543   0.409
 6294TIP3    H218826   5.942   5.680   0.350
 6295TIP3   OH218827   2.018   1.911   4.110
 6295TIP3    H118828   2.031   1.838   4.171
 6295TIP3    H218829   1.923   1.922   4.105
 6296TIP3   OH218830   0.529   7.112   3.271
 6296TIP3    H118831   0.471   7.128   3.197
 6296TIP3    H218832   0.479   7.054   3.329
 6297TIP3   OH218833   1.486   6.253   4.363
 6297TIP3    H118834   1.439   6.319   4.413
 6297TIP3    H218835   1.457   6.265   4.272
 6298TIP3   OH218836   1.998   1.516   3.143
 6298TIP3    H118837   1.958   1.537   3.227
 6298TIP3    H218838   1.985   1.594   3.089
 6299TIP3   OH218839   1.206   5.852   4.658
 6299TIP3    H118840   1.112   5.851   4.674
 6299TIP3    H218841   1.219   5.787   4.588
 6300TIP3   OH218842   7.339   2.641   6.279
 6300TIP3    H118843   7.262   2.695   6.294
 6300TIP3    H218844   7.348   2.637   6.184
 6301TIP3   OH218845   2.493   2.765   5.702
 6301TIP3    H118846   2.523   2.822   5.631
 6301TIP3    H218847   2.535   2.800   5.780
 6302TIP3   OH218848   4.579   5.065   2.375
 6302TIP3    H118849   4.663   5.107   2.393
 6302TIP3    H218850   4.515   5.136   2.378
 6303TIP3   OH218851   3.406   6.132   0.192
 6303TIP3    H118852   3.438   6.206   0.141
 6303TIP3    H218853   3.464   6.060   0.170
 6304TIP3   OH218854   6.489   3.062   6.179
 6304TIP3    H118855   6.449   3.139   6.220
 6304TIP3    H218856   6.451   2.987   6.226
 6305TIP3   OH218857   3.378   0.384   6.728
 6305TIP3    H118858   3.457   0.437   6.721
 6305TIP3    H218859   3.406   0.296   6.701
 6306TIP3   OH218860   1.087   5.047   2.115
 6306TIP3    H118861   1.047   4.987   2.052
 6306TIP3    H218862   1.070   5.007   2.200
 6307TIP3   OH218863   4.061   0.927   3.595
 6307TIP3    H118864   4.005   0.994   3.554
 6307TIP3    H218865   4.137   0.922   3.537
 6308TIP3   OH218866   0.028   4.412   2.286
 6308TIP3    H118867   0.032   4.448   2.375
 6308TIP3    H218868   0.090   4.339   2.286
 6309TIP3   OH218869   5.909   0.427   1.432
 6309TIP3    H118870   5.882   0.463   1.348
 6309TIP3    H218871   5.890   0.495   1.495
 6310TIP3   OH218872  -0.012   0.749   5.528
 6310TIP3    H118873  -0.021   0.844   5.517
 6310TIP3    H218874   0.070   0.738   5.575
 6311TIP3   OH218875   4.975   4.814   0.565
 6311TIP3    H118876   4.927   4.893   0.539
 6311TIP3    H218877   4.978   4.760   0.486
 6312TIP3   OH218878   2.968   3.009   0.953
 6312TIP3    H118879   2.894   3.045   1.001
 6312TIP3    H218880   2.935   2.996   0.864
 6313TIP3   OH218881   5.228   4.969   5.545
 6313TIP3    H118882   5.167   4.904   5.581
 6313TIP3    H218883   5.216   5.046   5.600
 6314TIP3   OH218884   0.431   1.747   6.711
 6314TIP3    H118885   0.436   1.757   6.616
 6314TIP3    H218886   0.511   1.701   6.735
 6315TIP3   OH218887   3.657   5.547   0.619
 6315TIP3    H118888   3.569   5.541   0.656
 6315TIP3    H218889   3.714   5.518   0.690
 6316TIP3   OH218890   3.671   0.644   4.528
 6316TIP3    H118891   3.713   0.718   4.571
 6316TIP3    H218892   3.704   0.567   4.574
 6317TIP3   OH218893   2.637   6.137   6.126
 6317TIP3    H118894   2.621   6.206   6.191
 6317TIP3    H218895   2.687   6.070   6.173
 6318TIP3   OH218896   7.259   2.426   0.159
 6318TIP3    H118897   7.168   2.414   0.130
 6318TIP3    H218898   7.279   2.517   0.135
 6319TIP3   OH218899   5.072   0.075   2.902
 6319TIP3    H118900   5.029   0.008   2.849
 6319TIP3    H218901   5.001   0.116   2.951
 6320TIP3   OH218902   5.818   4.376   5.137
 6320TIP3    H118903   5.725   4.391   5.118
 6320TIP3    H218904   5.818   4.325   5.218
 6321TIP3   OH218905   5.729   4.991   4.852
 6321TIP3    H118906   5.638   5.018   4.863
 6321TIP3    H218907   5.734   4.964   4.760
 6322TIP3   OH218908   2.227   1.812   1.867
 6322TIP3    H118909   2.209   1.822   1.960
 6322TIP3    H218910   2.211   1.898   1.829
 6323TIP3   OH218911   3.970   7.319   2.573
 6323TIP3    H118912   4.027   7.243   2.587
 6323TIP3    H218913   3.957   7.323   2.479
 6324TIP3   OH218914   7.905   3.421   0.073
 6324TIP3    H118915   7.829   3.370   0.102
 6324TIP3    H218916   7.889   3.438  -0.020
 6325TIP3   OH218917   0.741   3.626   2.709
 6325TIP3    H118918   0.794   3.639   2.631
 6325TIP3    H218919   0.662   3.677   2.694
 6326TIP3   OH218920   3.072   1.013   3.046
 6326TIP3    H118921   3.153   0.973   3.077
 6326TIP3    H218922   3.004   0.947   3.062
 6327TIP3   OH218923   7.123   4.828   5.460
 6327TIP3    H118924   7.057   4.759   5.462
 6327TIP3    H218925   7.115   4.871   5.545
 6328TIP3   OH218926   5.252   1.789   3.135
 6328TIP3    H118927   5.221   1.708   3.093
 6328TIP3    H218928   5.226   1.858   3.074
 6329TIP3   OH218929   4.411   0.567   3.843
 6329TIP3    H118930   4.345   0.591   3.778
 6329TIP3    H218931   4.470   0.508   3.796
 6330TIP3   OH218932   4.804   7.689   1.678
 6330TIP3    H118933   4.730   7.629   1.663
 6330TIP3    H218934   4.814   7.735   1.595
 6331TIP3   OH218935   5.166   3.403   3.535
 6331TIP3    H118936   5.174   3.410   3.630
 6331TIP3    H218937   5.100   3.336   3.521
 6332TIP3   OH218938   4.272   3.942   1.111
 6332TIP3    H118939   4.297   3.901   1.028
 6332TIP3    H218940   4.190   3.989   1.091
 6333TIP3   OH218941   3.131   1.900   2.297
 6333TIP3    H118942   3.088   1.968   2.350
 6333TIP3    H218943   3.119   1.930   2.206
 6334TIP3   OH218944   3.301   1.695   4.874
 6334TIP3    H118945   3.375   1.756   4.866
 6334TIP3    H218946   3.290   1.683   4.968
 6335TIP3   OH218947   5.070   4.134   6.299
 6335TIP3    H118948   4.982   4.120   6.333
 6335TIP3    H218949   5.063   4.215   6.248
 6336TIP3   OH218950   2.537   3.884   0.627
 6336TIP3    H118951   2.620   3.854   0.665
 6336TIP3    H218952   2.538   3.979   0.641
 6337TIP3   OH218953   3.649   6.896   4.038
 6337TIP3    H118954   3.632   6.905   3.944
 6337TIP3    H218955   3.592   6.824   4.066
 6338TIP3   OH218956   6.558   7.040   2.656
 6338TIP3    H118957   6.492   6.977   2.685
 6338TIP3    H218958   6.540   7.120   2.706
 6339TIP3   OH218959   0.111   2.802   2.270
 6339TIP3    H118960   0.058   2.861   2.216
 6339TIP3    H218961   0.192   2.851   2.286
 6340TIP3   OH218962   1.472   3.829   5.851
 6340TIP3    H118963   1.502   3.738   5.849
 6340TIP3    H218964   1.488   3.858   5.941
 6341TIP3   OH218965   5.817   2.246   5.874
 6341TIP3    H118966   5.722   2.231   5.870
 6341TIP3    H218967   5.843   2.211   5.959
 6342TIP3   OH218968   5.574   7.569   1.960
 6342TIP3    H118969   5.520   7.578   2.038
 6342TIP3    H218970   5.525   7.508   1.904
 6343TIP3   OH218971   5.905   0.236   2.094
 6343TIP3    H118972   5.941   0.297   2.029
 6343TIP3    H218973   5.842   0.183   2.046
 6344TIP3   OH218974   5.489   2.919   0.855
 6344TIP3    H118975   5.467   2.833   0.821
 6344TIP3    H218976   5.562   2.949   0.801
 6345TIP3   OH218977   1.696   2.390   5.314
 6345TIP3    H118978   1.783   2.415   5.283
 6345TIP3    H218979   1.640   2.399   5.237
 6346TIP3   OH218980   6.346   7.861   2.418
 6346TIP3    H118981   6.305   7.873   2.332
 6346TIP3    H218982   6.390   7.777   2.412
 6347TIP3   OH218983   4.757   6.628   1.052
 6347TIP3    H118984   4.736   6.721   1.058
 6347TIP3    H218985   4.672   6.585   1.050
 6348TIP3   OH218986   7.085   7.120   1.796
 6348TIP3    H118987   7.123   7.108   1.709
 6348TIP3    H218988   7.006   7.066   1.796
 6349TIP3   OH218989   3.702   4.034   2.798
 6349TIP3    H118990   3.784   4.084   2.798
 6349TIP3    H218991   3.727   3.948   2.763
 6350TIP3   OH218992   6.892   3.322   3.857
 6350TIP3    H118993   6.904   3.231   3.831
 6350TIP3    H218994   6.887   3.319   3.953
 6351TIP3   OH218995   0.597   7.679   4.789
 6351TIP3    H118996   0.609   7.584   4.786
 6351TIP3    H218997   0.563   7.702   4.703
 6352TIP3   OH218998   7.186   1.541   2.400
 6352TIP3    H118999   7.099   1.575   2.378
 6352TIP3    H219000   7.184   1.450   2.370
 6353TIP3   OH219001   1.871   1.933   5.370
 6353TIP3    H119002   1.852   2.010   5.317
 6353TIP3    H219003   1.953   1.899   5.335
 6354TIP3   OH219004   1.011   5.887   0.410
 6354TIP3    H119005   1.060   5.958   0.368
 6354TIP3    H219006   1.071   5.853   0.477
 6355TIP3   OH219007   5.535   7.304   5.857
 6355TIP3    H119008   5.549   7.375   5.794
 6355TIP3    H219009   5.623   7.279   5.884
 6356TIP3   OH219010   1.590   2.793   5.520
 6356TIP3    H119011   1.566   2.700   5.518
 6356TIP3    H219012   1.534   2.833   5.454
 6357TIP3   OH219013   4.144   0.253   2.625
 6357TIP3    H119014   4.061   0.205   2.628
 6357TIP3    H219015   4.182   0.229   2.540
 6358TIP3   OH219016   5.743   4.614   4.119
 6358TIP3    H119017   5.797   4.536   4.120
 6358TIP3    H219018   5.744   4.643   4.027
 6359TIP3   OH219019   7.706   4.788   0.589
 6359TIP3    H119020   7.755   4.797   0.671
 6359TIP3    H219021   7.729   4.866   0.539
 6360TIP3   OH219022   0.167   1.342   1.674
 6360TIP3    H119023   0.155   1.248   1.657
 6360TIP3    H219024   0.246   1.365   1.626
 6361TIP3   OH219025   5.483   1.671   4.948
 6361TIP3    H119026   5.471   1.582   4.980
 6361TIP3    H219027   5.459   1.728   5.021
 6362TIP3   OH219028   2.832   5.321   3.627
 6362TIP3    H119029   2.917   5.277   3.622
 6362TIP3    H219030   2.769   5.250   3.621
 6363TIP3   OH219031   4.840   4.146   2.519
 6363TIP3    H119032   4.870   4.214   2.579
 6363TIP3    H219033   4.746   4.162   2.510
 6364TIP3   OH219034   3.212   3.681   4.492
 6364TIP3    H119035   3.250   3.593   4.496
 6364TIP3    H219036   3.285   3.738   4.470
 6365TIP3   OH219037   0.891   1.627   1.794
 6365TIP3    H119038   0.906   1.534   1.781
 6365TIP3    H219039   0.972   1.659   1.833
 6366TIP3   OH219040   7.218   5.802   0.410
 6366TIP3    H119041   7.234   5.720   0.365
 6366TIP3    H219042   7.266   5.868   0.359
 6367TIP3   OH219043   2.581   7.040   1.504
 6367TIP3    H119044   2.544   7.033   1.416
 6367TIP3    H219045   2.567   7.131   1.529
 6368TIP3   OH219046   7.760   7.372   2.161
 6368TIP3    H119047   7.676   7.363   2.115
 6368TIP3    H219048   7.738   7.365   2.253
 6369TIP3   OH219049   7.750   1.002   0.096
 6369TIP3    H119050   7.788   1.082   0.131
 6369TIP3    H219051   7.813   0.933   0.118
 6370TIP3   OH219052   5.522   3.446   0.179
 6370TIP3    H119053   5.597   3.462   0.236
 6370TIP3    H219054   5.454   3.413   0.238
 6371TIP3   OH219055   5.600   1.163   0.965
 6371TIP3    H119056   5.505   1.167   0.971
 6371TIP3    H219057   5.617   1.137   0.874
 6372TIP3   OH219058   0.755   7.572   0.514
 6372TIP3    H119059   0.709   7.601   0.592
 6372TIP3    H219060   0.776   7.652   0.466
 6373TIP3   OH219061   0.166   3.565   3.112
 6373TIP3    H119062   0.173   3.518   3.195
 6373TIP3    H219063   0.078   3.547   3.081
 6374TIP3   OH219064   7.504   3.758   6.221
 6374TIP3    H119065   7.461   3.756   6.307
 6374TIP3    H219066   7.504   3.850   6.196
 6375TIP3   OH219067   1.673   7.528   2.145
 6375TIP3    H119068   1.601   7.579   2.107
 6375TIP3    H219069   1.692   7.461   2.079
 6376TIP3   OH219070   3.889   6.483   4.793
 6376TIP3    H119071   3.875   6.576   4.813
 6376TIP3    H219072   3.823   6.462   4.727
 6377TIP3   OH219073   1.587   7.654   4.117
 6377TIP3    H119074   1.514   7.709   4.144
 6377TIP3    H219075   1.612   7.688   4.031
 6378TIP3   OH219076   7.929   1.648   0.544
 6378TIP3    H119077   7.890   1.650   0.457
 6378TIP3    H219078   7.982   1.569   0.546
 6379TIP3   OH219079   8.191   2.027   3.478
 6379TIP3    H119080   8.171   1.935   3.462
 6379TIP3    H219081   8.275   2.025   3.525
 6380TIP3   OH219082   7.014   1.532   3.378
 6380TIP3    H119083   6.965   1.535   3.296
 6380TIP3    H219084   6.947   1.524   3.446
 6381TIP3   OH219085   4.521   0.270   6.378
 6381TIP3    H119086   4.500   0.213   6.452
 6381TIP3    H219087   4.545   0.354   6.418
 6382TIP3   OH219088   0.632   6.804   5.823
 6382TIP3    H119089   0.605   6.714   5.804
 6382TIP3    H219090   0.639   6.846   5.738
 6383TIP3   OH219091   6.442   1.848   1.689
 6383TIP3    H119092   6.489   1.850   1.606
 6383TIP3    H219093   6.361   1.896   1.672
 6384TIP3   OH219094   1.476   7.562   2.457
 6384TIP3    H119095   1.436   7.483   2.494
 6384TIP3    H219096   1.496   7.616   2.533
 6385TIP3   OH219097   3.113   3.077   4.044
 6385TIP3    H119098   3.091   3.001   3.991
 6385TIP3    H219099   3.193   3.112   4.003
 6386TIP3   OH219100   4.828   7.043   2.720
 6386TIP3    H119101   4.875   7.046   2.636
 6386TIP3    H219102   4.848   6.956   2.756
 6387TIP3   OH219103   6.697   1.202   6.678
 6387TIP3    H119104   6.706   1.254   6.758
 6387TIP3    H219105   6.787   1.178   6.655
 6388TIP3   OH219106   0.921   0.500   4.225
 6388TIP3    H119107   0.933   0.496   4.320
 6388TIP3    H219108   0.842   0.450   4.208
 6389TIP3   OH219109   7.450   3.209   0.065
 6389TIP3    H119110   7.361   3.245   0.064
 6389TIP3    H219111   7.458   3.163  -0.018
 6390TIP3   OH219112   0.824   1.613   1.517
 6390TIP3    H119113   0.847   1.610   1.610
 6390TIP3    H219114   0.904   1.584   1.472
 6391TIP3   OH219115   5.675   4.104   5.508
 6391TIP3    H119116   5.603   4.098   5.445
 6391TIP3    H219117   5.751   4.129   5.455
 6392TIP3   OH219118   4.906   7.482   4.011
 6392TIP3    H119119   4.963   7.536   3.956
 6392TIP3    H219120   4.830   7.464   3.956
 6393TIP3   OH219121   1.967   6.274   0.414
 6393TIP3    H119122   1.964   6.370   0.406
 6393TIP3    H219123   2.029   6.247   0.347
 6394TIP3   OH219124   5.849   0.039   6.701
 6394TIP3    H119125   5.905   0.090   6.759
 6394TIP3    H219126   5.843  -0.047   6.741
 6395TIP3   OH219127   0.491   2.893   0.058
 6395TIP3    H119128   0.514   2.851   0.141
 6395TIP3    H219129   0.570   2.941   0.033
 6396TIP3   OH219130   7.894   7.161   4.214
 6396TIP3    H119131   7.848   7.173   4.131
 6396TIP3    H219132   7.836   7.200   4.280
 6397TIP3   OH219133   4.351   0.989   0.111
 6397TIP3    H119134   4.439   1.005   0.146
 6397TIP3    H219135   4.296   0.975   0.187
 6398TIP3   OH219136   1.728   3.808   2.604
 6398TIP3    H119137   1.799   3.813   2.540
 6398TIP3    H219138   1.694   3.719   2.595
 6399TIP3   OH219139   4.943   6.805   2.881
 6399TIP3    H119140   5.035   6.782   2.874
 6399TIP3    H219141   4.896   6.723   2.868
 6400TIP3   OH219142   6.935   6.155   2.452
 6400TIP3    H119143   6.872   6.083   2.445
 6400TIP3    H219144   6.963   6.171   2.362
 6401TIP3   OH219145   6.534   5.021   3.830
 6401TIP3    H119146   6.575   5.019   3.916
 6401TIP3    H219147   6.601   4.987   3.770
 6402TIP3   OH219148   5.208   1.678   3.700
 6402TIP3    H119149   5.297   1.712   3.689
 6402TIP3    H219150   5.219   1.585   3.720
 6403TIP3   OH219151   2.197   5.034   4.450
 6403TIP3    H119152   2.147   4.990   4.381
 6403TIP3    H219153   2.145   5.111   4.471
 6404TIP3   OH219154   3.301   3.336   0.797
 6404TIP3    H119155   3.256   3.252   0.789
 6404TIP3    H219156   3.388   3.320   0.762
 6405TIP3   OH219157   1.417   3.296   3.955
 6405TIP3    H119158   1.325   3.310   3.932
 6405TIP3    H219159   1.422   3.319   4.047
 6406TIP3   OH219160   2.501   6.317   5.648
 6406TIP3    H119161   2.429   6.378   5.663
 6406TIP3    H219162   2.538   6.301   5.734
 6407TIP3   OH219163   0.693   6.805   4.643
 6407TIP3    H119164   0.719   6.743   4.575
 6407TIP3    H219165   0.774   6.851   4.665
 6408TIP3   OH219166   1.022   6.559   3.769
 6408TIP3    H119167   1.031   6.655   3.772
 6408TIP3    H219168   0.939   6.542   3.814
 6409TIP3   OH219169   5.797   4.576   5.835
 6409TIP3    H119170   5.734   4.517   5.793
 6409TIP3    H219171   5.786   4.659   5.788
 6410TIP3   OH219172   1.471   7.142   1.629
 6410TIP3    H119173   1.420   7.207   1.580
 6410TIP3    H219174   1.461   7.061   1.579
 6411TIP3   OH219175   4.032   0.963   3.259
 6411TIP3    H119176   4.095   0.904   3.220
 6411TIP3    H219177   3.947   0.926   3.238
 6412TIP3   OH219178   0.880   5.653   0.417
 6412TIP3    H119179   0.856   5.628   0.506
 6412TIP3    H219180   0.930   5.734   0.428
 6413TIP3   OH219181   2.003   5.531   0.427
 6413TIP3    H119182   2.086   5.560   0.388
 6413TIP3    H219183   1.944   5.522   0.353
 6414TIP3   OH219184   2.428   6.393   4.594
 6414TIP3    H119185   2.334   6.397   4.575
 6414TIP3    H219186   2.459   6.482   4.583
 6415TIP3   OH219187   1.892   1.313   2.582
 6415TIP3    H119188   1.927   1.273   2.503
 6415TIP3    H219189   1.962   1.372   2.612
 6416TIP3   OH219190   3.792   0.167   3.371
 6416TIP3    H119191   3.702   0.170   3.403
 6416TIP3    H219192   3.788   0.209   3.285
 6417TIP3   OH219193   1.954   4.200   4.037
 6417TIP3    H119194   1.921   4.290   4.044
 6417TIP3    H219195   2.044   4.210   4.008
 6418TIP3   OH219196   3.421   7.030   0.993
 6418TIP3    H119197   3.333   6.993   1.007
 6418TIP3    H219198   3.472   6.956   0.960
 6419TIP3   OH219199   5.791   7.193   5.547
 6419TIP3    H119200   5.756   7.209   5.460
 6419TIP3    H219201   5.806   7.098   5.549
 6420TIP3   OH219202   1.590   2.521   2.856
 6420TIP3    H119203   1.649   2.536   2.783
 6420TIP3    H219204   1.522   2.463   2.820
 6421TIP3   OH219205   3.374   5.755   6.647
 6421TIP3    H119206   3.437   5.724   6.582
 6421TIP3    H219207   3.429   5.791   6.717
 6422TIP3   OH219208   2.088   2.871   6.085
 6422TIP3    H119209   2.104   2.780   6.108
 6422TIP3    H219210   2.013   2.868   6.025
 6423TIP3   OH219211   2.740   1.321   2.918
 6423TIP3    H119212   2.795   1.283   2.850
 6423TIP3    H219213   2.692   1.247   2.955
 6424TIP3   OH219214   5.240   2.635   4.438
 6424TIP3    H119215   5.244   2.542   4.415
 6424TIP3    H219216   5.152   2.662   4.412
 6425TIP3   OH219217   1.191   6.525   0.977
 6425TIP3    H119218   1.117   6.479   1.017
 6425TIP3    H219219   1.155   6.563   0.897
 6426TIP3   OH219220   3.295   7.654   6.120
 6426TIP3    H119221   3.201   7.664   6.108
 6426TIP3    H219222   3.332   7.673   6.034
 6427TIP3   OH219223   2.458   0.977   5.458
 6427TIP3    H119224   2.379   0.969   5.512
 6427TIP3    H219225   2.427   1.015   5.376
 6428TIP3   OH219226   6.403   1.058   3.788
 6428TIP3    H119227   6.446   1.124   3.842
 6428TIP3    H219228   6.361   0.999   3.850
 6429TIP3   OH219229   6.474   7.751   6.778
 6429TIP3    H119230   6.423   7.788   6.706
 6429TIP3    H219231   6.560   7.732   6.740
 6430TIP3   OH219232   1.070   2.301   1.352
 6430TIP3    H119233   1.035   2.223   1.394
 6430TIP3    H219234   0.998   2.333   1.298
 6431TIP3   OH219235   2.002   7.311   0.542
 6431TIP3    H119236   2.002   7.378   0.610
 6431TIP3    H219237   1.953   7.238   0.580
 6432TIP3   OH219238   7.269   7.053   1.986
 6432TIP3    H119239   7.198   7.086   1.930
 6432TIP3    H219240   7.338   7.030   1.924
 6433TIP3   OH219241   5.567   5.512   5.640
 6433TIP3    H119242   5.576   5.483   5.549
 6433TIP3    H219243   5.599   5.602   5.640
 6434TIP3   OH219244   2.996   1.381   5.302
 6434TIP3    H119245   2.946   1.336   5.370
 6434TIP3    H219246   3.047   1.312   5.260
 6435TIP3   OH219247   0.335   6.420   2.133
 6435TIP3    H119248   0.299   6.459   2.213
 6435TIP3    H219249   0.428   6.407   2.153
 6436TIP3   OH219250   2.209   7.795   4.830
 6436TIP3    H119251   2.300   7.816   4.809
 6436TIP3    H219252   2.183   7.861   4.894
 6437TIP3   OH219253   3.187   3.099   5.745
 6437TIP3    H119254   3.165   3.111   5.837
 6437TIP3    H219255   3.256   3.162   5.727
 6438TIP3   OH219256   5.004   1.980   2.591
 6438TIP3    H119257   4.979   1.990   2.499
 6438TIP3    H219258   5.099   1.972   2.589
 6439TIP3   OH219259   7.938   3.016   6.683
 6439TIP3    H119260   7.871   3.012   6.752
 6439TIP3    H219261   7.939   2.928   6.646
 6440TIP3   OH219262   7.728   2.228   3.319
 6440TIP3    H119263   7.707   2.142   3.284
 6440TIP3    H219264   7.703   2.223   3.412
 6441TIP3   OH219265   6.319   7.550   3.095
 6441TIP3    H119266   6.330   7.490   3.021
 6441TIP3    H219267   6.228   7.579   3.090
 6442TIP3   OH219268   1.054   1.928   6.212
 6442TIP3    H119269   1.040   2.013   6.254
 6442TIP3    H219270   1.149   1.918   6.210
 6443TIP3   OH219271   6.142   6.443   2.874
 6443TIP3    H119272   6.084   6.480   2.807
 6443TIP3    H219273   6.087   6.380   2.921
 6444TIP3   OH219274   2.584   0.408   4.246
 6444TIP3    H119275   2.565   0.445   4.160
 6444TIP3    H219276   2.612   0.318   4.229
 6445TIP3   OH219277   2.330   6.489   2.066
 6445TIP3    H119278   2.287   6.575   2.073
 6445TIP3    H219279   2.261   6.426   2.083
 6446TIP3   OH219280   6.624   1.537   6.357
 6446TIP3    H119281   6.615   1.616   6.410
 6446TIP3    H219282   6.561   1.549   6.286
 6447TIP3   OH219283   5.280   2.659   2.497
 6447TIP3    H119284   5.192   2.658   2.460
 6447TIP3    H219285   5.330   2.714   2.436
 6448TIP3   OH219286   5.378   6.233   5.464
 6448TIP3    H119287   5.435   6.220   5.389
 6448TIP3    H219288   5.340   6.147   5.481
 6449TIP3   OH219289   4.419   3.650   5.761
 6449TIP3    H119290   4.497   3.692   5.795
 6449TIP3    H219291   4.396   3.701   5.683
 6450TIP3   OH219292   7.443   5.311   0.036
 6450TIP3    H119293   7.475   5.244  -0.025
 6450TIP3    H219294   7.350   5.293   0.046
 6451TIP3   OH219295   2.933   5.515   3.277
 6451TIP3    H119296   2.938   5.475   3.364
 6451TIP3    H219297   2.843   5.499   3.249
 6452TIP3   OH219298   5.569   7.139   6.279
 6452TIP3    H119299   5.645   7.192   6.302
 6452TIP3    H219300   5.502   7.203   6.255
 6453TIP3   OH219301   7.981   6.422   2.527
 6453TIP3    H119302   7.906   6.476   2.554
 6453TIP3    H219303   7.982   6.350   2.591
 6454TIP3   OH219304   4.498   7.344   4.796
 6454TIP3    H119305   4.576   7.294   4.770
 6454TIP3    H219306   4.475   7.310   4.883
 6455TIP3   OH219307   1.764   5.021   0.557
 6455TIP3    H119308   1.729   4.934   0.537
 6455TIP3    H219309   1.827   5.006   0.628
 6456TIP3   OH219310   4.733   7.271   4.332
 6456TIP3    H119311   4.737   7.217   4.412
 6456TIP3    H219312   4.705   7.357   4.363
 6457TIP3   OH219313   1.157   1.401   2.039
 6457TIP3    H119314   1.063   1.388   2.046
 6457TIP3    H219315   1.168   1.495   2.029
 6458TIP3   OH219316   0.700   1.072   6.712
 6458TIP3    H119317   0.775   1.112   6.668
 6458TIP3    H219318   0.643   1.044   6.640
 6459TIP3   OH219319   6.977   6.893   1.244
 6459TIP3    H119320   6.903   6.860   1.192
 6459TIP3    H219321   6.935   6.932   1.322
 6460TIP3   OH219322   2.757   5.903   5.031
 6460TIP3    H119323   2.751   5.887   4.937
 6460TIP3    H219324   2.691   5.969   5.049
 6461TIP3   OH219325   4.916   2.959   0.876
 6461TIP3    H119326   4.998   2.912   0.892
 6461TIP3    H219327   4.873   2.962   0.961
 6462TIP3   OH219328   4.612   3.597   4.817
 6462TIP3    H119329   4.604   3.666   4.883
 6462TIP3    H219330   4.688   3.546   4.845
 6463TIP3   OH219331   0.660   1.992   2.774
 6463TIP3    H119332   0.623   1.923   2.719
 6463TIP3    H219333   0.699   1.945   2.847
 6464TIP3   OH219334   3.962   0.432   1.738
 6464TIP3    H119335   3.898   0.435   1.667
 6464TIP3    H219336   3.930   0.495   1.802
 6465TIP3   OH219337   4.444   5.030   3.758
 6465TIP3    H119338   4.506   4.989   3.698
 6465TIP3    H219339   4.492   5.034   3.842
 6466TIP3   OH219340   6.292   2.651   5.652
 6466TIP3    H119341   6.208   2.697   5.658
 6466TIP3    H219342   6.323   2.670   5.564
 6467TIP3   OH219343   3.017   2.834   5.705
 6467TIP3    H119344   3.083   2.882   5.754
 6467TIP3    H219345   2.983   2.897   5.641
 6468TIP3   OH219346   0.410   6.855   5.567
 6468TIP3    H119347   0.402   6.943   5.532
 6468TIP3    H219348   0.321   6.829   5.588
 6469TIP3   OH219349   6.622   0.809   1.417
 6469TIP3    H119350   6.572   0.761   1.351
 6469TIP3    H219351   6.586   0.897   1.416
 6470TIP3   OH219352   1.936   0.344   1.124
 6470TIP3    H119353   1.852   0.375   1.157
 6470TIP3    H219354   1.941   0.253   1.153
 6471TIP3   OH219355   6.764   5.680   3.176
 6471TIP3    H119356   6.744   5.759   3.124
 6471TIP3    H219357   6.770   5.610   3.111
 6472TIP3   OH219358   1.081   1.197   1.020
 6472TIP3    H119359   1.061   1.122   1.075
 6472TIP3    H219360   1.174   1.189   1.001
 6473TIP3   OH219361   7.876   0.697   3.922
 6473TIP3    H119362   7.893   0.604   3.936
 6473TIP3    H219363   7.917   0.717   3.839
 6474TIP3   OH219364   5.770   3.537   0.348
 6474TIP3    H119365   5.739   3.626   0.326
 6474TIP3    H219366   5.862   3.549   0.371
 6475TIP3   OH219367   6.242   4.197   1.848
 6475TIP3    H119368   6.272   4.122   1.899
 6475TIP3    H219369   6.153   4.213   1.879
 6476TIP3   OH219370   5.350   3.497   5.446
 6476TIP3    H119371   5.414   3.514   5.377
 6476TIP3    H219372   5.343   3.402   5.449
 6477TIP3   OH219373   7.529   2.755   4.984
 6477TIP3    H119374   7.590   2.777   5.054
 6477TIP3    H219375   7.539   2.660   4.972
 6478TIP3   OH219376   0.309   2.807   6.495
 6478TIP3    H119377   0.265   2.763   6.567
 6478TIP3    H219378   0.298   2.901   6.513
 6479TIP3   OH219379   4.570   7.682   2.561
 6479TIP3    H119380   4.528   7.764   2.533
 6479TIP3    H219381   4.509   7.645   2.625
 6480TIP3   OH219382   2.848   5.688   6.331
 6480TIP3    H119383   2.799   5.719   6.255
 6480TIP3    H219384   2.940   5.703   6.308
 6481TIP3   OH219385   8.202   7.158   3.317
 6481TIP3    H119386   8.261   7.187   3.248
 6481TIP3    H219387   8.154   7.085   3.278
 6482TIP3   OH219388   2.724   2.702   3.666
 6482TIP3    H119389   2.776   2.699   3.586
 6482TIP3    H219390   2.765   2.638   3.724
 6483TIP3   OH219391   6.677   6.841   6.424
 6483TIP3    H119392   6.752   6.833   6.483
 6483TIP3    H219393   6.716   6.857   6.338
 6484TIP3   OH219394   2.253   3.537   1.133
 6484TIP3    H119395   2.214   3.566   1.215
 6484TIP3    H219396   2.205   3.458   1.110
 6485TIP3   OH219397   4.426   2.622   5.912
 6485TIP3    H119398   4.416   2.716   5.902
 6485TIP3    H219399   4.425   2.588   5.822
 6486TIP3   OH219400   7.516   3.596   3.568
 6486TIP3    H119401   7.574   3.640   3.632
 6486TIP3    H219402   7.563   3.603   3.485
 6487TIP3   OH219403   2.992   1.074   6.528
 6487TIP3    H119404   3.026   1.145   6.474
 6487TIP3    H219405   2.997   0.996   6.472
 6488TIP3   OH219406   7.208   0.252   6.303
 6488TIP3    H119407   7.273   0.300   6.253
 6488TIP3    H219408   7.126   0.299   6.288
 6489TIP3   OH219409   0.749   1.921   5.802
 6489TIP3    H119410   0.749   2.010   5.836
 6489TIP3    H219411   0.710   1.869   5.872
 6490TIP3   OH219412   4.757   4.301   5.360
 6490TIP3    H119413   4.673   4.292   5.316
 6490TIP3    H219414   4.813   4.345   5.297
 6491TIP3   OH219415   1.656   5.013   4.067
 6491TIP3    H119416   1.564   5.022   4.042
 6491TIP3    H219417   1.680   4.924   4.041
 6492TIP3   OH219418   4.044   1.990   0.372
 6492TIP3    H119419   4.124   2.011   0.420
 6492TIP3    H219420   4.006   2.075   0.350
 6493TIP3   OH219421   7.736   5.499   3.473
 6493TIP3    H119422   7.645   5.487   3.444
 6493TIP3    H219423   7.787   5.503   3.393
 6494TIP3   OH219424   5.983   2.833   0.301
 6494TIP3    H119425   5.897   2.822   0.343
 6494TIP3    H219426   6.043   2.851   0.373
 6495TIP3   OH219427   3.278   5.719   3.999
 6495TIP3    H119428   3.330   5.650   3.957
 6495TIP3    H219429   3.200   5.726   3.944
 6496TIP3   OH219430   7.181   5.808   5.778
 6496TIP3    H119431   7.094   5.830   5.744
 6496TIP3    H219432   7.163   5.739   5.842
 6497TIP3   OH219433   7.146   2.470   5.517
 6497TIP3    H119434   7.138   2.547   5.460
 6497TIP3    H219435   7.127   2.504   5.605
 6498TIP3   OH219436   0.338   0.011   0.062
 6498TIP3    H119437   0.420   0.019   0.013
 6498TIP3    H219438   0.276  -0.025  -0.002
 6499TIP3   OH219439   7.701   0.552   1.065
 6499TIP3    H119440   7.618   0.572   1.022
 6499TIP3    H219441   7.750   0.502   1.000
 6500TIP3   OH219442   5.392   7.665   5.174
 6500TIP3    H119443   5.478   7.626   5.193
 6500TIP3    H219444   5.330   7.593   5.185
 6501TIP3   OH219445   2.062   0.333   3.048
 6501TIP3    H119446   2.066   0.307   2.956
 6501TIP3    H219447   1.990   0.396   3.052
 6502TIP3   OH219448   0.769   1.443   0.495
 6502TIP3    H119449   0.841   1.495   0.459
 6502TIP3    H219450   0.801   1.353   0.494
 6503TIP3   OH219451   0.189   1.690   3.624
 6503TIP3    H119452   0.244   1.676   3.548
 6503TIP3    H219453   0.147   1.606   3.640
 6504TIP3   OH219454   3.317   3.617   6.463
 6504TIP3    H119455   3.274   3.547   6.413
 6504TIP3    H219456   3.279   3.612   6.550
 6505TIP3   OH219457   6.687   3.633   5.668
 6505TIP3    H119458   6.610   3.578   5.653
 6505TIP3    H219459   6.752   3.573   5.705
 6506TIP3   OH219460   0.853   4.422   1.533
 6506TIP3    H119461   0.948   4.419   1.527
 6506TIP3    H219462   0.823   4.348   1.480
 6507TIP3   OH219463   7.837   0.850   2.973
 6507TIP3    H119464   7.882   0.865   3.057
 6507TIP3    H219465   7.833   0.755   2.964
 6508TIP3   OH219466   6.234   3.839   4.496
 6508TIP3    H119467   6.246   3.772   4.428
 6508TIP3    H219468   6.249   3.791   4.578
 6509TIP3   OH219469   5.098   1.679   4.406
 6509TIP3    H119470   5.187   1.707   4.386
 6509TIP3    H219471   5.090   1.690   4.501
 6510TIP3   OH219472   2.825   6.661   4.381
 6510TIP3    H119473   2.907   6.682   4.337
 6510TIP3    H219474   2.776   6.608   4.318
 6511TIP3   OH219475   7.085   6.049   3.914
 6511TIP3    H119476   7.043   5.998   3.983
 6511TIP3    H219477   7.168   6.079   3.953
 6512TIP3   OH219478   2.235   5.359   3.014
 6512TIP3    H119479   2.252   5.337   2.923
 6512TIP3    H219480   2.315   5.336   3.060
 6513TIP3   OH219481   6.577   5.989   2.666
 6513TIP3    H119482   6.491   6.030   2.675
 6513TIP3    H219483   6.557   5.898   2.645
 6514TIP3   OH219484   6.506   2.090   4.815
 6514TIP3    H119485   6.422   2.129   4.839
 6514TIP3    H219486   6.552   2.159   4.767
 6515TIP3   OH219487   5.895   2.314   4.643
 6515TIP3    H119488   5.989   2.318   4.662
 6515TIP3    H219489   5.867   2.406   4.638
 6516TIP3   OH219490   6.251   6.098   2.375
 6516TIP3    H119491   6.235   6.066   2.464
 6516TIP3    H219492   6.342   6.074   2.356
 6517TIP3   OH219493   4.062   3.333   0.184
 6517TIP3    H119494   4.154   3.307   0.189
 6517TIP3    H219495   4.027   3.283   0.110
 6518TIP3   OH219496   4.594   4.911   3.532
 6518TIP3    H119497   4.521   4.905   3.470
 6518TIP3    H219498   4.664   4.954   3.483
 6519TIP3   OH219499   3.620   2.036   4.082
 6519TIP3    H119500   3.588   2.002   4.165
 6519TIP3    H219501   3.565   2.112   4.063
 6520TIP3   OH219502   6.077   4.598   3.813
 6520TIP3    H119503   6.140   4.668   3.798
 6520TIP3    H219504   6.009   4.612   3.747
 6521TIP3   OH219505   0.189   5.303   4.162
 6521TIP3    H119506   0.170   5.378   4.106
 6521TIP3    H219507   0.129   5.311   4.236
 6522TIP3   OH219508   7.734   0.888   1.185
 6522TIP3    H119509   7.761   0.978   1.204
 6522TIP3    H219510   7.719   0.849   1.271
 6523TIP3   OH219511   0.759   6.339   6.312
 6523TIP3    H119512   0.747   6.363   6.220
 6523TIP3    H219513   0.706   6.261   6.324
 6524TIP3   OH219514   5.209   5.458   6.775
 6524TIP3    H119515   5.136   5.476   6.716
 6524TIP3    H219516   5.277   5.519   6.748
 6525TIP3   OH219517   3.444   5.842   4.650
 6525TIP3    H119518   3.378   5.911   4.659
 6525TIP3    H219519   3.444   5.798   4.736
 6526TIP3   OH219520   0.710   1.473   5.215
 6526TIP3    H119521   0.638   1.457   5.153
 6526TIP3    H219522   0.727   1.567   5.206
 6527TIP3   OH219523   4.671   3.356   2.974
 6527TIP3    H119524   4.594   3.300   2.970
 6527TIP3    H219525   4.651   3.419   3.043
 6528TIP3   OH219526   4.767   7.627   6.198
 6528TIP3    H119527   4.833   7.688   6.168
 6528TIP3    H219528   4.727   7.670   6.274
 6529TIP3   OH219529   1.201   5.840   5.171
 6529TIP3    H119530   1.205   5.914   5.111
 6529TIP3    H219531   1.167   5.768   5.118
 6530TIP3   OH219532   5.808   1.326   0.856
 6530TIP3    H119533   5.899   1.320   0.884
 6530TIP3    H219534   5.759   1.276   0.922
 6531TIP3   OH219535   7.765   6.038   2.358
 6531TIP3    H119536   7.825   6.033   2.283
 6531TIP3    H219537   7.817   6.004   2.431
 6532TIP3   OH219538   3.558   6.092   6.609
 6532TIP3    H119539   3.472   6.130   6.627
 6532TIP3    H219540   3.567   6.097   6.514
 6533TIP3   OH219541   1.407   2.237   2.865
 6533TIP3    H119542   1.321   2.208   2.836
 6533TIP3    H219543   1.390   2.288   2.944
 6534TIP3   OH219544   6.653   0.982   0.292
 6534TIP3    H119545   6.644   0.889   0.269
 6534TIP3    H219546   6.599   1.028   0.229
 6535TIP3   OH219547   0.041   7.412   5.053
 6535TIP3    H119548   0.119   7.467   5.050
 6535TIP3    H219549   0.050   7.354   4.977
 6536TIP3   OH219550   1.151   1.636   1.899
 6536TIP3    H119551   1.191   1.643   1.812
 6536TIP3    H219552   1.216   1.672   1.958
 6537TIP3   OH219553   2.179   5.817   6.330
 6537TIP3    H119554   2.253   5.829   6.270
 6537TIP3    H219555   2.153   5.906   6.354
 6538TIP3   OH219556   0.479   1.026   6.549
 6538TIP3    H119557   0.432   0.951   6.585
 6538TIP3    H219558   0.417   1.069   6.491
 6539TIP3   OH219559   5.136   4.813   1.688
 6539TIP3    H119560   5.082   4.869   1.633
 6539TIP3    H219561   5.074   4.762   1.739
 6540TIP3   OH219562   3.385   3.809   0.349
 6540TIP3    H119563   3.384   3.828   0.443
 6540TIP3    H219564   3.351   3.720   0.343
 6541TIP3   OH219565   3.015   4.674   3.284
 6541TIP3    H119566   2.989   4.763   3.307
 6541TIP3    H219567   3.094   4.658   3.336
 6542TIP3   OH219568   5.528   7.307   4.547
 6542TIP3    H119569   5.435   7.328   4.541
 6542TIP3    H219570   5.570   7.368   4.487
 6543TIP3   OH219571   3.030   0.034   0.610
 6543TIP3    H119572   3.024   0.129   0.601
 6543TIP3    H219573   3.124   0.015   0.606
 6544TIP3   OH219574   5.804   5.587   6.228
 6544TIP3    H119575   5.855   5.507   6.228
 6544TIP3    H219576   5.841   5.640   6.299
 6545TIP3   OH219577   6.280   3.272   2.883
 6545TIP3    H119578   6.337   3.237   2.816
 6545TIP3    H219579   6.233   3.344   2.840
 6546TIP3   OH219580   6.955   4.426   6.320
 6546TIP3    H119581   7.008   4.505   6.331
 6546TIP3    H219582   6.934   4.423   6.226
 6547TIP3   OH219583   1.685   0.876   2.625
 6547TIP3    H119584   1.679   0.909   2.715
 6547TIP3    H219585   1.594   0.867   2.597
 6548TIP3   OH219586   3.070   7.383   0.986
 6548TIP3    H119587   3.153   7.347   1.017
 6548TIP3    H219588   3.005   7.317   1.010
 6549TIP3   OH219589   3.085   2.202   0.897
 6549TIP3    H119590   3.065   2.111   0.916
 6549TIP3    H219591   3.132   2.233   0.974
 6550TIP3   OH219592   8.278   3.520   6.303
 6550TIP3    H119593   8.218   3.594   6.289
 6550TIP3    H219594   8.252   3.485   6.388
 6551TIP3   OH219595   4.907   6.357   0.120
 6551TIP3    H119596   4.914   6.266   0.092
 6551TIP3    H219597   4.833   6.358   0.181
 6552TIP3   OH219598   1.894   0.641   6.491
 6552TIP3    H119599   1.811   0.594   6.488
 6552TIP3    H219600   1.909   0.669   6.401
 6553TIP3   OH219601   6.014   3.957   5.844
 6553TIP3    H119602   6.071   3.941   5.769
 6553TIP3    H219603   6.010   3.872   5.889
 6554TIP3   OH219604   3.123   5.040   1.352
 6554TIP3    H119605   3.191   5.036   1.420
 6554TIP3    H219606   3.170   5.021   1.271
 6555TIP3   OH219607   8.268   5.049   4.420
 6555TIP3    H119608   8.230   5.071   4.335
 6555TIP3    H219609   8.261   5.130   4.471
 6556TIP3   OH219610   3.317   4.167   5.404
 6556TIP3    H119611   3.244   4.210   5.449
 6556TIP3    H219612   3.381   4.149   5.473
 6557TIP3   OH219613   0.798   4.473   3.390
 6557TIP3    H119614   0.885   4.512   3.398
 6557TIP3    H219615   0.772   4.492   3.300
 6558TIP3   OH219616   5.728   1.270   1.161
 6558TIP3    H119617   5.685   1.225   1.088
 6558TIP3    H219618   5.659   1.280   1.226
 6559TIP3   OH219619   2.050   2.934   2.346
 6559TIP3    H119620   2.139   2.912   2.320
 6559TIP3    H219621   1.996   2.910   2.271
 6560TIP3   OH219622   0.452   1.383   4.841
 6560TIP3    H119623   0.520   1.343   4.788
 6560TIP3    H219624   0.396   1.310   4.868
 6561TIP3   OH219625   2.214   5.080   6.084
 6561TIP3    H119626   2.279   5.029   6.035
 6561TIP3    H219627   2.256   5.095   6.169
 6562TIP3   OH219628   3.631   7.579   3.528
 6562TIP3    H119629   3.723   7.582   3.502
 6562TIP3    H219630   3.626   7.508   3.592
 6563TIP3   OH219631   4.789   6.143   3.544
 6563TIP3    H119632   4.865   6.201   3.545
 6563TIP3    H219633   4.788   6.105   3.456
 6564TIP3   OH219634   8.296   4.110   0.407
 6564TIP3    H119635   8.251   4.099   0.324
 6564TIP3    H219636   8.372   4.052   0.401
 6565TIP3   OH219637   6.808   0.987   4.900
 6565TIP3    H119638   6.881   0.969   4.842
 6565TIP3    H219639   6.783   1.077   4.882
 6566TIP3   OH219640   7.232   2.739   6.656
 6566TIP3    H119641   7.157   2.681   6.672
 6566TIP3    H219642   7.286   2.691   6.593
 6567TIP3   OH219643   0.659   0.022   2.198
 6567TIP3    H119644   0.568   0.026   2.228
 6567TIP3    H219645   0.667  -0.064   2.157
 6568TIP3   OH219646   6.651   7.148   0.870
 6568TIP3    H119647   6.635   7.122   0.779
 6568TIP3    H219648   6.622   7.240   0.873
 6569TIP3   OH219649   5.488   6.020   5.846
 6569TIP3    H119650   5.498   6.109   5.881
 6569TIP3    H219651   5.519   6.027   5.755
 6570TIP3   OH219652   2.157   4.314   1.944
 6570TIP3    H119653   2.157   4.381   2.012
 6570TIP3    H219654   2.111   4.354   1.871
 6571TIP3   OH219655   7.968   7.716   1.660
 6571TIP3    H119656   7.892   7.704   1.604
 6571TIP3    H219657   7.964   7.808   1.687
 6572TIP3   OH219658   0.281   2.546   2.827
 6572TIP3    H119659   0.230   2.610   2.777
 6572TIP3    H219660   0.334   2.500   2.761
 6573TIP3   OH219661   4.572   7.181   2.710
 6573TIP3    H119662   4.660   7.145   2.714
 6573TIP3    H219663   4.525   7.138   2.782
 6574TIP3   OH219664   1.552   1.798   4.129
 6574TIP3    H119665   1.559   1.815   4.223
 6574TIP3    H219666   1.459   1.808   4.110
 6575TIP3   OH219667   6.392   6.568   5.666
 6575TIP3    H119668   6.477   6.534   5.694
 6575TIP3    H219669   6.329   6.504   5.697
 6576TIP3   OH219670   2.868   3.118   6.090
 6576TIP3    H119671   2.830   3.031   6.102
 6576TIP3    H219672   2.797   3.179   6.107
 6577TIP3   OH219673   6.274   7.208   5.805
 6577TIP3    H119674   6.308   7.257   5.880
 6577TIP3    H219675   6.311   7.121   5.815
 6578TIP3   OH219676   4.160   0.787   5.402
 6578TIP3    H119677   4.086   0.817   5.455
 6578TIP3    H219678   4.209   0.730   5.460
 6579TIP3   OH219679   0.665   3.265   5.452
 6579TIP3    H119680   0.634   3.194   5.397
 6579TIP3    H219681   0.756   3.242   5.471
 6580TIP3   OH219682   4.670   5.950   5.286
 6580TIP3    H119683   4.593   5.894   5.279
 6580TIP3    H219684   4.643   6.034   5.249
 6581TIP3   OH219685   8.247   6.058   5.060
 6581TIP3    H119686   8.322   6.007   5.090
 6581TIP3    H219687   8.185   5.993   5.027
 6582TIP3   OH219688   7.968   3.245   1.228
 6582TIP3    H119689   7.973   3.193   1.308
 6582TIP3    H219690   7.877   3.275   1.224
 6583TIP3   OH219691   5.213   5.875   1.436
 6583TIP3    H119692   5.123   5.904   1.451
 6583TIP3    H219693   5.223   5.797   1.491
 6584TIP3   OH219694   3.688   7.465   1.928
 6584TIP3    H119695   3.620   7.530   1.944
 6584TIP3    H219696   3.718   7.439   2.016
 6585TIP3   OH219697   5.525   2.576   3.283
 6585TIP3    H119698   5.435   2.572   3.252
 6585TIP3    H219699   5.572   2.624   3.215
 6586TIP3   OH219700   6.828   7.594   0.851
 6586TIP3    H119701   6.841   7.683   0.819
 6586TIP3    H219702   6.891   7.541   0.802
 6587TIP3   OH219703   4.559   2.055   3.315
 6587TIP3    H119704   4.578   1.972   3.359
 6587TIP3    H219705   4.537   2.030   3.225
 6588TIP3   OH219706   0.957   0.673   5.760
 6588TIP3    H119707   1.007   0.742   5.805
 6588TIP3    H219708   1.016   0.644   5.690
 6589TIP3   OH219709   7.577   4.587   1.510
 6589TIP3    H119710   7.577   4.648   1.583
 6589TIP3    H219711   7.517   4.626   1.446
 6590TIP3   OH219712   3.233   0.670   0.432
 6590TIP3    H119713   3.185   0.732   0.378
 6590TIP3    H219714   3.313   0.716   0.458
 6591TIP3   OH219715   7.910   0.501   5.215
 6591TIP3    H119716   7.976   0.524   5.280
 6591TIP3    H219717   7.836   0.559   5.234
 6592TIP3   OH219718   2.625   1.800   6.705
 6592TIP3    H119719   2.624   1.791   6.609
 6592TIP3    H219720   2.698   1.860   6.723
 6593TIP3   OH219721   1.718   5.906   2.372
 6593TIP3    H119722   1.799   5.872   2.334
 6593TIP3    H219723   1.701   5.849   2.447
 6594TIP3   OH219724   3.698   3.221   5.763
 6594TIP3    H119725   3.667   3.200   5.675
 6594TIP3    H219726   3.646   3.164   5.820
 6595TIP3   OH219727   3.081   3.363   5.944
 6595TIP3    H119728   3.111   3.279   5.980
 6595TIP3    H219729   3.014   3.393   6.004
 6596TIP3   OH219730   2.718   6.406   5.221
 6596TIP3    H119731   2.671   6.378   5.143
 6596TIP3    H219732   2.725   6.328   5.275
 6597TIP3   OH219733   3.443   0.807   4.284
 6597TIP3    H119734   3.437   0.715   4.308
 6597TIP3    H219735   3.497   0.847   4.353
 6598TIP3   OH219736   1.815   4.435   4.210
 6598TIP3    H119737   1.846   4.520   4.241
 6598TIP3    H219738   1.813   4.443   4.115
 6599TIP3   OH219739   0.304   5.646   0.958
 6599TIP3    H119740   0.288   5.596   1.039
 6599TIP3    H219741   0.379   5.701   0.978
 6600TIP3   OH219742   5.693   6.941   5.865
 6600TIP3    H119743   5.615   6.994   5.847
 6600TIP3    H219744   5.741   6.940   5.783
 6601TIP3   OH219745   7.605   7.625   5.606
 6601TIP3    H119746   7.696   7.603   5.588
 6601TIP3    H219747   7.610   7.697   5.669
 6602TIP3   OH219748   7.355   2.084   6.661
 6602TIP3    H119749   7.344   2.163   6.608
 6602TIP3    H219750   7.446   2.060   6.650
 6603TIP3   OH219751   5.990   7.795   5.358
 6603TIP3    H119752   6.003   7.700   5.359
 6603TIP3    H219753   5.981   7.817   5.265
 6604TIP3   OH219754   1.730   4.612   6.197
 6604TIP3    H119755   1.678   4.608   6.278
 6604TIP3    H219756   1.665   4.605   6.127
 6605TIP3   OH219757   2.354   4.819   4.285
 6605TIP3    H119758   2.423   4.756   4.268
 6605TIP3    H219759   2.273   4.768   4.282
 6606TIP3   OH219760   0.685   4.155   4.333
 6606TIP3    H119761   0.604   4.200   4.355
 6606TIP3    H219762   0.670   4.064   4.360
 6607TIP3   OH219763   3.928   2.423   1.771
 6607TIP3    H119764   3.938   2.500   1.714
 6607TIP3    H219765   3.953   2.454   1.858
 6608TIP3   OH219766   6.564   2.177   3.163
 6608TIP3    H119767   6.620   2.113   3.206
 6608TIP3    H219768   6.609   2.199   3.082
 6609TIP3   OH219769   0.260   0.025   4.757
 6609TIP3    H119770   0.241  -0.031   4.682
 6609TIP3    H219771   0.181   0.020   4.811
 6610TIP3   OH219772   0.339   7.631   1.060
 6610TIP3    H119773   0.431   7.605   1.063
 6610TIP3    H219774   0.291   7.550   1.076
 6611TIP3   OH219775   6.899   0.828   0.242
 6611TIP3    H119776   6.818   0.846   0.194
 6611TIP3    H219777   6.892   0.737   0.269
 6612TIP3   OH219778   1.987   6.195   1.390
 6612TIP3    H119779   1.926   6.269   1.392
 6612TIP3    H219780   2.022   6.190   1.479
 6613TIP3   OH219781   6.932   5.913   4.995
 6613TIP3    H119782   6.878   5.877   4.925
 6613TIP3    H219783   6.996   5.845   5.014
 6614TIP3   OH219784   2.741   6.818   2.432
 6614TIP3    H119785   2.647   6.803   2.439
 6614TIP3    H219786   2.749   6.909   2.402
 6615TIP3   OH219787   2.740   3.883   4.096
 6615TIP3    H119788   2.663   3.875   4.152
 6615TIP3    H219789   2.813   3.860   4.153
 6616TIP3   OH219790   6.939   0.365   4.449
 6616TIP3    H119791   7.003   0.295   4.434
 6616TIP3    H219792   6.918   0.397   4.361
 6617TIP3   OH219793   0.272   3.575   6.721
 6617TIP3    H119794   0.178   3.574   6.738
 6617TIP3    H219795   0.298   3.665   6.740
 6618TIP3   OH219796   5.196   7.533   1.404
 6618TIP3    H119797   5.164   7.459   1.352
 6618TIP3    H219798   5.252   7.582   1.345
 6619TIP3   OH219799   1.050   0.850   3.062
 6619TIP3    H119800   0.995   0.905   3.117
 6619TIP3    H219801   1.122   0.907   3.036
 6620TIP3   OH219802   7.774   4.749   5.820
 6620TIP3    H119803   7.739   4.715   5.738
 6620TIP3    H219804   7.722   4.706   5.888
 6621TIP3   OH219805   5.366   6.292   0.736
 6621TIP3    H119806   5.289   6.288   0.793
 6621TIP3    H219807   5.344   6.356   0.669
 6622TIP3   OH219808   3.845   2.221   0.268
 6622TIP3    H119809   3.936   2.247   0.255
 6622TIP3    H219810   3.817   2.270   0.346
 6623TIP3   OH219811   4.778   1.530   2.441
 6623TIP3    H119812   4.729   1.594   2.492
 6623TIP3    H219813   4.721   1.453   2.436
 6624TIP3   OH219814   8.084   6.507   1.749
 6624TIP3    H119815   8.044   6.457   1.678
 6624TIP3    H219816   8.023   6.499   1.822
 6625TIP3   OH219817   7.227   1.747   3.675
 6625TIP3    H119818   7.317   1.772   3.653
 6625TIP3    H219819   7.210   1.789   3.760
 6626TIP3   OH219820   7.973   5.590   5.729
 6626TIP3    H119821   7.948   5.628   5.645
 6626TIP3    H219822   7.974   5.664   5.790
 6627TIP3   OH219823   7.678   4.295   3.647
 6627TIP3    H119824   7.705   4.262   3.732
 6627TIP3    H219825   7.689   4.221   3.587
 6628TIP3   OH219826   2.625   5.616   6.492
 6628TIP3    H119827   2.679   5.658   6.426
 6628TIP3    H219828   2.551   5.579   6.444
 6629TIP3   OH219829   1.064   1.968   0.597
 6629TIP3    H119830   1.018   2.030   0.653
 6629TIP3    H219831   1.066   1.887   0.649
 6630TIP3   OH219832   5.310   2.377   2.611
 6630TIP3    H119833   5.349   2.459   2.582
 6630TIP3    H219834   5.361   2.352   2.688
 6631TIP3   OH219835   4.507   3.545   6.286
 6631TIP3    H119836   4.497   3.490   6.364
 6631TIP3    H219837   4.499   3.634   6.319
 6632TIP3   OH219838   1.174   5.394   2.330
 6632TIP3    H119839   1.148   5.363   2.244
 6632TIP3    H219840   1.098   5.444   2.361
 6633TIP3   OH219841   0.828   5.359   3.113
 6633TIP3    H119842   0.860   5.419   3.181
 6633TIP3    H219843   0.761   5.410   3.067
 6634TIP3   OH219844   6.332   7.575   5.901
 6634TIP3    H119845   6.249   7.583   5.948
 6634TIP3    H219846   6.361   7.485   5.919
 6635TIP3   OH219847   5.629   0.450   2.249
 6635TIP3    H119848   5.681   0.474   2.172
 6635TIP3    H219849   5.689   0.462   2.323
 6636TIP3   OH219850   4.859   1.084   3.781
 6636TIP3    H119851   4.942   1.083   3.829
 6636TIP3    H219852   4.854   0.998   3.740
 6637TIP3   OH219853   3.875   3.508   5.444
 6637TIP3    H119854   3.897   3.497   5.536
 6637TIP3    H219855   3.958   3.502   5.398
 6638TIP3   OH219856   4.486   1.791   2.772
 6638TIP3    H119857   4.488   1.734   2.850
 6638TIP3    H219858   4.394   1.794   2.748
 6639TIP3   OH219859   2.907   0.897   0.081
 6639TIP3    H119860   2.881   0.988   0.066
 6639TIP3    H219861   2.971   0.901   0.152
 6640TIP3   OH219862   2.457   2.395   0.945
 6640TIP3    H119863   2.515   2.426   1.014
 6640TIP3    H219864   2.425   2.310   0.975
 6641TIP3   OH219865   5.942   6.900   1.359
 6641TIP3    H119866   5.870   6.930   1.414
 6641TIP3    H219867   5.955   6.971   1.296
 6642TIP3   OH219868   1.936   0.203   6.207
 6642TIP3    H119869   1.967   0.257   6.280
 6642TIP3    H219870   1.914   0.266   6.138
 6643TIP3   OH219871   1.202   4.797   5.152
 6643TIP3    H119872   1.109   4.782   5.137
 6643TIP3    H219873   1.210   4.805   5.247
 6644TIP3   OH219874   2.457   6.989   1.241
 6644TIP3    H119875   2.507   7.056   1.194
 6644TIP3    H219876   2.365   7.011   1.225
 6645TIP3   OH219877   3.172   1.577   0.867
 6645TIP3    H119878   3.126   1.522   0.804
 6645TIP3    H219879   3.170   1.527   0.949
 6646TIP3   OH219880   2.796   3.697   5.590
 6646TIP3    H119881   2.713   3.652   5.605
 6646TIP3    H219882   2.788   3.779   5.637
 6647TIP3   OH219883   0.344   4.313   0.591
 6647TIP3    H119884   0.423   4.260   0.596
 6647TIP3    H219885   0.371   4.393   0.547
 6648TIP3   OH219886   5.896   2.681   5.057
 6648TIP3    H119887   5.812   2.637   5.063
 6648TIP3    H219888   5.874   2.774   5.055
 6649TIP3   OH219889   3.418   3.592   3.702
 6649TIP3    H119890   3.458   3.677   3.723
 6649TIP3    H219891   3.369   3.568   3.781
 6650TIP3   OH219892   3.767   6.151   5.101
 6650TIP3    H119893   3.823   6.149   5.179
 6650TIP3    H219894   3.682   6.120   5.132
 6651TIP3   OH219895   5.066   2.600   5.023
 6651TIP3    H119896   5.072   2.569   4.933
 6651TIP3    H219897   4.984   2.563   5.055
 6652TIP3   OH219898   0.661   3.199   3.695
 6652TIP3    H119899   0.624   3.287   3.701
 6652TIP3    H219900   0.622   3.161   3.616
 6653TIP3   OH219901   7.446   2.538   0.456
 6653TIP3    H119902   7.393   2.479   0.510
 6653TIP3    H219903   7.447   2.620   0.505
 6654TIP3   OH219904   3.482   4.591   4.788
 6654TIP3    H119905   3.544   4.660   4.765
 6654TIP3    H219906   3.527   4.537   4.853
 6655TIP3   OH219907   3.920   7.702   1.853
 6655TIP3    H119908   3.870   7.774   1.891
 6655TIP3    H219909   3.855   7.651   1.804
 6656TIP3   OH219910   5.243   2.695   6.358
 6656TIP3    H119911   5.246   2.730   6.447
 6656TIP3    H219912   5.171   2.632   6.359
 6657TIP3   OH219913   6.615   5.883   3.014
 6657TIP3    H119914   6.590   5.900   2.923
 6657TIP3    H219915   6.612   5.969   3.056
 6658TIP3   OH219916   4.205   3.955   2.829
 6658TIP3    H119917   4.137   3.920   2.772
 6658TIP3    H219918   4.205   3.896   2.904
 6659TIP3   OH219919   8.127   3.501   0.219
 6659TIP3    H119920   8.093   3.581   0.260
 6659TIP3    H219921   8.052   3.464   0.172
 6660TIP3   OH219922   7.018   1.003   1.045
 6660TIP3    H119923   7.040   0.912   1.062
 6660TIP3    H219924   7.045   1.049   1.125
 6661TIP3   OH219925   1.788   4.430   0.433
 6661TIP3    H119926   1.869   4.481   0.433
 6661TIP3    H219927   1.762   4.425   0.525
 6662TIP3   OH219928   4.359   2.943   5.242
 6662TIP3    H119929   4.445   2.938   5.200
 6662TIP3    H219930   4.332   2.852   5.252
 6663TIP3   OH219931   6.565   7.179   2.074
 6663TIP3    H119932   6.491   7.123   2.051
 6663TIP3    H219933   6.591   7.150   2.161
 6664TIP3   OH219934   0.592   2.243   0.510
 6664TIP3    H119935   0.576   2.156   0.545
 6664TIP3    H219936   0.514   2.293   0.533
 6665TIP3   OH219937   7.126   6.028   2.202
 6665TIP3    H119938   7.103   6.117   2.174
 6665TIP3    H219939   7.060   5.972   2.161
 6666TIP3   OH219940   5.934   5.535   0.821
 6666TIP3    H119941   5.939   5.444   0.793
 6666TIP3    H219942   6.002   5.580   0.770
 6667TIP3   OH219943   3.276   2.742   5.377
 6667TIP3    H119944   3.345   2.724   5.313
 6667TIP3    H219945   3.316   2.723   5.462
 6668TIP3   OH219946   5.721   4.192   6.313
 6668TIP3    H119947   5.723   4.269   6.369
 6668TIP3    H219948   5.810   4.157   6.317
 6669TIP3   OH219949   3.208   6.215   1.183
 6669TIP3    H119950   3.293   6.241   1.219
 6669TIP3    H219951   3.229   6.177   1.098
 6670TIP3   OH219952   2.995   7.010   4.386
 6670TIP3    H119953   3.025   6.921   4.368
 6670TIP3    H219954   3.068   7.050   4.434
 6671TIP3   OH219955   3.396   1.103   1.261
 6671TIP3    H119956   3.369   1.033   1.320
 6671TIP3    H219957   3.316   1.151   1.241
 6672TIP3   OH219958   3.002   0.498   5.458
 6672TIP3    H119959   3.009   0.501   5.362
 6672TIP3    H219960   3.083   0.539   5.489
 6673TIP3   OH219961   5.944   3.913   5.445
 6673TIP3    H119962   5.985   3.854   5.509
 6673TIP3    H219963   6.005   3.986   5.437
 6674TIP3   OH219964   2.874   3.256   3.740
 6674TIP3    H119965   2.832   3.341   3.734
 6674TIP3    H219966   2.964   3.271   3.711
 6675TIP3   OH219967   2.957   0.653   0.799
 6675TIP3    H119968   3.039   0.653   0.848
 6675TIP3    H219969   2.910   0.575   0.830
 6676TIP3   OH219970   7.013   2.034   2.459
 6676TIP3    H119971   7.073   1.962   2.478
 6676TIP3    H219972   6.936   2.015   2.512
 6677TIP3   OH219973   6.673   0.544   5.168
 6677TIP3    H119974   6.734   0.602   5.122
 6677TIP3    H219975   6.728   0.493   5.228
 6678TIP3   OH219976   1.989   3.593   0.873
 6678TIP3    H119977   1.993   3.688   0.868
 6678TIP3    H219978   1.897   3.574   0.892
 6679TIP3   OH219979   8.044   7.462   3.124
 6679TIP3    H119980   8.127   7.432   3.160
 6679TIP3    H219981   8.025   7.401   3.053
 6680TIP3   OH219982   7.111   2.024   0.423
 6680TIP3    H119983   7.039   2.067   0.376
 6680TIP3    H219984   7.067   1.960   0.479
 6681TIP3   OH219985   2.673   6.468   2.595
 6681TIP3    H119986   2.757   6.423   2.604
 6681TIP3    H219987   2.613   6.400   2.562
 6682TIP3   OH219988   2.938   1.652   1.761
 6682TIP3    H119989   2.941   1.627   1.853
 6682TIP3    H219990   2.845   1.667   1.743
 6683TIP3   OH219991   7.669   2.131   3.587
 6683TIP3    H119992   7.639   2.105   3.674
 6683TIP3    H219993   7.756   2.093   3.580
 6684TIP3   OH219994   7.081   0.841   4.262
 6684TIP3    H119995   7.173   0.815   4.256
 6684TIP3    H219996   7.081   0.933   4.233
 6685TIP3   OH219997   2.147   3.103   0.876
 6685TIP3    H119998   2.093   3.134   0.803
 6685TIP3    H219999   2.226   3.070   0.834
 6686TIP3   OH220000   0.322   0.636   6.024
 6686TIP3    H120001   0.396   0.696   6.036
 6686TIP3    H220002   0.361   0.559   5.983
 6687TIP3   OH220003   2.049   2.640   3.058
 6687TIP3    H120004   1.959   2.672   3.067
 6687TIP3    H220005   2.080   2.680   2.977
 6688TIP3   OH220006   7.341   7.367   4.362
 6688TIP3    H120007   7.286   7.323   4.297
 6688TIP3    H220008   7.423   7.385   4.316
 6689TIP3   OH220009   6.479   2.714   1.366
 6689TIP3    H120010   6.524   2.667   1.435
 6689TIP3    H220011   6.534   2.702   1.288
 6690TIP3   OH220012   2.161   1.043   1.155
 6690TIP3    H120013   2.084   1.011   1.201
 6690TIP3    H220014   2.207   0.963   1.128
 6691TIP3   OH220015   2.895   2.591   5.612
 6691TIP3    H120016   2.904   2.672   5.663
 6691TIP3    H220017   2.856   2.618   5.530
 6692TIP3   OH220018   6.424   3.434   3.050
 6692TIP3    H120019   6.389   3.352   3.013
 6692TIP3    H220020   6.369   3.502   3.010
 6693TIP3   OH220021   1.735   4.287   5.703
 6693TIP3    H120022   1.701   4.200   5.721
 6693TIP3    H220023   1.828   4.273   5.686
 6694TIP3   OH220024   6.682   6.379   2.073
 6694TIP3    H120025   6.604   6.401   2.123
 6694TIP3    H220026   6.671   6.287   2.049
 6695TIP3   OH220027   5.953   7.368   2.249
 6695TIP3    H120028   5.944   7.456   2.286
 6695TIP3    H220029   6.005   7.380   2.170
 6696TIP3   OH220030   1.817   5.539   0.888
 6696TIP3    H120031   1.775   5.610   0.938
 6696TIP3    H220032   1.768   5.537   0.806
 6697TIP3   OH220033   1.724   0.056   3.687
 6697TIP3    H120034   1.638   0.099   3.687
 6697TIP3    H220035   1.713  -0.020   3.744
 6698TIP3   OH220036   0.228   1.049   5.481
 6698TIP3    H120037   0.226   0.992   5.405
 6698TIP3    H220038   0.233   0.990   5.556
 6699TIP3   OH220039   1.537   3.463   1.422
 6699TIP3    H120040   1.491   3.484   1.503
 6699TIP3    H220041   1.606   3.402   1.449
 6700TIP3   OH220042   2.965   6.493   2.855
 6700TIP3    H120043   2.914   6.574   2.847
 6700TIP3    H220044   2.959   6.453   2.769
 6701TIP3   OH220045   6.957   3.423   0.877
 6701TIP3    H120046   6.920   3.379   0.800
 6701TIP3    H220047   7.050   3.401   0.874
 6702TIP3   OH220048   0.786   5.569   6.153
 6702TIP3    H120049   0.814   5.517   6.228
 6702TIP3    H220050   0.701   5.605   6.180
 6703TIP3   OH220051   0.136   4.960   5.184
 6703TIP3    H120052   0.190   4.899   5.134
 6703TIP3    H220053   0.059   4.973   5.130
 6704TIP3   OH220054   0.377   1.205   3.212
 6704TIP3    H120055   0.432   1.284   3.206
 6704TIP3    H220056   0.437   1.136   3.238
 6705TIP3   OH220057   2.334   4.109   4.550
 6705TIP3    H120058   2.320   4.014   4.542
 6705TIP3    H220059   2.261   4.148   4.501
 6706TIP3   OH220060   4.220   0.470   4.907
 6706TIP3    H120061   4.292   0.508   4.857
 6706TIP3    H220062   4.142   0.513   4.873
 6707TIP3   OH220063   2.711   3.228   3.286
 6707TIP3    H120064   2.712   3.178   3.367
 6707TIP3    H220065   2.794   3.206   3.243
 6708TIP3   OH220066   3.841   2.726   1.956
 6708TIP3    H120067   3.863   2.727   1.863
 6708TIP3    H220068   3.758   2.775   1.962
 6709TIP3   OH220069   1.502   2.663   3.061
 6709TIP3    H120070   1.515   2.609   2.983
 6709TIP3    H220071   1.409   2.651   3.083
 6710TIP3   OH220072   8.002   5.092   1.038
 6710TIP3    H120073   7.989   5.148   1.114
 6710TIP3    H220074   7.987   5.003   1.070
 6711TIP3   OH220075   6.021   2.921   2.046
 6711TIP3    H120076   5.983   2.851   2.100
 6711TIP3    H220077   6.009   3.000   2.097
 6712TIP3   OH220078   0.124   1.153   6.597
 6712TIP3    H120079   0.187   1.143   6.527
 6712TIP3    H220080   0.040   1.166   6.552
 6713TIP3   OH220081   7.936   7.679   1.994
 6713TIP3    H120082   7.981   7.763   1.985
 6713TIP3    H220083   7.994   7.626   2.048
 6714TIP3   OH220084   5.010   0.342   4.764
 6714TIP3    H120085   5.070   0.319   4.835
 6714TIP3    H220086   5.040   0.290   4.689
 6715TIP3   OH220087   0.692   5.099   3.134
 6715TIP3    H120088   0.695   5.085   3.039
 6715TIP3    H220089   0.748   5.175   3.149
 6716TIP3   OH220090   1.331   3.516   3.553
 6716TIP3    H120091   1.267   3.477   3.612
 6716TIP3    H220092   1.280   3.579   3.501
 6717TIP3   OH220093   6.939   5.866   4.306
 6717TIP3    H120094   6.946   5.954   4.343
 6717TIP3    H220095   7.001   5.866   4.233
 6718TIP3   OH220096   6.811   3.598   3.048
 6718TIP3    H120097   6.780   3.521   3.098
 6718TIP3    H220098   6.799   3.671   3.109
 6719TIP3   OH220099   7.050   4.785   1.741
 6719TIP3    H120100   7.142   4.812   1.746
 6719TIP3    H220101   7.049   4.712   1.679
 6720TIP3   OH220102   7.878   6.525   0.788
 6720TIP3    H120103   7.902   6.545   0.878
 6720TIP3    H220104   7.809   6.459   0.795
 6721TIP3   OH220105   6.749   7.678   3.395
 6721TIP3    H120106   6.690   7.602   3.402
 6721TIP3    H220107   6.694   7.753   3.417
 6722TIP3   OH220108   3.597   4.057   3.046
 6722TIP3    H120109   3.506   4.085   3.046
 6722TIP3    H220110   3.619   4.049   2.953
 6723TIP3   OH220111   8.330   7.201   1.423
 6723TIP3    H120112   8.261   7.135   1.435
 6723TIP3    H220113   8.295   7.261   1.358
 6724TIP3   OH220114   5.321   1.573   0.589
 6724TIP3    H120115   5.319   1.547   0.681
 6724TIP3    H220116   5.234   1.609   0.572
 6725TIP3   OH220117   7.524   1.988   0.249
 6725TIP3    H120118   7.500   1.912   0.195
 6725TIP3    H220119   7.619   1.983   0.256
 6726TIP3   OH220120   6.774   3.884   0.266
 6726TIP3    H120121   6.842   3.951   0.266
 6726TIP3    H220122   6.811   3.810   0.218
 6727TIP3   OH220123   7.437   1.935   2.174
 6727TIP3    H120124   7.529   1.921   2.150
 6727TIP3    H220125   7.387   1.902   2.099
 6728TIP3   OH220126   2.796   1.656   4.989
 6728TIP3    H120127   2.771   1.744   5.016
 6728TIP3    H220128   2.875   1.637   5.040
 6729TIP3   OH220129   3.163   0.822   1.190
 6729TIP3    H120130   3.180   0.748   1.248
 6729TIP3    H220131   3.119   0.886   1.245
 6730TIP3   OH220132   0.738   0.550   0.973
 6730TIP3    H120133   0.704   0.567   0.885
 6730TIP3    H220134   0.738   0.455   0.981
 6731TIP3   OH220135   0.996   2.483   4.063
 6731TIP3    H120136   1.062   2.518   4.003
 6731TIP3    H220137   1.047   2.439   4.131
 6732TIP3   OH220138   6.301   7.126   1.516
 6732TIP3    H120139   6.283   7.200   1.572
 6732TIP3    H220140   6.253   7.053   1.555
 6733TIP3   OH220141   2.983   0.541   0.083
 6733TIP3    H120142   3.045   0.527   0.154
 6733TIP3    H220143   3.025   0.607   0.027
 6734TIP3   OH220144   5.984   6.641   3.188
 6734TIP3    H120145   6.025   6.727   3.189
 6734TIP3    H220146   5.964   6.622   3.279
 6735TIP3   OH220147   2.231   2.103   0.320
 6735TIP3    H120148   2.234   2.189   0.279
 6735TIP3    H220149   2.299   2.052   0.276
 6736TIP3   OH220150   3.072   4.042   5.192
 6736TIP3    H120151   3.126   4.016   5.266
 6736TIP3    H220152   3.087   3.975   5.126
 6737TIP3   OH220153   1.855   6.040   0.646
 6737TIP3    H120154   1.793   6.084   0.589
 6737TIP3    H220155   1.854   5.949   0.616
 6738TIP3   OH220156   3.219   4.422   1.592
 6738TIP3    H120157   3.197   4.431   1.499
 6738TIP3    H220158   3.165   4.488   1.636
 6739TIP3   OH220159   5.785   4.882   4.595
 6739TIP3    H120160   5.838   4.829   4.536
 6739TIP3    H220161   5.695   4.856   4.578
 6740TIP3   OH220162   3.261   4.810   2.799
 6740TIP3    H120163   3.233   4.832   2.888
 6740TIP3    H220164   3.189   4.838   2.743
 6741TIP3   OH220165   4.119   3.062   2.759
 6741TIP3    H120166   4.188   3.046   2.823
 6741TIP3    H220167   4.161   3.118   2.693
 6742TIP3   OH220168   3.998   1.081   6.021
 6742TIP3    H120169   3.976   1.125   6.103
 6742TIP3    H220170   3.973   1.144   5.953
 6743TIP3   OH220171   1.966   0.135   0.282
 6743TIP3    H120172   1.995   0.133   0.373
 6743TIP3    H220173   1.871   0.133   0.287
 6744TIP3   OH220174   6.666   2.244   2.917
 6744TIP3    H120175   6.734   2.308   2.898
 6744TIP3    H220176   6.669   2.183   2.843
 6745TIP3   OH220177   2.405   0.585   6.508
 6745TIP3    H120178   2.421   0.636   6.429
 6745TIP3    H220179   2.313   0.602   6.530
 6746TIP3   OH220180   3.166   0.595   3.589
 6746TIP3    H120181   3.240   0.636   3.635
 6746TIP3    H220182   3.129   0.666   3.537
 6747TIP3   OH220183   1.022   6.654   3.079
 6747TIP3    H120184   1.048   6.683   2.992
 6747TIP3    H220185   0.986   6.567   3.065
 6748TIP3   OH220186   3.719   6.591   2.579
 6748TIP3    H120187   3.757   6.566   2.495
 6748TIP3    H220188   3.655   6.659   2.557
 6749TIP3   OH220189   5.216   1.939   2.201
 6749TIP3    H120190   5.290   1.969   2.148
 6749TIP3    H220191   5.228   1.844   2.207
 6750TIP3   OH220192   3.823   2.275   3.874
 6750TIP3    H120193   3.778   2.306   3.953
 6750TIP3    H220194   3.753   2.255   3.813
 6751TIP3   OH220195   0.823   3.838   3.253
 6751TIP3    H120196   0.881   3.806   3.184
 6751TIP3    H220197   0.735   3.824   3.220
 6752TIP3   OH220198   3.024   0.329   3.569
 6752TIP3    H120199   3.078   0.408   3.564
 6752TIP3    H220200   2.973   0.330   3.488
 6753TIP3   OH220201   8.166   5.686   0.141
 6753TIP3    H120202   8.191   5.726   0.058
 6753TIP3    H220203   8.098   5.622   0.118
 6754TIP3   OH220204   3.014   7.862   4.839
 6754TIP3    H120205   3.017   7.775   4.799
 6754TIP3    H220206   2.999   7.845   4.932
 6755TIP3   OH220207   4.476   3.104   6.603
 6755TIP3    H120208   4.421   3.183   6.600
 6755TIP3    H220209   4.531   3.111   6.525
 6756TIP3   OH220210   0.251   4.711   3.845
 6756TIP3    H120211   0.277   4.798   3.815
 6756TIP3    H220212   0.160   4.702   3.816
 6757TIP3   OH220213   6.842   2.236   4.531
 6757TIP3    H120214   6.877   2.325   4.519
 6757TIP3    H220215   6.920   2.182   4.543
 6758TIP3   OH220216   5.215   0.245   5.893
 6758TIP3    H120217   5.239   0.222   5.803
 6758TIP3    H220218   5.256   0.330   5.908
 6759TIP3   OH220219   7.928   4.816   3.712
 6759TIP3    H120220   7.998   4.849   3.656
 6759TIP3    H220221   7.970   4.798   3.796
 6760TIP3   OH220222   1.613   4.320   3.844
 6760TIP3    H120223   1.552   4.280   3.906
 6760TIP3    H220224   1.560   4.336   3.766
 6761TIP3   OH220225   0.510   5.793   1.100
 6761TIP3    H120226   0.445   5.863   1.103
 6761TIP3    H220227   0.590   5.833   1.133
 6762TIP3   OH220228   4.741   7.528   2.899
 6762TIP3    H120229   4.800   7.597   2.928
 6762TIP3    H220230   4.654   7.568   2.903
 6763TIP3   OH220231   6.175   5.622   2.126
 6763TIP3    H120232   6.204   5.685   2.061
 6763TIP3    H220233   6.215   5.539   2.099
 6764TIP3   OH220234   8.238   3.448   3.961
 6764TIP3    H120235   8.172   3.449   4.031
 6764TIP3    H220236   8.212   3.519   3.902
 6765TIP3   OH220237   8.298   2.299   3.421
 6765TIP3    H120238   8.321   2.277   3.330
 6765TIP3    H220239   8.260   2.218   3.456
 6766TIP3   OH220240   4.204   4.909   3.756
 6766TIP3    H120241   4.148   4.947   3.823
 6766TIP3    H220242   4.273   4.974   3.742
 6767TIP3   OH220243   3.229   1.466   6.368
 6767TIP3    H120244   3.261   1.472   6.458
 6767TIP3    H220245   3.134   1.464   6.376
 6768TIP3   OH220246   4.165   3.699   0.243
 6768TIP3    H120247   4.096   3.755   0.206
 6768TIP3    H220248   4.117   3.628   0.286
 6769TIP3   OH220249   3.465   7.344   5.671
 6769TIP3    H120250   3.486   7.273   5.610
 6769TIP3    H220251   3.369   7.349   5.670
 6770TIP3   OH220252   5.024   4.014   4.736
 6770TIP3    H120253   5.118   4.002   4.725
 6770TIP3    H220254   5.012   4.023   4.831
 6771TIP3   OH220255   6.125   5.895   3.010
 6771TIP3    H120256   6.046   5.883   3.062
 6771TIP3    H220257   6.189   5.934   3.070
 6772TIP3   OH220258   4.310   6.134   2.126
 6772TIP3    H120259   4.227   6.134   2.078
 6772TIP3    H220260   4.361   6.063   2.086
 6773TIP3   OH220261   3.412   5.542   2.068
 6773TIP3    H120262   3.457   5.617   2.109
 6773TIP3    H220263   3.409   5.476   2.137
 6774TIP3   OH220264   7.274   1.108   3.215
 6774TIP3    H120265   7.284   1.145   3.127
 6774TIP3    H220266   7.257   1.184   3.271
 6775TIP3   OH220267   5.635   2.167   3.120
 6775TIP3    H120268   5.661   2.253   3.087
 6775TIP3    H220269   5.701   2.145   3.186
 6776TIP3   OH220270   5.825   5.779   2.615
 6776TIP3    H120271   5.833   5.819   2.702
 6776TIP3    H220272   5.778   5.697   2.631
 6777TIP3   OH220273   5.889   5.662   3.890
 6777TIP3    H120274   5.937   5.597   3.941
 6777TIP3    H220275   5.798   5.633   3.893
 6778TIP3   OH220276   5.670   1.111   2.022
 6778TIP3    H120277   5.703   1.201   2.021
 6778TIP3    H220278   5.620   1.105   2.104
 6779TIP3   OH220279   5.379   7.756   2.600
 6779TIP3    H120280   5.389   7.774   2.506
 6779TIP3    H220281   5.461   7.714   2.625
 6780TIP3   OH220282   4.454   3.200   4.481
 6780TIP3    H120283   4.441   3.178   4.573
 6780TIP3    H220284   4.412   3.128   4.433
 6781TIP3   OH220285   6.935   7.268   2.902
 6781TIP3    H120286   6.984   7.230   2.975
 6781TIP3    H220287   6.883   7.338   2.941
 6782TIP3   OH220288   4.208   1.238   0.630
 6782TIP3    H120289   4.190   1.208   0.719
 6782TIP3    H220290   4.303   1.248   0.626
 6783TIP3   OH220291   4.225   6.640   1.773
 6783TIP3    H120292   4.298   6.702   1.772
 6783TIP3    H220293   4.260   6.562   1.816
 6784TIP3   OH220294   7.850   5.337   5.146
 6784TIP3    H120295   7.803   5.297   5.073
 6784TIP3    H220296   7.942   5.313   5.131
 6785TIP3   OH220297   2.064   2.149   0.993
 6785TIP3    H120298   2.010   2.182   0.922
 6785TIP3    H220299   2.053   2.054   0.990
 6786TIP3   OH220300   8.023   3.617   0.666
 6786TIP3    H120301   8.003   3.698   0.713
 6786TIP3    H220302   8.119   3.611   0.669
 6787TIP3   OH220303   2.036   7.249   2.588
 6787TIP3    H120304   2.011   7.236   2.679
 6787TIP3    H220305   1.967   7.207   2.537
 6788TIP3   OH220306   0.681   6.320   6.709
 6788TIP3    H120307   0.681   6.246   6.769
 6788TIP3    H220308   0.588   6.335   6.690
 6789TIP3   OH220309   6.242   0.791   2.756
 6789TIP3    H120310   6.222   0.787   2.849
 6789TIP3    H220311   6.336   0.772   2.751
 6790TIP3   OH220312   6.392   7.504   6.701
 6790TIP3    H120313   6.374   7.539   6.614
 6790TIP3    H220314   6.427   7.578   6.751
 6791TIP3   OH220315   4.170   6.533   6.747
 6791TIP3    H120316   4.211   6.569   6.668
 6791TIP3    H220317   4.077   6.533   6.728
 6792TIP3   OH220318   5.515   1.986   1.385
 6792TIP3    H120319   5.524   2.004   1.479
 6792TIP3    H220320   5.448   2.047   1.355
 6793TIP3   OH220321   7.261   5.515   5.065
 6793TIP3    H120322   7.327   5.542   5.001
 6793TIP3    H220323   7.244   5.423   5.044
 6794TIP3   OH220324   3.690   4.177   5.403
 6794TIP3    H120325   3.754   4.155   5.471
 6794TIP3    H220326   3.664   4.092   5.367
 6795TIP3   OH220327   7.331   1.558   4.934
 6795TIP3    H120328   7.382   1.504   4.873
 6795TIP3    H220329   7.245   1.566   4.893
 6796TIP3   OH220330   0.411   1.941   3.154
 6796TIP3    H120331   0.335   1.882   3.147
 6796TIP3    H220332   0.468   1.915   3.081
 6797TIP3   OH220333   6.936   7.679   4.418
 6797TIP3    H120334   6.943   7.625   4.496
 6797TIP3    H220335   6.849   7.718   4.424
 6798TIP3   OH220336   1.950   6.986   0.341
 6798TIP3    H120337   2.027   6.945   0.380
 6798TIP3    H220338   1.901   6.913   0.303
 6799TIP3   OH220339   4.780   6.117   1.445
 6799TIP3    H120340   4.710   6.170   1.483
 6799TIP3    H220341   4.818   6.173   1.377
 6800TIP3   OH220342   2.133   0.180   4.469
 6800TIP3    H120343   2.148   0.092   4.435
 6800TIP3    H220344   2.041   0.179   4.498
 6801TIP3   OH220345   0.820   4.518   4.965
 6801TIP3    H120346   0.737   4.525   4.919
 6801TIP3    H220347   0.821   4.430   5.001
 6802TIP3   OH220348   6.635   0.089   0.976
 6802TIP3    H120349   6.666   0.085   0.885
 6802TIP3    H220350   6.624  -0.002   1.002
 6803TIP3   OH220351   1.955   1.653   6.258
 6803TIP3    H120352   1.977   1.720   6.323
 6803TIP3    H220353   1.876   1.611   6.293
 6804TIP3   OH220354   3.023   6.096   1.869
 6804TIP3    H120355   2.934   6.082   1.903
 6804TIP3    H220356   3.039   6.190   1.885
 6805TIP3   OH220357   4.710   0.277   4.296
 6805TIP3    H120358   4.674   0.255   4.210
 6805TIP3    H220359   4.662   0.220   4.356
 6806TIP3   OH220360   7.967   7.187   2.447
 6806TIP3    H120361   7.875   7.212   2.452
 6806TIP3    H220362   7.984   7.142   2.530
 6807TIP3   OH220363   5.803   5.910   5.798
 6807TIP3    H120364   5.821   5.850   5.870
 6807TIP3    H220365   5.866   5.982   5.810
 6808TIP3   OH220366   2.860   4.235   3.725
 6808TIP3    H120367   2.823   4.181   3.795
 6808TIP3    H220368   2.950   4.252   3.753
 6809TIP3   OH220369   4.765   3.292   3.362
 6809TIP3    H120370   4.685   3.250   3.395
 6809TIP3    H220371   4.735   3.348   3.291
 6810TIP3   OH220372   5.419   7.665   3.729
 6810TIP3    H120373   5.372   7.622   3.658
 6810TIP3    H220374   5.458   7.743   3.689
 6811TIP3   OH220375   4.307   5.283   0.385
 6811TIP3    H120376   4.335   5.195   0.360
 6811TIP3    H220377   4.233   5.302   0.327
 6812TIP3   OH220378   2.676   7.361   3.846
 6812TIP3    H120379   2.648   7.275   3.813
 6812TIP3    H220380   2.768   7.348   3.870
 6813TIP3   OH220381   1.394   7.129   2.815
 6813TIP3    H120382   1.367   7.204   2.868
 6813TIP3    H220383   1.412   7.060   2.879
 6814TIP3   OH220384   0.735   3.129   1.911
 6814TIP3    H120385   0.685   3.188   1.967
 6814TIP3    H220386   0.821   3.170   1.903
 6815TIP3   OH220387   1.131   6.164   0.983
 6815TIP3    H120388   1.139   6.186   0.890
 6815TIP3    H220389   1.219   6.180   1.018
 6816TIP3   OH220390   4.271   6.205   5.468
 6816TIP3    H120391   4.332   6.272   5.437
 6816TIP3    H220392   4.276   6.136   5.402
 6817TIP3   OH220393   0.252   5.411   0.259
 6817TIP3    H120394   0.292   5.446   0.339
 6817TIP3    H220395   0.167   5.378   0.289
 6818TIP3   OH220396   0.981   2.338   3.161
 6818TIP3    H120397   0.978   2.350   3.256
 6818TIP3    H220398   0.988   2.243   3.148
 6819TIP3   OH220399   3.439   4.752   4.206
 6819TIP3    H120400   3.362   4.758   4.262
 6819TIP3    H220401   3.511   4.734   4.266
 6820TIP3   OH220402   6.217   4.634   0.887
 6820TIP3    H120403   6.147   4.627   0.952
 6820TIP3    H220404   6.214   4.551   0.840
 6821TIP3   OH220405   3.305   6.667   0.001
 6821TIP3    H120406   3.236   6.733   0.000
 6821TIP3    H220407   3.386   6.716   0.016
 6822TIP3   OH220408   2.342   6.325   3.758
 6822TIP3    H120409   2.295   6.408   3.756
 6822TIP3    H220410   2.430   6.346   3.727
 6823TIP3   OH220411   3.640   2.568   3.241
 6823TIP3    H120412   3.692   2.489   3.226
 6823TIP3    H220413   3.704   2.636   3.261
 6824TIP3   OH220414   2.694   7.779   0.779
 6824TIP3    H120415   2.774   7.728   0.792
 6824TIP3    H220416   2.655   7.786   0.867
 6825TIP3   OH220417   4.058   6.820   6.731
 6825TIP3    H120418   4.148   6.797   6.706
 6825TIP3    H220419   4.059   6.915   6.743
 6826TIP3   OH220420   4.405   3.213   5.094
 6826TIP3    H120421   4.392   3.130   5.141
 6826TIP3    H220422   4.448   3.187   5.012
 6827TIP3   OH220423   3.356   2.554   5.819
 6827TIP3    H120424   3.319   2.491   5.758
 6827TIP3    H220425   3.385   2.627   5.764
 6828TIP3   OH220426   6.570   4.526   5.517
 6828TIP3    H120427   6.586   4.546   5.425
 6828TIP3    H220428   6.491   4.472   5.516
 6829TIP3   OH220429   5.978   6.881   6.482
 6829TIP3    H120430   5.978   6.857   6.575
 6829TIP3    H220431   5.972   6.798   6.435
 6830TIP3   OH220432   8.012   3.370   2.006
 6830TIP3    H120433   8.064   3.399   1.931
 6830TIP3    H220434   8.062   3.399   2.083
 6831TIP3   OH220435   0.063   3.654   4.614
 6831TIP3    H120436   0.049   3.559   4.604
 6831TIP3    H220437   0.153   3.661   4.646
 6832TIP3   OH220438   2.454   6.815   4.987
 6832TIP3    H120439   2.457   6.861   4.903
 6832TIP3    H220440   2.423   6.880   5.050
 6833TIP3   OH220441   2.092   3.095   6.261
 6833TIP3    H120442   2.000   3.115   6.246
 6833TIP3    H220443   2.108   3.015   6.211
 6834TIP3   OH220444   0.398   2.768   5.350
 6834TIP3    H120445   0.313   2.782   5.308
 6834TIP3    H220446   0.450   2.723   5.283
 6835TIP3   OH220447   5.503   3.486   1.519
 6835TIP3    H120448   5.565   3.503   1.447
 6835TIP3    H220449   5.446   3.417   1.485
 6836TIP3   OH220450   7.070   2.223   0.732
 6836TIP3    H120451   7.078   2.128   0.722
 6836TIP3    H220452   7.064   2.238   0.826
 6837TIP3   OH220453   3.838   5.911   6.407
 6837TIP3    H120454   3.780   5.842   6.374
 6837TIP3    H220455   3.926   5.875   6.398
 6838TIP3   OH220456   4.042   5.665   4.229
 6838TIP3    H120457   4.102   5.597   4.199
 6838TIP3    H220458   3.964   5.653   4.176
 6839TIP3   OH220459   3.460   5.575   1.244
 6839TIP3    H120460   3.487   5.559   1.154
 6839TIP3    H220461   3.535   5.548   1.297
 6840TIP3   OH220462   6.125   0.259   4.924
 6840TIP3    H120463   6.123   0.164   4.941
 6840TIP3    H220464   6.033   0.285   4.929
 6841TIP3   OH220465   4.229   1.651   1.047
 6841TIP3    H120466   4.155   1.707   1.022
 6841TIP3    H220467   4.251   1.678   1.136
 6842TIP3   OH220468   3.716   2.089   2.364
 6842TIP3    H120469   3.780   2.048   2.422
 6842TIP3    H220470   3.647   2.121   2.422
 6843TIP3   OH220471   1.440   5.469   2.609
 6843TIP3    H120472   1.413   5.529   2.678
 6843TIP3    H220473   1.471   5.392   2.655
 6844TIP3   OH220474   1.769   1.276   6.391
 6844TIP3    H120475   1.719   1.206   6.349
 6844TIP3    H220476   1.814   1.233   6.464
 6845TIP3   OH220477   6.544   2.152   0.910
 6845TIP3    H120478   6.513   2.077   0.961
 6845TIP3    H220479   6.631   2.125   0.879
 6846TIP3   OH220480   5.751   7.884   3.642
 6846TIP3    H120481   5.831   7.850   3.682
 6846TIP3    H220482   5.728   7.819   3.576
 6847TIP3   OH220483   0.817   3.967   5.750
 6847TIP3    H120484   0.902   3.981   5.707
 6847TIP3    H220485   0.836   3.903   5.818
 6848TIP3   OH220486   7.090   7.231   4.755
 6848TIP3    H120487   7.104   7.209   4.663
 6848TIP3    H220488   7.129   7.158   4.804
 6849TIP3   OH220489   7.065   7.227   0.538
 6849TIP3    H120490   6.970   7.225   0.524
 6849TIP3    H220491   7.096   7.294   0.477
 6850TIP3   OH220492   1.831   1.520   5.632
 6850TIP3    H120493   1.805   1.506   5.541
 6850TIP3    H220494   1.862   1.610   5.635
 6851TIP3   OH220495   4.038   1.371   1.629
 6851TIP3    H120496   4.122   1.416   1.621
 6851TIP3    H220497   4.058   1.280   1.607
 6852TIP3   OH220498   2.331   1.518   1.853
 6852TIP3    H120499   2.276   1.492   1.928
 6852TIP3    H220500   2.300   1.607   1.832
 6853TIP3   OH220501   3.248   1.598   0.527
 6853TIP3    H120502   3.183   1.639   0.470
 6853TIP3    H220503   3.311   1.667   0.546
 6854TIP3   OH220504   1.243   5.496   0.739
 6854TIP3    H120505   1.338   5.489   0.741
 6854TIP3    H220506   1.215   5.426   0.680
 6855TIP3   OH220507   2.486   5.238   6.495
 6855TIP3    H120508   2.456   5.299   6.427
 6855TIP3    H220509   2.575   5.267   6.516
 6856TIP3   OH220510   3.181   6.347   6.094
 6856TIP3    H120511   3.179   6.413   6.025
 6856TIP3    H220512   3.207   6.395   6.173
 6857TIP3   OH220513   1.843   7.135   3.928
 6857TIP3    H120514   1.751   7.147   3.953
 6857TIP3    H220515   1.887   7.112   4.010
 6858TIP3   OH220516   5.543   4.226   3.287
 6858TIP3    H120517   5.484   4.294   3.255
 6858TIP3    H220518   5.581   4.187   3.208
 6859TIP3   OH220519   3.822   0.303   3.121
 6859TIP3    H120520   3.802   0.238   3.055
 6859TIP3    H220521   3.917   0.299   3.131
 6860TIP3   OH220522   6.038   2.880   6.756
 6860TIP3    H120523   6.037   2.818   6.683
 6860TIP3    H220524   5.990   2.836   6.826
 6861TIP3   OH220525   1.343   5.822   0.774
 6861TIP3    H120526   1.308   5.790   0.858
 6861TIP3    H220527   1.423   5.868   0.799
 6862TIP3   OH220528   4.898   6.282   5.931
 6862TIP3    H120529   4.890   6.278   6.027
 6862TIP3    H220530   4.841   6.355   5.906
 6863TIP3   OH220531   7.830   5.866   5.902
 6863TIP3    H120532   7.748   5.912   5.920
 6863TIP3    H220533   7.844   5.877   5.808
 6864TIP3   OH220534   6.255   2.911   5.425
 6864TIP3    H120535   6.283   2.947   5.509
 6864TIP3    H220536   6.243   2.989   5.369
 6865TIP3   OH220537   3.077   4.592   0.117
 6865TIP3    H120538   3.017   4.630   0.053
 6865TIP3    H220539   3.057   4.498   0.117
 6866TIP3   OH220540   7.138   5.593   5.946
 6866TIP3    H120541   7.132   5.508   5.903
 6866TIP3    H220542   7.074   5.589   6.017
 6867TIP3   OH220543   0.896   6.459   6.629
 6867TIP3    H120544   0.871   6.495   6.544
 6867TIP3    H220545   0.825   6.399   6.652
 6868TIP3   OH220546   0.479   1.679   1.952
 6868TIP3    H120547   0.396   1.630   1.950
 6868TIP3    H220548   0.509   1.679   1.861
 6869TIP3   OH220549   3.780   4.851   4.458
 6869TIP3    H120550   3.689   4.846   4.429
 6869TIP3    H220551   3.782   4.928   4.516
 6870TIP3   OH220552   5.412   4.581   5.879
 6870TIP3    H120553   5.465   4.619   5.950
 6870TIP3    H220554   5.371   4.656   5.837
 6871TIP3   OH220555   5.080   3.110   3.089
 6871TIP3    H120556   5.153   3.132   3.031
 6871TIP3    H220557   5.003   3.113   3.031
 6872TIP3   OH220558   3.782   0.220   2.536
 6872TIP3    H120559   3.689   0.240   2.545
 6872TIP3    H220560   3.784   0.126   2.515
 6873TIP3   OH220561   5.803   3.284   5.898
 6873TIP3    H120562   5.725   3.338   5.888
 6873TIP3    H220563   5.773   3.205   5.942
 6874TIP3   OH220564   7.897   2.253   0.114
 6874TIP3    H120565   7.968   2.208   0.161
 6874TIP3    H220566   7.936   2.335   0.085
 6875TIP3   OH220567   5.479   6.641   4.778
 6875TIP3    H120568   5.534   6.718   4.767
 6875TIP3    H220569   5.404   6.673   4.828
 6876TIP3   OH220570   3.459   6.420   2.417
 6876TIP3    H120571   3.405   6.431   2.339
 6876TIP3    H220572   3.545   6.393   2.383
 6877TIP3   OH220573   4.518   5.669   4.820
 6877TIP3    H120574   4.608   5.660   4.787
 6877TIP3    H220575   4.464   5.673   4.741
 6878TIP3   OH220576   7.336   0.314   2.566
 6878TIP3    H120577   7.322   0.400   2.607
 6878TIP3    H220578   7.280   0.254   2.616
 6879TIP3   OH220579   5.998   6.017   1.170
 6879TIP3    H120580   5.946   5.966   1.233
 6879TIP3    H220581   6.044   5.951   1.118
 6880TIP3   OH220582   1.702   2.926   4.905
 6880TIP3    H120583   1.777   2.867   4.898
 6880TIP3    H220584   1.724   2.998   4.845
 6881TIP3   OH220585   3.867   1.677   1.781
 6881TIP3    H120586   3.847   1.723   1.862
 6881TIP3    H220587   3.932   1.733   1.737
 6882TIP3   OH220588   7.059   2.097   2.811
 6882TIP3    H120589   6.996   2.121   2.743
 6882TIP3    H220590   7.025   2.017   2.850
 6883TIP3   OH220591   4.370   0.727   1.198
 6883TIP3    H120592   4.364   0.634   1.220
 6883TIP3    H220593   4.440   0.761   1.254
 6884TIP3   OH220594   7.685   7.321   4.303
 6884TIP3    H120595   7.630   7.347   4.228
 6884TIP3    H220596   7.696   7.402   4.354
 6885TIP3   OH220597   0.094   1.344   4.532
 6885TIP3    H120598   0.015   1.311   4.490
 6885TIP3    H220599   0.127   1.411   4.472
 6886TIP3   OH220600   6.562   2.518   3.642
 6886TIP3    H120601   6.608   2.463   3.706
 6886TIP3    H220602   6.608   2.602   3.644
 6887TIP3   OH220603   2.916   0.352   4.052
 6887TIP3    H120604   2.970   0.273   4.054
 6887TIP3    H220605   2.965   0.416   4.104
 6888TIP3   OH220606   5.797   2.159   1.782
 6888TIP3    H120607   5.844   2.138   1.863
 6888TIP3    H220608   5.865   2.162   1.715
 6889TIP3   OH220609   7.747   0.023   2.430
 6889TIP3    H120610   7.749  -0.072   2.439
 6889TIP3    H220611   7.824   0.054   2.477
 6890TIP3   OH220612   2.537   4.140   6.577
 6890TIP3    H120613   2.628   4.132   6.605
 6890TIP3    H220614   2.488   4.079   6.632
 6891TIP3   OH220615   6.836   2.352   1.769
 6891TIP3    H120616   6.911   2.359   1.828
 6891TIP3    H220617   6.830   2.259   1.749
 6892TIP3   OH220618   4.881   6.172   5.645
 6892TIP3    H120619   4.877   6.201   5.736
 6892TIP3    H220620   4.931   6.090   5.648
 6893TIP3   OH220621   5.111   0.725   2.631
 6893TIP3    H120622   5.055   0.700   2.557
 6893TIP3    H220623   5.137   0.641   2.670
 6894TIP3   OH220624   8.183   4.710   6.485
 6894TIP3    H120625   8.164   4.746   6.572
 6894TIP3    H220626   8.228   4.781   6.439
 6895TIP3   OH220627   3.650   6.879   2.869
 6895TIP3    H120628   3.568   6.863   2.823
 6895TIP3    H220629   3.657   6.808   2.932
 6896TIP3   OH220630   5.648   2.781   0.262
 6896TIP3    H120631   5.677   2.750   0.348
 6896TIP3    H220632   5.618   2.702   0.217
 6897TIP3   OH220633   0.109   5.833   0.824
 6897TIP3    H120634   0.169   5.798   0.890
 6897TIP3    H220635   0.161   5.896   0.775
 6898TIP3   OH220636   1.310   2.456   6.664
 6898TIP3    H120637   1.322   2.429   6.755
 6898TIP3    H220638   1.314   2.375   6.614
 6899TIP3   OH220639   8.058   2.611   0.327
 6899TIP3    H120640   8.032   2.690   0.279
 6899TIP3    H220641   8.030   2.538   0.272
 6900TIP3   OH220642   7.489   4.970   3.067
 6900TIP3    H120643   7.428   5.043   3.057
 6900TIP3    H220644   7.447   4.897   3.022
 6901TIP3   OH220645   7.920   2.893   3.623
 6901TIP3    H120646   7.975   2.828   3.667
 6901TIP3    H220647   7.966   2.911   3.541
 6902TIP3   OH220648   8.226   4.028   2.479
 6902TIP3    H120649   8.155   4.048   2.418
 6902TIP3    H220650   8.221   4.097   2.545
 6903TIP3   OH220651   1.606   6.431   5.608
 6903TIP3    H120652   1.592   6.440   5.514
 6903TIP3    H220653   1.701   6.434   5.618
 6904TIP3   OH220654   7.001   6.993   4.243
 6904TIP3    H120655   6.922   6.951   4.210
 6904TIP3    H220656   7.052   6.922   4.281
 6905TIP3   OH220657   4.984   7.259   0.207
 6905TIP3    H120658   4.975   7.260   0.112
 6905TIP3    H220659   4.978   7.351   0.233
 6906TIP3   OH220660   4.119   4.453   1.916
 6906TIP3    H120661   4.159   4.529   1.958
 6906TIP3    H220662   4.028   4.455   1.944
 6907TIP3   OH220663   3.317   3.735   0.039
 6907TIP3    H120664   3.346   3.819   0.001
 6907TIP3    H220665   3.234   3.755   0.080
 6908TIP3   OH220666   0.731   7.594   6.110
 6908TIP3    H120667   0.693   7.594   6.198
 6908TIP3    H220668   0.677   7.533   6.060
 6909TIP3   OH220669   4.294   5.967   0.885
 6909TIP3    H120670   4.263   5.974   0.975
 6909TIP3    H220671   4.376   5.919   0.891
 6910TIP3   OH220672   1.734   3.704   5.196
 6910TIP3    H120673   1.770   3.767   5.259
 6910TIP3    H220674   1.809   3.680   5.141
 6911TIP3   OH220675   5.124   6.546   5.841
 6911TIP3    H120676   5.196   6.562   5.901
 6911TIP3    H220677   5.141   6.458   5.806
 6912TIP3   OH220678   2.952   3.295   0.827
 6912TIP3    H120679   2.863   3.318   0.854
 6912TIP3    H220680   2.942   3.213   0.780
 6913TIP3   OH220681   0.428   7.322   1.719
 6913TIP3    H120682   0.430   7.355   1.809
 6913TIP3    H220683   0.361   7.376   1.676
 6914TIP3   OH220684   5.553   2.271   4.698
 6914TIP3    H120685   5.526   2.188   4.658
 6914TIP3    H220686   5.551   2.334   4.627
 6915TIP3   OH220687   0.431   3.108   1.278
 6915TIP3    H120688   0.517   3.074   1.303
 6915TIP3    H220689   0.436   3.202   1.294
 6916TIP3   OH220690   1.026   3.664   3.970
 6916TIP3    H120691   0.980   3.624   3.897
 6916TIP3    H220692   0.963   3.726   4.007
 6917TIP3   OH220693   6.201   4.126   0.240
 6917TIP3    H120694   6.247   4.099   0.161
 6917TIP3    H220695   6.108   4.127   0.214
 6918TIP3   OH220696   4.680   2.271   3.065
 6918TIP3    H120697   4.768   2.245   3.090
 6918TIP3    H220698   4.668   2.234   2.977
 6919TIP3   OH220699   0.168   7.411   1.018
 6919TIP3    H120700   0.180   7.318   0.998
 6919TIP3    H220701   0.128   7.447   0.939
 6920TIP3   OH220702   7.208   6.753   0.454
 6920TIP3    H120703   7.216   6.830   0.397
 6920TIP3    H220704   7.211   6.678   0.394
 6921TIP3   OH220705   5.746   6.757   1.174
 6921TIP3    H120706   5.756   6.811   1.252
 6921TIP3    H220707   5.686   6.687   1.200
 6922TIP3   OH220708   1.105   3.610   0.179
 6922TIP3    H120709   1.134   3.699   0.201
 6922TIP3    H220710   1.171   3.578   0.118
 6923TIP3   OH220711   8.093   2.794  -0.031
 6923TIP3    H120712   8.015   2.847  -0.048
 6923TIP3    H220713   8.111   2.806   0.062
 6924TIP3   OH220714   0.187   0.526   2.728
 6924TIP3    H120715   0.274   0.499   2.758
 6924TIP3    H220716   0.180   0.488   2.640
 6925TIP3   OH220717   1.992   0.125   5.621
 6925TIP3    H120718   1.919   0.065   5.640
 6925TIP3    H220719   2.009   0.169   5.704
 6926TIP3   OH220720   3.997   0.813   2.581
 6926TIP3    H120721   4.036   0.788   2.665
 6926TIP3    H220722   3.908   0.841   2.602
 6927TIP3   OH220723   3.241   0.967   0.679
 6927TIP3    H120724   3.322   0.930   0.715
 6927TIP3    H220725   3.267   1.005   0.596
 6928TIP3   OH220726   4.892   2.941   1.401
 6928TIP3    H120727   4.976   2.896   1.392
 6928TIP3    H220728   4.914   3.034   1.396
 6929TIP3   OH220729   3.138   7.474   2.355
 6929TIP3    H120730   3.062   7.512   2.310
 6929TIP3    H220731   3.147   7.386   2.319
 6930TIP3   OH220732   0.665   4.112   2.353
 6930TIP3    H120733   0.645   4.040   2.293
 6930TIP3    H220734   0.645   4.191   2.303
 6931TIP3   OH220735   7.588   7.114   6.498
 6931TIP3    H120736   7.540   7.032   6.500
 6931TIP3    H220737   7.593   7.137   6.405
 6932TIP3   OH220738   8.320   4.318   5.360
 6932TIP3    H120739   8.363   4.388   5.309
 6932TIP3    H220740   8.236   4.356   5.385
 6933TIP3   OH220741   6.628   0.239   0.527
 6933TIP3    H120742   6.633   0.230   0.432
 6933TIP3    H220743   6.581   0.321   0.541
 6934TIP3   OH220744   6.372   6.586   4.378
 6934TIP3    H120745   6.460   6.606   4.408
 6934TIP3    H220746   6.368   6.620   4.288
 6935TIP3   OH220747   7.873   0.489   0.846
 6935TIP3    H120748   7.881   0.528   0.759
 6935TIP3    H220749   7.934   0.414   0.845
 6936TIP3   OH220750   7.378   1.265   2.252
 6936TIP3    H120751   7.289   1.273   2.217
 6936TIP3    H220752   7.390   1.171   2.267
 6937TIP3   OH220753   1.173   2.414   0.613
 6937TIP3    H120754   1.211   2.331   0.584
 6937TIP3    H220755   1.246   2.460   0.654
 6938TIP3   OH220756   2.958   7.783  -0.007
 6938TIP3    H120757   3.012   7.858   0.020
 6938TIP3    H220758   2.912   7.756   0.072
 6939TIP3   OH220759   1.247   0.865   3.816
 6939TIP3    H120760   1.294   0.786   3.790
 6939TIP3    H220761   1.157   0.836   3.830
 6940TIP3   OH220762   3.717   4.677   1.217
 6940TIP3    H120763   3.740   4.706   1.306
 6940TIP3    H220764   3.678   4.590   1.229
 6941TIP3   OH220765   1.076   5.600   5.070
 6941TIP3    H120766   1.121   5.553   5.000
 6941TIP3    H220767   1.095   5.549   5.149
 6942TIP3   OH220768   0.193   1.004   0.537
 6942TIP3    H120769   0.231   0.992   0.450
 6942TIP3    H220770   0.135   1.080   0.527
 6943TIP3   OH220771   7.845   2.445   0.865
 6943TIP3    H120772   7.903   2.369   0.860
 6943TIP3    H220773   7.794   2.441   0.784
 6944TIP3   OH220774   5.344   1.119   6.192
 6944TIP3    H120775   5.331   1.164   6.275
 6944TIP3    H220776   5.411   1.172   6.147
 6945TIP3   OH220777   5.962   1.784   0.214
 6945TIP3    H120778   5.866   1.787   0.207
 6945TIP3    H220779   5.979   1.743   0.298
 6946TIP3   OH220780   3.762   4.253   6.200
 6946TIP3    H120781   3.782   4.179   6.143
 6946TIP3    H220782   3.671   4.239   6.227
 6947TIP3   OH220783   1.071   5.604   6.787
 6947TIP3    H120784   1.004   5.577   6.723
 6947TIP3    H220785   1.152   5.566   6.753
 6948TIP3   OH220786   3.952   7.156   4.624
 6948TIP3    H120787   3.961   7.194   4.712
 6948TIP3    H220788   3.957   7.231   4.565
 6949TIP3   OH220789   2.545   2.982   1.239
 6949TIP3    H120790   2.597   3.036   1.179
 6949TIP3    H220791   2.528   3.038   1.314
 6950TIP3   OH220792   3.652   6.595   1.169
 6950TIP3    H120793   3.746   6.602   1.149
 6950TIP3    H220794   3.634   6.501   1.165
 6951TIP3   OH220795   5.594   2.019   1.664
 6951TIP3    H120796   5.682   2.054   1.654
 6951TIP3    H220797   5.542   2.094   1.693
 6952TIP3   OH220798   5.679   1.833   0.427
 6952TIP3    H120799   5.769   1.843   0.456
 6952TIP3    H220800   5.643   1.762   0.481
 6953TIP3   OH220801   7.313   4.255   6.076
 6953TIP3    H120802   7.263   4.180   6.110
 6953TIP3    H220803   7.381   4.270   6.142
 6954TIP3   OH220804   4.337   2.983   2.907
 6954TIP3    H120805   4.419   3.002   2.953
 6954TIP3    H220806   4.364   2.940   2.826
 6955TIP3   OH220807   7.037   5.232   1.787
 6955TIP3    H120808   6.978   5.193   1.851
 6955TIP3    H220809   6.987   5.305   1.751
 6956TIP3   OH220810   2.527   3.022   2.029
 6956TIP3    H120811   2.614   2.995   2.000
 6956TIP3    H220812   2.542   3.105   2.075
 6957TIP3   OH220813   7.109   6.226   4.872
 6957TIP3    H120814   7.092   6.320   4.877
 6957TIP3    H220815   7.105   6.195   4.963
 6958TIP3   OH220816   1.531   3.764   2.017
 6958TIP3    H120817   1.602   3.786   1.957
 6958TIP3    H220818   1.494   3.848   2.042
 6959TIP3   OH220819   2.521   1.737   5.927
 6959TIP3    H120820   2.467   1.814   5.911
 6959TIP3    H220821   2.479   1.693   6.001
 6960TIP3   OH220822   1.314   7.463   3.630
 6960TIP3    H120823   1.329   7.379   3.672
 6960TIP3    H220824   1.229   7.492   3.664
 6961TIP3   OH220825   6.135   5.810   3.901
 6961TIP3    H120826   6.164   5.887   3.950
 6961TIP3    H220827   6.041   5.806   3.916
 6962TIP3   OH220828   6.724   1.616   3.304
 6962TIP3    H120829   6.749   1.556   3.234
 6962TIP3    H220830   6.665   1.566   3.359
 6963TIP3   OH220831  -0.067   6.740   2.321
 6963TIP3    H120832   0.028   6.732   2.317
 6963TIP3    H220833  -0.086   6.749   2.414
 6964TIP3   OH220834   2.981   3.574   4.051
 6964TIP3    H120835   2.923   3.573   4.127
 6964TIP3    H220836   3.067   3.597   4.086
 6965TIP3   OH220837   0.429   0.774   4.664
 6965TIP3    H120838   0.379   0.741   4.739
 6965TIP3    H220839   0.371   0.838   4.622
 6966TIP3   OH220840   1.330   3.769   1.202
 6966TIP3    H120841   1.388   3.831   1.158
 6966TIP3    H220842   1.326   3.694   1.142
 6967TIP3   OH220843   4.073   5.949   3.143
 6967TIP3    H120844   4.153   5.973   3.190
 6967TIP3    H220845   4.004   5.999   3.187
 6968TIP3   OH220846   7.250   5.932   5.365
 6968TIP3    H120847   7.277   5.889   5.447
 6968TIP3    H220848   7.207   5.863   5.315
 6969TIP3   OH220849   2.375   4.267   3.273
 6969TIP3    H120850   2.361   4.336   3.339
 6969TIP3    H220851   2.452   4.220   3.304
 6970TIP3   OH220852   0.253   2.188   5.292
 6970TIP3    H120853   0.232   2.144   5.373
 6970TIP3    H220854   0.262   2.280   5.316
 6971TIP3   OH220855   7.765   6.450   6.405
 6971TIP3    H120856   7.818   6.411   6.475
 6971TIP3    H220857   7.695   6.386   6.390
 6972TIP3   OH220858   7.744   2.622  -0.011
 6972TIP3    H120859   7.699   2.558  -0.066
 6972TIP3    H220860   7.701   2.705  -0.030
 6973TIP3   OH220861   1.827   6.068   0.935
 6973TIP3    H120862   1.825   6.033   0.846
 6973TIP3    H220863   1.920   6.079   0.954
 6974TIP3   OH220864   7.548   0.725   6.539
 6974TIP3    H120865   7.583   0.808   6.506
 6974TIP3    H220866   7.548   0.667   6.462
 6975TIP3   OH220867   7.270   0.696   0.361
 6975TIP3    H120868   7.259   0.649   0.278
 6975TIP3    H220869   7.217   0.775   0.351
 6976TIP3   OH220870   6.448   6.312   5.183
 6976TIP3    H120871   6.398   6.311   5.101
 6976TIP3    H220872   6.501   6.391   5.178
 6977TIP3   OH220873   4.295   7.630   0.247
 6977TIP3    H120874   4.282   7.661   0.337
 6977TIP3    H220875   4.389   7.630   0.235
 6978TIP3   OH220876  -0.024   4.466   1.256
 6978TIP3    H120877   0.051   4.526   1.256
 6978TIP3    H220878  -0.024   4.428   1.344
 6979TIP3   OH220879   4.467   1.921   4.242
 6979TIP3    H120880   4.376   1.948   4.226
 6979TIP3    H220881   4.509   2.000   4.275
 6980TIP3   OH220882   0.744   0.040   3.719
 6980TIP3    H120883   0.712   0.095   3.648
 6980TIP3    H220884   0.835   0.023   3.697
 6981TIP3   OH220885   3.725   6.338   1.166
 6981TIP3    H120886   3.791   6.311   1.101
 6981TIP3    H220887   3.776   6.364   1.242
 6982TIP3   OH220888   4.848   1.633   5.356
 6982TIP3    H120889   4.855   1.549   5.310
 6982TIP3    H220890   4.938   1.666   5.358
 6983TIP3   OH220891   3.666   2.862   3.609
 6983TIP3    H120892   3.731   2.928   3.587
 6983TIP3    H220893   3.588   2.887   3.559
 6984TIP3   OH220894   5.013   5.217   0.905
 6984TIP3    H120895   4.964   5.223   0.822
 6984TIP3    H220896   4.961   5.158   0.959
 6985TIP3   OH220897   7.947   2.375   1.934
 6985TIP3    H120898   8.015   2.310   1.955
 6985TIP3    H220899   7.868   2.341   1.975
 6986TIP3   OH220900   2.581   7.279   1.847
 6986TIP3    H120901   2.603   7.187   1.835
 6986TIP3    H220902   2.491   7.287   1.816
 6987TIP3   OH220903   6.838   0.437   2.632
 6987TIP3    H120904   6.751   0.470   2.611
 6987TIP3    H220905   6.859   0.477   2.717
 6988TIP3   OH220906   4.218   0.902   2.070
 6988TIP3    H120907   4.179   0.963   2.008
 6988TIP3    H220908   4.233   0.954   2.149
 6989TIP3   OH220909   3.424   7.624   3.132
 6989TIP3    H120910   3.470   7.704   3.107
 6989TIP3    H220911   3.399   7.583   3.049
 6990TIP3   OH220912   1.829   2.100   2.987
 6990TIP3    H120913   1.777   2.022   2.968
 6990TIP3    H220914   1.786   2.170   2.939
 6991TIP3   OH220915   5.013   1.523   0.691
 6991TIP3    H120916   5.046   1.612   0.685
 6991TIP3    H220917   4.957   1.513   0.614
 6992TIP3   OH220918   4.026   7.187   3.752
 6992TIP3    H120919   4.046   7.280   3.741
 6992TIP3    H220920   4.077   7.144   3.683
 6993TIP3   OH220921   3.225   1.170   3.937
 6993TIP3    H120922   3.158   1.196   3.873
 6993TIP3    H220923   3.178   1.116   4.000
 6994TIP3   OH220924   1.020   7.580   3.700
 6994TIP3    H120925   1.017   7.588   3.796
 6994TIP3    H220926   1.031   7.669   3.669
 6995TIP3   OH220927   0.916   6.142   3.711
 6995TIP3    H120928   0.987   6.095   3.668
 6995TIP3    H220929   0.868   6.185   3.640
 6996TIP3   OH220930   1.883   6.886   0.921
 6996TIP3    H120931   1.939   6.866   0.845
 6996TIP3    H220932   1.915   6.829   0.991
 6997TIP3   OH220933   4.061   7.158   5.225
 6997TIP3    H120934   3.973   7.185   5.251
 6997TIP3    H220935   4.119   7.204   5.285
 6998TIP3   OH220936   0.483   2.161   1.199
 6998TIP3    H120937   0.531   2.201   1.271
 6998TIP3    H220938   0.508   2.213   1.122
 6999TIP3   OH220939   0.708   2.677   4.886
 6999TIP3    H120940   0.693   2.600   4.831
 6999TIP3    H220941   0.732   2.746   4.825
 7000TIP3   OH220942   5.065   2.286   5.630
 7000TIP3    H120943   4.972   2.303   5.641
 7000TIP3    H220944   5.108   2.361   5.673
 7001TIP3   OH220945   3.122   1.432   4.872
 7001TIP3    H120946   3.136   1.371   4.944
 7001TIP3    H220947   3.144   1.518   4.908
 7002TIP3   OH220948   0.052   7.501   1.944
 7002TIP3    H120949  -0.018   7.436   1.934
 7002TIP3    H220950   0.040   7.560   1.869
 7003TIP3   OH220951   3.372   0.600   1.321
 7003TIP3    H120952   3.353   0.645   1.403
 7003TIP3    H220953   3.406   0.515   1.349
 7004TIP3   OH220954   0.318   3.445   0.319
 7004TIP3    H120955   0.363   3.439   0.234
 7004TIP3    H220956   0.291   3.355   0.337
 7005TIP3   OH220957   6.216   2.826   0.736
 7005TIP3    H120958   6.257   2.893   0.790
 7005TIP3    H220959   6.224   2.745   0.787
 7006TIP3   OH220960   4.706   1.207   4.025
 7006TIP3    H120961   4.733   1.151   3.953
 7006TIP3    H220962   4.723   1.296   3.994
 7007TIP3   OH220963   3.006   2.037   5.622
 7007TIP3    H120964   2.995   2.131   5.639
 7007TIP3    H220965   2.990   2.028   5.528
 7008TIP3   OH220966   1.478   3.995   3.602
 7008TIP3    H120967   1.525   4.035   3.529
 7008TIP3    H220968   1.507   3.904   3.601
 7009TIP3   OH220969   0.351   5.161   2.922
 7009TIP3    H120970   0.439   5.193   2.899
 7009TIP3    H220971   0.308   5.146   2.838
 7010TIP3   OH220972   0.936   2.627   1.993
 7010TIP3    H120973   0.856   2.593   2.032
 7010TIP3    H220974   0.975   2.682   2.061
 7011TIP3   OH220975   5.894   5.432   3.619
 7011TIP3    H120976   5.962   5.367   3.638
 7011TIP3    H220977   5.937   5.516   3.632
 7012TIP3   OH220978   4.280   4.783   5.687
 7012TIP3    H120979   4.250   4.733   5.763
 7012TIP3    H220980   4.240   4.739   5.612
 7013TIP3   OH220981   5.248   3.023   4.529
 7013TIP3    H120982   5.306   2.949   4.548
 7013TIP3    H220983   5.259   3.082   4.604
 7014TIP3   OH220984   1.297   4.786   4.299
 7014TIP3    H120985   1.230   4.734   4.343
 7014TIP3    H220986   1.322   4.733   4.223
 7015TIP3   OH220987   5.394   6.718   1.678
 7015TIP3    H120988   5.375   6.812   1.678
 7015TIP3    H220989   5.490   6.713   1.681
 7016TIP3   OH220990   5.151   2.113   6.616
 7016TIP3    H120991   5.106   2.044   6.665
 7016TIP3    H220992   5.223   2.140   6.672
 7017TIP3   OH220993   7.267   1.306   5.196
 7017TIP3    H120994   7.211   1.351   5.259
 7017TIP3    H220995   7.213   1.297   5.118
 7018TIP3   OH220996   3.616   6.795   0.637
 7018TIP3    H120997   3.675   6.782   0.711
 7018TIP3    H220998   3.664   6.851   0.577
 7019TIP3   OH220999   6.015   5.775   6.318
 7019TIP3    H121000   6.020   5.745   6.408
 7019TIP3    H221001   6.068   5.713   6.268
 7020TIP3   OH221002   2.179   0.710   6.384
 7020TIP3    H121003   2.132   0.780   6.429
 7020TIP3    H221004   2.111   0.654   6.347
 7021TIP3   OH221005   4.244   1.330   3.140
 7021TIP3    H121006   4.211   1.408   3.095
 7021TIP3    H221007   4.180   1.313   3.209
 7022TIP3   OH221008   8.010   0.941   5.404
 7022TIP3    H121009   8.099   0.959   5.434
 7022TIP3    H221010   7.989   1.015   5.346
 7023TIP3   OH221011   2.465   2.823   4.053
 7023TIP3    H121012   2.542   2.836   3.998
 7023TIP3    H221013   2.442   2.910   4.084
 7024TIP3   OH221014   8.110   5.234   5.998
 7024TIP3    H121015   8.044   5.304   5.997
 7024TIP3    H221016   8.186   5.274   6.041
 7025TIP3   OH221017   1.438   3.130   5.013
 7025TIP3    H121018   1.484   3.208   4.984
 7025TIP3    H221019   1.503   3.079   5.061
 7026TIP3   OH221020   6.209   1.977   3.554
 7026TIP3    H121021   6.192   2.071   3.556
 7026TIP3    H221022   6.277   1.963   3.619
 7027TIP3   OH221023   2.800   2.500   6.548
 7027TIP3    H121024   2.744   2.469   6.619
 7027TIP3    H221025   2.767   2.587   6.527
 7028TIP3   OH221026   3.450   3.026   5.706
 7028TIP3    H121027   3.368   3.054   5.748
 7028TIP3    H221028   3.506   2.999   5.778
 7029TIP3   OH221029   3.233   5.511   5.835
 7029TIP3    H121030   3.240   5.565   5.914
 7029TIP3    H221031   3.142   5.483   5.833
 7030TIP3   OH221032   0.586   4.198   0.596
 7030TIP3    H121033   0.625   4.278   0.631
 7030TIP3    H221034   0.615   4.129   0.656
 7031TIP3   OH221035   4.700   7.302   0.248
 7031TIP3    H121036   4.696   7.243   0.323
 7031TIP3    H221037   4.780   7.276   0.202
 7032TIP3   OH221038   2.849   4.216   3.110
 7032TIP3    H121039   2.817   4.129   3.134
 7032TIP3    H221040   2.933   4.224   3.155
 7033TIP3   OH221041   7.859   6.288   5.060
 7033TIP3    H121042   7.825   6.212   5.107
 7033TIP3    H221043   7.863   6.357   5.127
 7034TIP3   OH221044   5.695   2.136   3.600
 7034TIP3    H121045   5.623   2.105   3.654
 7034TIP3    H221046   5.654   2.193   3.535
 7035TIP3   OH221047   4.734   0.243   3.551
 7035TIP3    H121048   4.718   0.306   3.481
 7035TIP3    H221049   4.701   0.160   3.516
 7036TIP3   OH221050   8.173   7.505   5.594
 7036TIP3    H121051   8.097   7.460   5.558
 7036TIP3    H221052   8.178   7.587   5.545
 7037TIP3   OH221053   1.224   1.711   3.043
 7037TIP3    H121054   1.214   1.692   3.136
 7037TIP3    H221055   1.236   1.625   3.002
 7038TIP3   OH221056   4.883   3.454   0.417
 7038TIP3    H121057   4.911   3.502   0.340
 7038TIP3    H221058   4.791   3.478   0.428
 7039TIP3   OH221059   5.984   5.086   4.975
 7039TIP3    H121060   5.919   5.063   4.909
 7039TIP3    H221061   6.002   5.003   5.021
 7040TIP3   OH221062   7.772   4.566   4.775
 7040TIP3    H121063   7.811   4.646   4.738
 7040TIP3    H221064   7.810   4.559   4.862
 7041TIP3   OH221065   3.263   5.960   1.612
 7041TIP3    H121066   3.251   5.908   1.533
 7041TIP3    H221067   3.236   5.903   1.683
 7042TIP3   OH221068   0.207   5.137   5.577
 7042TIP3    H121069   0.181   5.140   5.669
 7042TIP3    H221070   0.146   5.197   5.533
 7043TIP3   OH221071   7.883   0.620   5.796
 7043TIP3    H121072   7.827   0.675   5.742
 7043TIP3    H221073   7.966   0.667   5.803
 7044TIP3   OH221074   5.865   7.276   6.227
 7044TIP3    H121075   5.889   7.200   6.281
 7044TIP3    H221076   5.933   7.279   6.159
 7045TIP3   OH221077   6.386   6.838   2.762
 7045TIP3    H121078   6.326   6.863   2.832
 7045TIP3    H221079   6.467   6.813   2.807
 7046TIP3   OH221080   6.664   7.109   1.799
 7046TIP3    H121081   6.621   7.131   1.882
 7046TIP3    H221082   6.629   7.022   1.777
 7047TIP3   OH221083   8.247   6.497   5.696
 7047TIP3    H121084   8.171   6.549   5.669
 7047TIP3    H221085   8.221   6.407   5.678
 7048TIP3   OH221086   6.189   1.692   4.242
 7048TIP3    H121087   6.103   1.679   4.281
 7048TIP3    H221088   6.178   1.663   4.151
 7049TIP3   OH221089   8.111   2.033   0.596
 7049TIP3    H121090   8.109   2.116   0.643
 7049TIP3    H221091   8.127   2.057   0.505
 7050TIP3   OH221092   1.447   1.470   5.134
 7050TIP3    H121093   1.443   1.535   5.205
 7050TIP3    H221094   1.444   1.522   5.054
 7051TIP3   OH221095   2.153   6.280   1.179
 7051TIP3    H121096   2.209   6.341   1.227
 7051TIP3    H221097   2.126   6.216   1.245
 7052TIP3   OH221098   2.170   4.859   0.701
 7052TIP3    H121099   2.192   4.864   0.608
 7052TIP3    H221100   2.238   4.803   0.739
 7053TIP3   OH221101   5.183   5.386   2.071
 7053TIP3    H121102   5.234   5.436   2.134
 7053TIP3    H221103   5.228   5.398   1.987
 7054TIP3   OH221104   2.674   3.336   4.533
 7054TIP3    H121105   2.735   3.348   4.606
 7054TIP3    H221106   2.592   3.309   4.573
 7055TIP3   OH221107   7.933   6.894   5.704
 7055TIP3    H121108   7.889   6.964   5.753
 7055TIP3    H221109   7.902   6.813   5.746
 7056TIP3   OH221110   7.118   5.002   3.923
 7056TIP3    H121111   7.172   5.042   3.855
 7056TIP3    H221112   7.180   4.954   3.978
 7057TIP3   OH221113   5.106   3.698   3.825
 7057TIP3    H121114   5.121   3.705   3.731
 7057TIP3    H221115   5.087   3.787   3.854
 7058TIP3   OH221116   7.226   5.532   0.966
 7058TIP3    H121117   7.196   5.473   1.035
 7058TIP3    H221118   7.159   5.601   0.962
 7059TIP3   OH221119   6.985   4.826   4.796
 7059TIP3    H121120   7.027   4.740   4.802
 7059TIP3    H221121   7.034   4.881   4.857
 7060TIP3   OH221122   4.801   4.744  -0.004
 7060TIP3    H121123   4.869   4.775   0.056
 7060TIP3    H221124   4.835   4.662  -0.040
 7061TIP3   OH221125   4.034   0.948   2.337
 7061TIP3    H121126   4.023   0.896   2.416
 7061TIP3    H221127   4.108   1.006   2.357
 7062TIP3   OH221128   3.990   4.227   1.524
 7062TIP3    H121129   3.933   4.288   1.572
 7062TIP3    H221130   4.067   4.279   1.502
 7063TIP3   OH221131   6.931   7.834   3.172
 7063TIP3    H121132   6.960   7.746   3.199
 7063TIP3    H221133   6.975   7.849   3.088
 7064TIP3   OH221134   0.532   2.154   5.559
 7064TIP3    H121135   0.533   2.058   5.553
 7064TIP3    H221136   0.623   2.178   5.577
 7065TIP3   OH221137   7.565   0.617   1.798
 7065TIP3    H121138   7.484   0.567   1.791
 7065TIP3    H221139   7.617   0.591   1.723
 7066TIP3   OH221140   7.309   4.562   6.255
 7066TIP3    H121141   7.403   4.568   6.269
 7066TIP3    H221142   7.297   4.581   6.162
 7067TIP3   OH221143   7.327   7.851   4.284
 7067TIP3    H121144   7.283   7.774   4.247
 7067TIP3    H221145   7.420   7.826   4.287
 7068TIP3   OH221146   6.899   3.153   5.036
 7068TIP3    H121147   6.958   3.216   5.077
 7068TIP3    H221148   6.812   3.176   5.068
 7069TIP3   OH221149   4.113   5.562   3.935
 7069TIP3    H121150   4.167   5.636   3.964
 7069TIP3    H221151   4.099   5.577   3.842
 7070TIP3   OH221152   1.378   3.143   6.648
 7070TIP3    H121153   1.349   3.221   6.695
 7070TIP3    H221154   1.464   3.166   6.614
 7071TIP3   OH221155   0.874   3.448   1.429
 7071TIP3    H121156   0.880   3.364   1.474
 7071TIP3    H221157   0.883   3.513   1.498
 7072TIP3   OH221158   5.853   1.128   3.501
 7072TIP3    H121159   5.848   1.220   3.473
 7072TIP3    H221160   5.947   1.108   3.498
 7073TIP3   OH221161   4.785   0.106   1.015
 7073TIP3    H121162   4.877   0.100   0.991
 7073TIP3    H221163   4.781   0.074   1.105
 7074TIP3   OH221164   3.776   6.831   5.968
 7074TIP3    H121165   3.784   6.736   5.977
 7074TIP3    H221166   3.847   6.856   5.910
 7075TIP3   OH221167   3.342   1.638   4.369
 7075TIP3    H121168   3.271   1.595   4.321
 7075TIP3    H221169   3.313   1.638   4.460
 7076TIP3   OH221170   4.134   3.766   4.983
 7076TIP3    H121171   4.213   3.736   5.027
 7076TIP3    H221172   4.164   3.840   4.929
 7077TIP3   OH221173   5.220   7.467   6.027
 7077TIP3    H121174   5.301   7.512   6.050
 7077TIP3    H221175   5.232   7.442   5.935
 7078TIP3   OH221176   0.985   7.521   3.034
 7078TIP3    H121177   1.067   7.500   3.080
 7078TIP3    H221178   0.922   7.457   3.067
 7079TIP3   OH221179   1.018   1.409   3.344
 7079TIP3    H121180   1.066   1.490   3.328
 7079TIP3    H221181   1.086   1.341   3.347
 7080TIP3   OH221182   0.457   5.644   5.731
 7080TIP3    H121183   0.447   5.549   5.744
 7080TIP3    H221184   0.506   5.651   5.649
 7081TIP3   OH221185   3.512   7.488   4.719
 7081TIP3    H121186   3.458   7.523   4.648
 7081TIP3    H221187   3.599   7.480   4.681
 7082TIP3   OH221188   7.211   6.480   6.745
 7082TIP3    H121189   7.152   6.405   6.733
 7082TIP3    H221190   7.214   6.492   6.840
 7083TIP3   OH221191   1.612   3.044   3.540
 7083TIP3    H121192   1.568   3.121   3.576
 7083TIP3    H221193   1.569   2.970   3.582
 7084TIP3   OH221194   2.198   5.617   1.145
 7084TIP3    H121195   2.173   5.621   1.238
 7084TIP3    H221196   2.293   5.603   1.147
 7085TIP3   OH221197   4.844   3.056   2.596
 7085TIP3    H121198   4.920   3.074   2.651
 7085TIP3    H221199   4.845   2.961   2.584
 7086TIP3   OH221200   5.827   4.216   3.381
 7086TIP3    H121201   5.763   4.269   3.333
 7086TIP3    H221202   5.867   4.277   3.444
 7087TIP3   OH221203   7.497   2.522   1.742
 7087TIP3    H121204   7.556   2.592   1.769
 7087TIP3    H221205   7.501   2.521   1.647
 7088TIP3   OH221206   6.572   1.450   4.554
 7088TIP3    H121207   6.619   1.395   4.491
 7088TIP3    H221208   6.617   1.534   4.550
 7089TIP3   OH221209   1.997   0.276   4.157
 7089TIP3    H121210   2.069   0.316   4.205
 7089TIP3    H221211   1.919   0.326   4.183
 7090TIP3   OH221212   3.350   4.561   5.149
 7090TIP3    H121213   3.419   4.495   5.154
 7090TIP3    H221214   3.277   4.524   5.197
 7091TIP3   OH221215   2.360   2.287   1.345
 7091TIP3    H121216   2.368   2.193   1.365
 7091TIP3    H221217   2.269   2.298   1.319
 7092TIP3   OH221218   7.462   0.626   4.058
 7092TIP3    H121219   7.554   0.614   4.084
 7092TIP3    H221220   7.431   0.697   4.114
 7093TIP3   OH221221   4.673   4.800   6.375
 7093TIP3    H121222   4.762   4.837   6.380
 7093TIP3    H221223   4.681   4.727   6.314
 7094TIP3   OH221224   5.642   6.540   0.171
 7094TIP3    H121225   5.714   6.498   0.219
 7094TIP3    H221226   5.685   6.595   0.107
 7095TIP3   OH221227   1.701   1.898   6.546
 7095TIP3    H121228   1.678   1.988   6.521
 7095TIP3    H221229   1.790   1.887   6.512
 7096TIP3   OH221230   1.261   2.297   4.966
 7096TIP3    H121231   1.246   2.268   5.056
 7096TIP3    H221232   1.198   2.368   4.952
 7097TIP3   OH221233   4.443   6.751   2.458
 7097TIP3    H121234   4.539   6.750   2.455
 7097TIP3    H221235   4.422   6.839   2.491
 7098TIP3   OH221236   1.689   2.511   2.032
 7098TIP3    H121237   1.653   2.579   1.975
 7098TIP3    H221238   1.613   2.463   2.063
 7099TIP3   OH221239   5.303   1.467   1.659
 7099TIP3    H121240   5.333   1.376   1.670
 7099TIP3    H221241   5.219   1.458   1.613
 7100TIP3   OH221242   0.952   5.305   4.878
 7100TIP3    H121243   1.040   5.301   4.841
 7100TIP3    H221244   0.952   5.237   4.946
 7101TIP3   OH221245   6.182   0.762   0.729
 7101TIP3    H121246   6.275   0.739   0.717
 7101TIP3    H221247   6.161   0.728   0.816
 7102TIP3   OH221248   7.386   4.466   0.714
 7102TIP3    H121249   7.429   4.510   0.787
 7102TIP3    H221250   7.356   4.382   0.751
 7103TIP3   OH221251   5.734   5.452   1.143
 7103TIP3    H121252   5.660   5.486   1.093
 7103TIP3    H221253   5.757   5.370   1.098
 7104TIP3   OH221254   6.344   7.772   4.293
 7104TIP3    H121255   6.254   7.756   4.320
 7104TIP3    H221256   6.371   7.691   4.250
 7105TIP3   OH221257   7.550   1.109   2.570
 7105TIP3    H121258   7.476   1.097   2.628
 7105TIP3    H221259   7.620   1.141   2.627
 7106TIP3   OH221260   5.901   2.129   0.314
 7106TIP3    H121261   5.930   2.086   0.394
 7106TIP3    H221262   5.891   2.221   0.338
 7107TIP3   OH221263   1.618   4.897   6.231
 7107TIP3    H121264   1.569   4.928   6.307
 7107TIP3    H221265   1.612   4.802   6.235
 7108TIP3   OH221266   4.704   7.404   6.527
 7108TIP3    H121267   4.657   7.323   6.509
 7108TIP3    H221268   4.783   7.398   6.474
 7109TIP3   OH221269   0.880   7.237   5.792
 7109TIP3    H121270   0.971   7.258   5.813
 7109TIP3    H221271   0.845   7.317   5.754
 7110TIP3   OH221272   0.057   6.611   2.852
 7110TIP3    H121273  -0.001   6.554   2.801
 7110TIP3    H221274   0.107   6.551   2.907
 7111TIP3   OH221275   6.334   0.156   1.732
 7111TIP3    H121276   6.298   0.195   1.652
 7111TIP3    H221277   6.297   0.068   1.735
 7112TIP3   OH221278   1.545   1.433   4.634
 7112TIP3    H121279   1.486   1.482   4.690
 7112TIP3    H221280   1.577   1.497   4.570
 7113TIP3   OH221281   4.943   2.852   3.618
 7113TIP3    H121282   4.858   2.896   3.623
 7113TIP3    H221283   4.972   2.845   3.709
 7114TIP3   OH221284   0.304   6.529   1.116
 7114TIP3    H121285   0.368   6.495   1.178
 7114TIP3    H221286   0.225   6.543   1.168
 7115TIP3   OH221287   7.213   4.018   0.604
 7115TIP3    H121288   7.123   4.020   0.637
 7115TIP3    H221289   7.266   4.053   0.675
 7116TIP3   OH221290   7.639   1.456   1.830
 7116TIP3    H121291   7.564   1.439   1.888
 7116TIP3    H221292   7.699   1.508   1.883
 7117TIP3   OH221293   2.809   5.162   2.571
 7117TIP3    H121294   2.822   5.243   2.522
 7117TIP3    H221295   2.897   5.125   2.579
 7118TIP3   OH221296   5.721   5.812   4.373
 7118TIP3    H121297   5.809   5.822   4.407
 7118TIP3    H221298   5.693   5.725   4.403
 7119TIP3   OH221299   1.332   5.745   4.938
 7119TIP3    H121300   1.294   5.801   4.870
 7119TIP3    H221301   1.417   5.786   4.958
 7120TIP3   OH221302   0.842   6.761   3.242
 7120TIP3    H121303   0.820   6.830   3.179
 7120TIP3    H221304   0.920   6.720   3.205
 7121TIP3   OH221305   3.644   4.372   2.572
 7121TIP3    H121306   3.591   4.308   2.620
 7121TIP3    H221307   3.610   4.456   2.601
 7122TIP3   OH221308   4.202   7.453   6.065
 7122TIP3    H121309   4.207   7.390   5.993
 7122TIP3    H221310   4.290   7.454   6.102
 7123TIP3   OH221311   0.628   5.195   6.765
 7123TIP3    H121312   0.600   5.197   6.857
 7123TIP3    H221313   0.562   5.249   6.720
 7124TIP3   OH221314   5.174   1.911   5.058
 7124TIP3    H121315   5.185   1.816   5.062
 7124TIP3    H221316   5.101   1.929   5.118
 7125TIP3   OH221317   7.012   6.076   5.607
 7125TIP3    H121318   6.958   6.002   5.579
 7125TIP3    H221319   7.040   6.118   5.526
 7126TIP3   OH221320   5.605   0.476   3.531
 7126TIP3    H121321   5.580   0.392   3.493
 7126TIP3    H221322   5.532   0.499   3.589
 7127TIP3   OH221323   4.192   0.788   5.136
 7127TIP3    H121324   4.187   0.799   5.231
 7127TIP3    H221325   4.111   0.825   5.103
 7128TIP3   OH221326   2.822   0.045   0.096
 7128TIP3    H121327   2.866   0.042   0.180
 7128TIP3    H221328   2.843   0.132   0.061
 7129TIP3   OH221329   4.666   2.043   2.458
 7129TIP3    H121330   4.705   2.118   2.502
 7129TIP3    H221331   4.652   2.073   2.368
 7130TIP3   OH221332   6.860   6.321   1.514
 7130TIP3    H121333   6.933   6.261   1.531
 7130TIP3    H221334   6.792   6.294   1.575
 7131TIP3   OH221335   1.482   4.263   3.364
 7131TIP3    H121336   1.516   4.177   3.339
 7131TIP3    H221337   1.555   4.323   3.352
 7132TIP3   OH221338   3.372   3.438   3.473
 7132TIP3    H121339   3.389   3.469   3.562
 7132TIP3    H221340   3.365   3.343   3.481
 7133TIP3   OH221341   6.756   6.010   4.002
 7133TIP3    H121342   6.753   5.988   4.095
 7133TIP3    H221343   6.822   5.951   3.965
 7134TIP3   OH221344   4.060   5.294   0.843
 7134TIP3    H121345   3.978   5.291   0.891
 7134TIP3    H221346   4.092   5.383   0.855
 7135TIP3   OH221347   4.629   6.098   5.517
 7135TIP3    H121348   4.696   6.097   5.585
 7135TIP3    H221349   4.671   6.059   5.440
 7136TIP3   OH221350   6.468   0.628   1.262
 7136TIP3    H121351   6.382   0.586   1.269
 7136TIP3    H221352   6.499   0.603   1.175
 7137TIP3   OH221353   1.924   4.939   5.664
 7137TIP3    H121354   1.832   4.959   5.677
 7137TIP3    H221355   1.957   4.917   5.752
 7138TIP3   OH221356   3.425   4.046   5.159
 7138TIP3    H121357   3.350   4.087   5.203
 7138TIP3    H221358   3.486   4.025   5.230
 7139TIP3   OH221359   4.664   6.677   5.212
 7139TIP3    H121360   4.657   6.772   5.223
 7139TIP3    H221361   4.738   6.652   5.268
 7140TIP3   OH221362   4.768   4.936   3.875
 7140TIP3    H121363   4.722   4.886   3.807
 7140TIP3    H221364   4.788   5.020   3.833
 7141TIP3   OH221365   7.127   5.980   2.566
 7141TIP3    H121366   7.046   6.031   2.559
 7141TIP3    H221367   7.194   6.046   2.584
 7142TIP3   OH221368   4.068   2.720   2.620
 7142TIP3    H121369   4.063   2.663   2.697
 7142TIP3    H221370   4.162   2.730   2.603
 7143TIP3   OH221371   1.288   1.144   3.933
 7143TIP3    H121372   1.218   1.116   3.874
 7143TIP3    H221373   1.359   1.083   3.918
 7144TIP3   OH221374   0.632   4.429   1.723
 7144TIP3    H121375   0.702   4.417   1.659
 7144TIP3    H221376   0.565   4.365   1.697
 7145TIP3   OH221377   7.373   6.460   2.387
 7145TIP3    H121378   7.401   6.511   2.463
 7145TIP3    H221379   7.284   6.491   2.370
 7146TIP3   OH221380   1.777   4.827   0.333
 7146TIP3    H121381   1.849   4.876   0.294
 7146TIP3    H221382   1.765   4.752   0.275
 7147TIP3   OH221383   0.453   2.033   0.620
 7147TIP3    H121384   0.375   2.066   0.574
 7147TIP3    H221385   0.431   1.944   0.645
 7148TIP3   OH221386   4.720   7.253   2.056
 7148TIP3    H121387   4.664   7.231   2.130
 7148TIP3    H221388   4.659   7.269   1.984
 7149TIP3   OH221389   3.765   5.880   3.167
 7149TIP3    H121390   3.820   5.847   3.095
 7149TIP3    H221391   3.739   5.801   3.214
 7150TIP3   OH221392   4.529   5.731   0.178
 7150TIP3    H121393   4.616   5.752   0.212
 7150TIP3    H221394   4.542   5.654   0.124
 7151TIP3   OH221395   6.505   6.891   0.711
 7151TIP3    H121396   6.545   6.805   0.705
 7151TIP3    H221397   6.550   6.944   0.645
 7152TIP3   OH221398   4.612   6.044   1.762
 7152TIP3    H121399   4.650   6.117   1.811
 7152TIP3    H221400   4.573   6.084   1.685
 7153TIP3   OH221401   7.079   6.746   3.561
 7153TIP3    H121402   7.154   6.688   3.574
 7153TIP3    H221403   7.090   6.780   3.472
 7154TIP3   OH221404   1.134   6.642   6.297
 7154TIP3    H121405   1.188   6.710   6.337
 7154TIP3    H221406   1.105   6.681   6.214
 7155TIP3   OH221407   2.242   4.399   3.047
 7155TIP3    H121408   2.287   4.339   3.107
 7155TIP3    H221409   2.155   4.411   3.086
 7156TIP3   OH221410   7.068   7.004   6.092
 7156TIP3    H121411   7.125   6.973   6.162
 7156TIP3    H221412   7.052   7.096   6.113
 7157TIP3   OH221413   0.656   6.445   1.508
 7157TIP3    H121414   0.640   6.399   1.590
 7157TIP3    H221415   0.686   6.532   1.534
 7158TIP3   OH221416   3.271   1.156   5.390
 7158TIP3    H121417   3.328   1.088   5.354
 7158TIP3    H221418   3.321   1.237   5.379
 7159TIP3   OH221419   6.201   3.151   3.623
 7159TIP3    H121420   6.240   3.233   3.655
 7159TIP3    H221421   6.276   3.099   3.594
 7160TIP3   OH221422   0.306   2.732   3.703
 7160TIP3    H121423   0.314   2.718   3.797
 7160TIP3    H221424   0.239   2.669   3.675
 7161TIP3   OH221425   4.744   0.040   3.742
 7161TIP3    H121426   4.697   0.090   3.675
 7161TIP3    H221427   4.733   0.091   3.822
 7162TIP3   OH221428   7.272   5.084   5.861
 7162TIP3    H121429   7.302   5.073   5.951
 7162TIP3    H221430   7.353   5.089   5.810
 7163TIP3   OH221431   2.983   5.290   5.939
 7163TIP3    H121432   3.003   5.283   6.032
 7163TIP3    H221433   2.908   5.350   5.936
 7164TIP3   OH221434   1.274   2.460   6.078
 7164TIP3    H121435   1.274   2.364   6.077
 7164TIP3    H221436   1.363   2.484   6.052
 7165TIP3   OH221437   7.070   7.311   2.019
 7165TIP3    H121438   7.075   7.395   1.973
 7165TIP3    H221439   7.083   7.246   1.950
 7166TIP3   OH221440   7.003   7.129   5.421
 7166TIP3    H121441   6.928   7.162   5.471
 7166TIP3    H221442   7.010   7.190   5.347
 7167TIP3   OH221443   6.492   3.815   2.309
 7167TIP3    H121444   6.515   3.725   2.331
 7167TIP3    H221445   6.401   3.811   2.282
 7168TIP3   OH221446   0.753   4.002   5.089
 7168TIP3    H121447   0.829   3.949   5.114
 7168TIP3    H221448   0.727   3.967   5.004
 7169TIP3   OH221449   2.657   2.023   1.503
 7169TIP3    H121450   2.564   2.002   1.491
 7169TIP3    H221451   2.697   2.000   1.419
 7170TIP3   OH221452   1.924   6.737   6.210
 7170TIP3    H121453   1.965   6.801   6.152
 7170TIP3    H221454   1.856   6.696   6.156
 7171TIP3   OH221455   0.642   4.017   1.760
 7171TIP3    H121456   0.572   4.078   1.738
 7171TIP3    H221457   0.599   3.946   1.807
 7172TIP3   OH221458   4.390   7.664   2.776
 7172TIP3    H121459   4.389   7.568   2.778
 7172TIP3    H221460   4.340   7.690   2.854
 7173TIP3   OH221461   4.236   3.124   3.488
 7173TIP3    H121462   4.170   3.140   3.556
 7173TIP3    H221463   4.278   3.042   3.515
 7174TIP3   OH221464   5.007   3.722   4.496
 7174TIP3    H121465   5.057   3.786   4.447
 7174TIP3    H221466   5.065   3.694   4.567
 7175TIP3   OH221467   8.288   1.850   1.547
 7175TIP3    H121468   8.344   1.818   1.617
 7175TIP3    H221469   8.214   1.891   1.591
 7176TIP3   OH221470   1.689   2.273   1.164
 7176TIP3    H121471   1.744   2.338   1.206
 7176TIP3    H221472   1.734   2.190   1.181
 7177TIP3   OH221473   4.829   6.553   0.421
 7177TIP3    H121474   4.795   6.618   0.360
 7177TIP3    H221475   4.843   6.600   0.503
 7178TIP3   OH221476   1.910   6.352   1.100
 7178TIP3    H121477   1.994   6.313   1.125
 7178TIP3    H221478   1.907   6.342   1.005
 7179TIP3   OH221479   8.043   2.152   3.700
 7179TIP3    H121480   8.080   2.111   3.622
 7179TIP3    H221481   7.999   2.080   3.746
 7180TIP3   OH221482   1.813   5.239   1.498
 7180TIP3    H121483   1.805   5.261   1.405
 7180TIP3    H221484   1.858   5.155   1.499
 7181TIP3   OH221485   0.197   2.331   2.489
 7181TIP3    H121486   0.122   2.390   2.490
 7181TIP3    H221487   0.218   2.317   2.582
 7182TIP3   OH221488   7.782   3.961   1.530
 7182TIP3    H121489   7.770   4.034   1.470
 7182TIP3    H221490   7.709   3.968   1.592
 7183TIP3   OH221491   6.590   3.431   3.867
 7183TIP3    H121492   6.563   3.367   3.802
 7183TIP3    H221493   6.684   3.439   3.855
 7184TIP3   OH221494   3.788   4.223   1.313
 7184TIP3    H121495   3.857   4.191   1.371
 7184TIP3    H221496   3.795   4.168   1.235
 7185TIP3   OH221497   7.556   7.667   1.719
 7185TIP3    H121498   7.558   7.706   1.631
 7185TIP3    H221499   7.475   7.700   1.757
 7186TIP3   OH221500   5.815   0.371   6.469
 7186TIP3    H121501   5.726   0.353   6.440
 7186TIP3    H221502   5.869   0.360   6.391
 7187TIP3   OH221503   5.301   4.717   1.309
 7187TIP3    H121504   5.390   4.730   1.278
 7187TIP3    H221505   5.251   4.789   1.272
 7188TIP3   OH221506   6.108   1.878   2.455
 7188TIP3    H121507   6.031   1.838   2.494
 7188TIP3    H221508   6.155   1.917   2.529
 7189TIP3   OH221509   6.921   1.285   1.580
 7189TIP3    H121510   6.891   1.227   1.650
 7189TIP3    H221511   6.869   1.259   1.504
 7190TIP3   OH221512   6.426   7.131   2.879
 7190TIP3    H121513   6.447   7.077   2.955
 7190TIP3    H221514   6.334   7.113   2.862
 7191TIP3   OH221515   5.302   2.760   6.094
 7191TIP3    H121516   5.229   2.717   6.052
 7191TIP3    H221517   5.322   2.706   6.171
 7192TIP3   OH221518   2.473   2.231   4.544
 7192TIP3    H121519   2.486   2.261   4.634
 7192TIP3    H221520   2.449   2.139   4.553
 7193TIP3   OH221521   4.871   2.434   3.238
 7193TIP3    H121522   4.782   2.409   3.262
 7193TIP3    H221523   4.915   2.351   3.219
 7194TIP3   OH221524   8.174   6.147   6.450
 7194TIP3    H121525   8.268   6.136   6.443
 7194TIP3    H221526   8.154   6.133   6.542
 7195TIP3   OH221527   7.630   2.978   0.698
 7195TIP3    H121528   7.645   3.040   0.627
 7195TIP3    H221529   7.716   2.943   0.719
 7196TIP3   OH221530   6.548   4.779   1.129
 7196TIP3    H121531   6.457   4.804   1.147
 7196TIP3    H221532   6.543   4.725   1.050
 7197TIP3   OH221533   7.355   4.706   1.382
 7197TIP3    H121534   7.314   4.757   1.452
 7197TIP3    H221535   7.291   4.639   1.359
 7198TIP3   OH221536   2.726   3.295   1.658
 7198TIP3    H121537   2.737   3.270   1.566
 7198TIP3    H221538   2.787   3.240   1.705
 7199TIP3   OH221539   6.430   0.281   2.678
 7199TIP3    H121540   6.411   0.310   2.589
 7199TIP3    H221541   6.348   0.245   2.710
 7200TIP3   OH221542   4.848   6.219   4.474
 7200TIP3    H121543   4.826   6.158   4.403
 7200TIP3    H221544   4.766   6.267   4.490
 7201TIP3   OH221545   3.116   7.437   4.646
 7201TIP3    H121546   3.152   7.444   4.734
 7201TIP3    H221547   3.034   7.488   4.650
 7202TIP3   OH221548   5.665   1.728   1.358
 7202TIP3    H121549   5.668   1.659   1.425
 7202TIP3    H221550   5.597   1.788   1.388
 7203TIP3   OH221551   6.899   3.180   2.341
 7203TIP3    H121552   6.817   3.207   2.382
 7203TIP3    H221553   6.873   3.114   2.276
 7204TIP3   OH221554   3.756   5.482   2.364
 7204TIP3    H121555   3.769   5.387   2.369
 7204TIP3    H221556   3.708   5.504   2.443
 7205TIP3   OH221557   3.567   4.405   0.798
 7205TIP3    H121558   3.569   4.488   0.847
 7205TIP3    H221559   3.512   4.348   0.852
 7206TIP3   OH221560   2.642   2.224   6.495
 7206TIP3    H121561   2.628   2.213   6.401
 7206TIP3    H221562   2.732   2.193   6.509
 7207TIP3   OH221563   6.301   5.435   6.764
 7207TIP3    H121564   6.256   5.354   6.739
 7207TIP3    H221565   6.394   5.414   6.758
 7208TIP3   OH221566   1.162   6.159   6.297
 7208TIP3    H121567   1.081   6.141   6.250
 7208TIP3    H221568   1.134   6.181   6.386
 7209TIP3   OH221569   2.629   4.360   1.123
 7209TIP3    H121570   2.699   4.309   1.165
 7209TIP3    H221571   2.597   4.418   1.192
 7210TIP3   OH221572   3.398   2.011   4.580
 7210TIP3    H121573   3.416   1.934   4.635
 7210TIP3    H221574   3.338   1.980   4.513
 7211TIP3   OH221575   3.350   5.400   6.274
 7211TIP3    H121576   3.315   5.471   6.221
 7211TIP3    H221577   3.321   5.420   6.363
 7212TIP3   OH221578   4.789   7.509   2.235
 7212TIP3    H121579   4.778   7.443   2.303
 7212TIP3    H221580   4.780   7.460   2.153
 7213TIP3   OH221581   4.871   5.951   1.170
 7213TIP3    H121582   4.818   5.930   1.247
 7213TIP3    H221583   4.912   5.868   1.146
 7214TIP3   OH221584   6.373   2.897   4.949
 7214TIP3    H121585   6.321   2.827   4.988
 7214TIP3    H221586   6.436   2.920   5.016
 7215TIP3   OH221587   0.786   0.164   0.360
 7215TIP3    H121588   0.866   0.184   0.408
 7215TIP3    H221589   0.726   0.130   0.427
 7216TIP3   OH221590   2.024   6.190   5.057
 7216TIP3    H121591   2.116   6.174   5.035
 7216TIP3    H221592   2.006   6.127   5.128
 7217TIP3   OH221593   3.888   6.941   6.496
 7217TIP3    H121594   3.847   6.904   6.418
 7217TIP3    H221595   3.961   6.883   6.516
 7218TIP3   OH221596   2.136   1.515   5.368
 7218TIP3    H121597   2.156   1.596   5.416
 7218TIP3    H221598   2.067   1.540   5.307
 7219TIP3   OH221599   2.544   7.005   4.011
 7219TIP3    H121600   2.588   7.069   4.067
 7219TIP3    H221601   2.519   7.055   3.933
 7220TIP3   OH221602   1.844   6.261   6.500
 7220TIP3    H121603   1.844   6.190   6.564
 7220TIP3    H221604   1.755   6.262   6.466
 7221TIP3   OH221605   5.904   6.522   0.622
 7221TIP3    H121606   5.913   6.617   0.615
 7221TIP3    H221607   5.969   6.496   0.686
 7222TIP3   OH221608   3.572   2.298   4.060
 7222TIP3    H121609   3.499   2.355   4.035
 7222TIP3    H221610   3.642   2.359   4.084
 7223TIP3   OH221611   5.489   0.194   3.180
 7223TIP3    H121612   5.571   0.237   3.155
 7223TIP3    H221613   5.513   0.102   3.192
 7224TIP3   OH221614   2.131   6.888   6.698
 7224TIP3    H121615   2.080   6.813   6.730
 7224TIP3    H221616   2.069   6.938   6.644
 7225TIP3   OH221617   8.292   1.596   5.676
 7225TIP3    H121618   8.340   1.514   5.689
 7225TIP3    H221619   8.200   1.572   5.688
 7226TIP3   OH221620   6.362   2.573   3.816
 7226TIP3    H121621   6.302   2.594   3.745
 7226TIP3    H221622   6.447   2.563   3.774
 7227TIP3   OH221623   1.295   6.558   6.535
 7227TIP3    H121624   1.314   6.633   6.591
 7227TIP3    H221625   1.335   6.580   6.451
 7228TIP3   OH221626   7.570   4.571   6.320
 7228TIP3    H121627   7.630   4.566   6.394
 7228TIP3    H221628   7.624   4.548   6.244
 7229TIP3   OH221629   1.668   6.687   2.096
 7229TIP3    H121630   1.746   6.634   2.080
 7229TIP3    H221631   1.605   6.626   2.135
 7230TIP3   OH221632   3.290   1.809   6.297
 7230TIP3    H121633   3.349   1.831   6.369
 7230TIP3    H221634   3.240   1.734   6.329
 7231TIP3   OH221635   2.478   1.292   1.529
 7231TIP3    H121636   2.429   1.297   1.611
 7231TIP3    H221637   2.451   1.209   1.490
 7232TIP3   OH221638   0.156   0.421   1.361
 7232TIP3    H121639   0.102   0.452   1.434
 7232TIP3    H221640   0.159   0.495   1.301
 7233TIP3   OH221641   4.287   0.922   0.580
 7233TIP3    H121642   4.379   0.898   0.594
 7233TIP3    H221643   4.291   1.011   0.546
 7234TIP3   OH221644   4.873   1.762   0.068
 7234TIP3    H121645   4.913   1.849   0.062
 7234TIP3    H221646   4.913   1.722   0.145
 7235TIP3   OH221647   1.873   3.384   6.170
 7235TIP3    H121648   1.856   3.308   6.115
 7235TIP3    H221649   1.947   3.428   6.129
 7236TIP3   OH221650   4.784   2.168   6.378
 7236TIP3    H121651   4.692   2.190   6.371
 7236TIP3    H221652   4.785   2.083   6.422
 7237TIP3   OH221653   1.822   5.767   3.746
 7237TIP3    H121654   1.850   5.807   3.828
 7237TIP3    H221655   1.894   5.709   3.721
 7238TIP3   OH221656   4.494   2.391   6.242
 7238TIP3    H121657   4.490   2.486   6.254
 7238TIP3    H221658   4.451   2.355   6.320
 7239TIP3   OH221659   2.569   3.486   0.094
 7239TIP3    H121660   2.599   3.520   0.179
 7239TIP3    H221661   2.487   3.533   0.078
 7240TIP3   OH221662   4.447   2.703   4.921
 7240TIP3    H121663   4.527   2.728   4.966
 7240TIP3    H221664   4.462   2.614   4.891
 7241TIP3   OH221665   5.214   7.346   2.710
 7241TIP3    H121666   5.192   7.389   2.793
 7241TIP3    H221667   5.309   7.332   2.715
 7242TIP3   OH221668   4.993   2.798   5.698
 7242TIP3    H121669   5.025   2.835   5.616
 7242TIP3    H221670   4.955   2.873   5.745
 7243TIP3   OH221671   1.352   1.739   2.757
 7243TIP3    H121672   1.308   1.659   2.784
 7243TIP3    H221673   1.421   1.752   2.822
 7244TIP3   OH221674   1.794   1.389   1.901
 7244TIP3    H121675   1.765   1.474   1.868
 7244TIP3    H221676   1.720   1.331   1.884
 7245TIP3   OH221677   2.308   6.333   5.254
 7245TIP3    H121678   2.263   6.412   5.225
 7245TIP3    H221679   2.391   6.364   5.291
 7246TIP3   OH221680   0.628   1.243   4.616
 7246TIP3    H121681   0.542   1.259   4.577
 7246TIP3    H221682   0.689   1.296   4.564
 7247TIP3   OH221683   6.456   1.688   4.826
 7247TIP3    H121684   6.404   1.641   4.892
 7247TIP3    H221685   6.485   1.620   4.765
 7248TIP3   OH221686   3.307   5.647   3.313
 7248TIP3    H121687   3.299   5.733   3.272
 7248TIP3    H221688   3.301   5.585   3.240
 7249TIP3   OH221689   5.554   6.284   3.964
 7249TIP3    H121690   5.462   6.267   3.985
 7249TIP3    H221691   5.601   6.210   4.001
 7250TIP3   OH221692   3.855   6.181   5.348
 7250TIP3    H121693   3.817   6.255   5.395
 7250TIP3    H221694   3.935   6.160   5.397
 7251TIP3   OH221695   5.097   7.147   5.645
 7251TIP3    H121696   5.031   7.098   5.695
 7251TIP3    H221697   5.138   7.205   5.709
 7252TIP3   OH221698   7.395   6.631   5.563
 7252TIP3    H121699   7.316   6.660   5.518
 7252TIP3    H221700   7.430   6.710   5.604
 7253TIP3   OH221701   0.153   4.670   1.822
 7253TIP3    H121702   0.148   4.669   1.727
 7253TIP3    H221703   0.242   4.639   1.842
 7254TIP3   OH221704   0.835   0.503   2.123
 7254TIP3    H121705   0.843   0.598   2.137
 7254TIP3    H221706   0.887   0.464   2.193
 7255TIP3   OH221707   7.538   0.524   4.607
 7255TIP3    H121708   7.536   0.469   4.529
 7255TIP3    H221709   7.631   0.538   4.624
 7256TIP3   OH221710   4.045   2.463   1.021
 7256TIP3    H121711   3.984   2.413   0.966
 7256TIP3    H221712   4.084   2.397   1.079
 7257TIP3   OH221713   5.021   7.377   4.340
 7257TIP3    H121714   5.082   7.446   4.313
 7257TIP3    H221715   4.935   7.411   4.317
 7258TIP3   OH221716   1.814   6.350   3.002
 7258TIP3    H121717   1.754   6.276   3.014
 7258TIP3    H221718   1.899   6.310   2.983
 7259TIP3   OH221719   3.964   4.102   3.136
 7259TIP3    H121720   3.886   4.136   3.180
 7259TIP3    H221721   4.016   4.179   3.115
 7260TIP3   OH221722   5.696   7.472   6.150
 7260TIP3    H121723   5.737   7.390   6.176
 7260TIP3    H221724   5.674   7.516   6.232
 7261TIP3   OH221725   6.311   2.633   4.652
 7261TIP3    H121726   6.340   2.554   4.698
 7261TIP3    H221727   6.222   2.648   4.685
 7262TIP3   OH221728   0.655   0.792   6.771
 7262TIP3    H121729   0.683   0.882   6.753
 7262TIP3    H221730   0.630   0.792   6.863
 7263TIP3   OH221731   5.223   6.857   6.098
 7263TIP3    H121732   5.281   6.929   6.075
 7263TIP3    H221733   5.236   6.793   6.028
 7264TIP3   OH221734   1.068   6.619   5.050
 7264TIP3    H121735   1.053   6.579   5.136
 7264TIP3    H221736   0.980   6.636   5.016
 7265TIP3   OH221737   7.128   6.918   2.999
 7265TIP3    H121738   7.156   6.891   3.086
 7265TIP3    H221739   7.178   6.998   2.982
 7266TIP3   OH221740   0.957   1.590   5.723
 7266TIP3    H121741   0.911   1.621   5.644
 7266TIP3    H221742   1.001   1.668   5.757
 7267TIP3   OH221743   0.388   6.695   0.209
 7267TIP3    H121744   0.343   6.773   0.242
 7267TIP3    H221745   0.409   6.644   0.288
 7268TIP3   OH221746   5.297   6.917   4.672
 7268TIP3    H121747   5.329   6.887   4.587
 7268TIP3    H221748   5.253   6.840   4.710
 7269TIP3   OH221749   3.877   6.869   0.513
 7269TIP3    H121750   3.972   6.872   0.500
 7269TIP3    H221751   3.856   6.953   0.553
 7270TIP3   OH221752   0.441   7.242   6.663
 7270TIP3    H121753   0.457   7.260   6.756
 7270TIP3    H221754   0.349   7.216   6.659
 7271TIP3   OH221755   6.133   7.336   2.050
 7271TIP3    H121756   6.221   7.367   2.032
 7271TIP3    H221757   6.115   7.272   1.981
 7272TIP3   OH221758   6.578   3.859   1.864
 7272TIP3    H121759   6.536   3.785   1.907
 7272TIP3    H221760   6.671   3.852   1.887
 7273TIP3   OH221761   7.597   4.721   1.194
 7273TIP3    H121762   7.510   4.706   1.231
 7273TIP3    H221763   7.610   4.815   1.201
 7274TIP3   OH221764   5.948   0.544   6.789
 7274TIP3    H121765   5.872   0.489   6.773
 7274TIP3    H221766   6.021   0.496   6.751
 7275TIP3   OH221767   2.646   0.133   4.829
 7275TIP3    H121768   2.560   0.160   4.799
 7275TIP3    H221769   2.631   0.093   4.915
 7276TIP3   OH221770   6.847   4.388   2.020
 7276TIP3    H121771   6.796   4.465   2.045
 7276TIP3    H221772   6.932   4.401   2.062
 7277TIP3   OH221773   7.357   6.526   5.809
 7277TIP3    H121774   7.348   6.579   5.730
 7277TIP3    H221775   7.294   6.455   5.798
 7278TIP3   OH221776   6.845   3.666   2.345
 7278TIP3    H121777   6.775   3.602   2.356
 7278TIP3    H221778   6.891   3.666   2.428
 7279TIP3   OH221779   5.118   1.640   1.280
 7279TIP3    H121780   5.045   1.693   1.313
 7279TIP3    H221781   5.196   1.690   1.301
 7280TIP3   OH221782   7.759   1.064   4.313
 7280TIP3    H121783   7.832   1.001   4.319
 7280TIP3    H221784   7.756   1.087   4.220
 7281TIP3   OH221785   0.239   3.377   6.533
 7281TIP3    H121786   0.243   3.429   6.453
 7281TIP3    H221787   0.237   3.441   6.603
 7282TIP3   OH221788   2.276   5.219   4.226
 7282TIP3    H121789   2.203   5.210   4.287
 7282TIP3    H221790   2.255   5.297   4.174
 7283TIP3   OH221791   0.856   0.513   0.060
 7283TIP3    H121792   0.774   0.464   0.069
 7283TIP3    H221793   0.923   0.446   0.047
 7284TIP3   OH221794   2.868   6.542   4.938
 7284TIP3    H121795   2.877   6.567   4.846
 7284TIP3    H221796   2.811   6.465   4.936
 7285TIP3   OH221797   4.573   2.062   2.777
 7285TIP3    H121798   4.577   1.969   2.754
 7285TIP3    H221799   4.664   2.091   2.775
 7286TIP3   OH221800   6.366   0.641   4.324
 7286TIP3    H121801   6.290   0.646   4.266
 7286TIP3    H221802   6.418   0.718   4.301
 7287TIP3   OH221803   2.137   4.540   0.922
 7287TIP3    H121804   2.220   4.584   0.907
 7287TIP3    H221805   2.079   4.609   0.956
 7288TIP3   OH221806   4.760   7.780   0.825
 7288TIP3    H121807   4.814   7.719   0.877
 7288TIP3    H221808   4.742   7.853   0.884
 7289TIP3   OH221809   8.142   6.364   0.146
 7289TIP3    H121810   8.193   6.439   0.114
 7289TIP3    H221811   8.053   6.381   0.116
 7290TIP3   OH221812   4.142   0.446   5.431
 7290TIP3    H121813   4.074   0.378   5.441
 7290TIP3    H221814   4.146   0.462   5.337
 7291TIP3   OH221815   8.287   7.231   0.084
 7291TIP3    H121816   8.300   7.301   0.149
 7291TIP3    H221817   8.197   7.243   0.054
 7292TIP3   OH221818   7.466   5.848   1.239
 7292TIP3    H121819   7.392   5.833   1.298
 7292TIP3    H221820   7.427   5.849   1.152
 7293TIP3   OH221821   4.406   7.707   3.668
 7293TIP3    H121822   4.370   7.722   3.755
 7293TIP3    H221823   4.414   7.612   3.662
 7294TIP3   OH221824   1.457   2.253   6.143
 7294TIP3    H121825   1.519   2.190   6.181
 7294TIP3    H221826   1.484   2.261   6.052
 7295TIP3   OH221827   3.026   7.355   6.053
 7295TIP3    H121828   3.031   7.419   5.982
 7295TIP3    H221829   3.116   7.330   6.070
 7296TIP3   OH221830   0.657   0.751   4.487
 7296TIP3    H121831   0.657   0.837   4.529
 7296TIP3    H221832   0.613   0.693   4.550
 7297TIP3   OH221833   4.836   1.453   1.360
 7297TIP3    H121834   4.806   1.367   1.332
 7297TIP3    H221835   4.902   1.478   1.295
 7298TIP3   OH221836   3.266   0.015   0.914
 7298TIP3    H121837   3.214  -0.060   0.943
 7298TIP3    H221838   3.271   0.072   0.990
 7299TIP3   OH221839   6.677   7.355   4.298
 7299TIP3    H121840   6.606   7.417   4.315
 7299TIP3    H221841   6.661   7.324   4.209
 7300TIP3   OH221842   3.411   0.081   5.795
 7300TIP3    H121843   3.499   0.116   5.782
 7300TIP3    H221844   3.354   0.158   5.790
 7301TIP3   OH221845   0.805   0.267   0.955
 7301TIP3    H121846   0.771   0.200   1.015
 7301TIP3    H221847   0.900   0.255   0.955
 7302TIP3   OH221848   0.680   3.857   1.230
 7302TIP3    H121849   0.714   3.774   1.196
 7302TIP3    H221850   0.689   3.850   1.325
 7303TIP3   OH221851   4.016   2.900   1.515
 7303TIP3    H121852   3.982   2.956   1.445
 7303TIP3    H221853   3.984   2.941   1.596
 7304TIP3   OH221854   4.711   4.864   4.557
 7304TIP3    H121855   4.655   4.844   4.631
 7304TIP3    H221856   4.651   4.890   4.487
 7305TIP3   OH221857   5.086   6.732   0.599
 7305TIP3    H121858   5.108   6.756   0.509
 7305TIP3    H221859   4.991   6.722   0.599
 7306TIP3   OH221860   6.911   0.706   4.442
 7306TIP3    H121861   6.839   0.678   4.385
 7306TIP3    H221862   6.981   0.730   4.381
 7307TIP3   OH221863   4.819   6.761   2.166
 7307TIP3    H121864   4.844   6.669   2.175
 7307TIP3    H221865   4.877   6.796   2.099
 7308TIP3   OH221866   0.917   3.727   4.930
 7308TIP3    H121867   0.988   3.791   4.927
 7308TIP3    H221868   0.852   3.760   4.868
 7309TIP3   OH221869   6.818   4.062   3.676
 7309TIP3    H121870   6.890   4.091   3.731
 7309TIP3    H221871   6.832   3.968   3.665
 7310TIP3   OH221872   2.620   5.711   5.852
 7310TIP3    H121873   2.537   5.665   5.854
 7310TIP3    H221874   2.627   5.744   5.762
 7311TIP3   OH221875   4.447   2.661   4.198
 7311TIP3    H121876   4.456   2.614   4.116
 7311TIP3    H221877   4.377   2.616   4.244
 7312TIP3   OH221878   6.342   2.170   0.660
 7312TIP3    H121879   6.431   2.168   0.694
 7312TIP3    H221880   6.320   2.264   0.656
 7313TIP3   OH221881   7.654   1.789   0.522
 7313TIP3    H121882   7.743   1.784   0.488
 7313TIP3    H221883   7.665   1.812   0.614
 7314TIP3   OH221884   8.229   2.708   1.916
 7314TIP3    H121885   8.313   2.677   1.881
 7314TIP3    H221886   8.163   2.660   1.866
 7315TIP3   OH221887   7.186   6.018   4.533
 7315TIP3    H121888   7.184   5.955   4.605
 7315TIP3    H221889   7.095   6.022   4.502
 7316TIP3   OH221890   3.849   4.681   4.240
 7316TIP3    H121891   3.758   4.684   4.269
 7316TIP3    H221892   3.896   4.642   4.313
 7317TIP3   OH221893   2.932   4.753   2.828
 7317TIP3    H121894   3.007   4.751   2.888
 7317TIP3    H221895   2.939   4.671   2.779
 7318TIP3   OH221896   6.745   1.591   2.646
 7318TIP3    H121897   6.699   1.589   2.729
 7318TIP3    H221898   6.777   1.501   2.634
 7319TIP3   OH221899   3.096   5.811   2.797
 7319TIP3    H121900   3.185   5.837   2.773
 7319TIP3    H221901   3.045   5.892   2.792
 7320TIP3   OH221902   0.760   2.008   4.667
 7320TIP3    H121903   0.713   2.081   4.626
 7320TIP3    H221904   0.820   2.049   4.729
 7321TIP3   OH221905   7.616   0.105   6.470
 7321TIP3    H121906   7.679   0.072   6.534
 7321TIP3    H221907   7.640   0.197   6.458
 7322TIP3   OH221908   8.165   0.157   2.879
 7322TIP3    H121909   8.097   0.098   2.846
 7322TIP3    H221910   8.174   0.224   2.812
 7323TIP3   OH221911   0.465   6.273   0.790
 7323TIP3    H121912   0.509   6.358   0.791
 7323TIP3    H221913   0.465   6.245   0.882
 7324TIP3   OH221914   1.731   2.388   0.307
 7324TIP3    H121915   1.805   2.345   0.266
 7324TIP3    H221916   1.655   2.337   0.279
 7325TIP3   OH221917   5.457   0.551   1.742
 7325TIP3    H121918   5.494   0.638   1.724
 7325TIP3    H221919   5.434   0.553   1.834
 7326TIP3   OH221920   6.425   0.722   6.366
 7326TIP3    H121921   6.348   0.779   6.363
 7326TIP3    H221922   6.394   0.641   6.406
 7327TIP3   OH221923   1.102   5.387   6.452
 7327TIP3    H121924   1.066   5.320   6.510
 7327TIP3    H221925   1.166   5.341   6.398
 7328TIP3   OH221926   7.839   4.273   1.948
 7328TIP3    H121927   7.886   4.287   1.866
 7328TIP3    H221928   7.902   4.297   2.016
 7329TIP3   OH221929   1.190   7.306   5.812
 7329TIP3    H121930   1.198   7.401   5.803
 7329TIP3    H221931   1.169   7.275   5.724
 7330TIP3   OH221932   3.283   2.673   3.541
 7330TIP3    H121933   3.353   2.625   3.584
 7330TIP3    H221934   3.235   2.606   3.492
 7331TIP3   OH221935   6.525   6.783   5.443
 7331TIP3    H121936   6.597   6.791   5.506
 7331TIP3    H221937   6.446   6.791   5.496
 7332TIP3   OH221938   8.271   1.352   3.617
 7332TIP3    H121939   8.361   1.359   3.587
 7332TIP3    H221940   8.221   1.330   3.538
 7333TIP3   OH221941   5.921   3.543   1.198
 7333TIP3    H121942   5.996   3.566   1.251
 7333TIP3    H221943   5.955   3.480   1.134
 7334TIP3   OH221944   3.593   4.148   1.532
 7334TIP3    H121945   3.658   4.137   1.602
 7334TIP3    H221946   3.644   4.174   1.456
 7335TIP3   OH221947   5.067   3.579   4.247
 7335TIP3    H121948   5.125   3.583   4.323
 7335TIP3    H221949   5.112   3.630   4.180
 7336TIP3   OH221950  -0.042   7.765   5.059
 7336TIP3    H121951   0.004   7.715   4.992
 7336TIP3    H221952   0.026   7.816   5.103
 7337TIP3   OH221953   1.718   4.554   1.454
 7337TIP3    H121954   1.714   4.464   1.421
 7337TIP3    H221955   1.802   4.588   1.424
 7338TIP3   OH221956   4.354   2.153   3.745
 7338TIP3    H121957   4.325   2.224   3.688
 7338TIP3    H221958   4.437   2.183   3.780
 7339TIP3   OH221959   0.029   1.056   2.868
 7339TIP3    H121960   0.061   0.972   2.836
 7339TIP3    H221961   0.068   1.121   2.809
 7340TIP3   OH221962   6.286   4.044   4.296
 7340TIP3    H121963   6.219   4.096   4.340
 7340TIP3    H221964   6.312   3.978   4.360
 7341TIP3   OH221965   5.887   4.405   3.584
 7341TIP3    H121966   5.841   4.393   3.666
 7341TIP3    H221967   5.883   4.499   3.568
 7342TIP3   OH221968   3.723   5.108   6.101
 7342TIP3    H121969   3.663   5.112   6.176
 7342TIP3    H221970   3.749   5.016   6.097
 7343TIP3   OH221971   2.092   2.691   1.523
 7343TIP3    H121972   2.077   2.726   1.435
 7343TIP3    H221973   2.006   2.659   1.551
 7344TIP3   OH221974   1.073   7.768   0.525
 7344TIP3    H121975   1.090   7.703   0.457
 7344TIP3    H221976   1.146   7.759   0.586
 7345TIP3   OH221977   3.507   1.408   4.791
 7345TIP3    H121978   3.490   1.501   4.772
 7345TIP3    H221979   3.598   1.395   4.765
 7346TIP3   OH221980   2.246   1.001   5.666
 7346TIP3    H121981   2.223   0.952   5.745
 7346TIP3    H221982   2.321   1.054   5.691
 7347TIP3   OH221983   0.947   4.791   6.780
 7347TIP3    H121984   0.912   4.796   6.690
 7347TIP3    H221985   1.021   4.850   6.780
 7348TIP3   OH221986   3.814   4.427   1.019
 7348TIP3    H121987   3.740   4.487   1.010
 7348TIP3    H221988   3.876   4.457   0.953
 7349TIP3   OH221989   1.636   6.863   2.361
 7349TIP3    H121990   1.641   6.842   2.268
 7349TIP3    H221991   1.648   6.958   2.365
 7350TIP3   OH221992   2.186   3.206   0.098
 7350TIP3    H121993   2.126   3.278   0.113
 7350TIP3    H221994   2.238   3.233   0.023
 7351TIP3   OH221995   3.714   7.674   0.916
 7351TIP3    H121996   3.636   7.692   0.969
 7351TIP3    H221997   3.688   7.694   0.826
 7352TIP3   OH221998   7.204   3.993   6.163
 7352TIP3    H121999   7.140   4.043   6.214
 7352TIP3    H222000   7.158   3.911   6.142
 7353TIP3   OH222001   3.324   7.267   6.434
 7353TIP3    H122002   3.370   7.349   6.454
 7353TIP3    H222003   3.259   7.258   6.504
 7354TIP3   OH222004   3.622   3.041   2.989
 7354TIP3    H122005   3.644   3.110   3.052
 7354TIP3    H222006   3.693   3.044   2.925
 7355TIP3   OH222007   3.700   1.255   4.501
 7355TIP3    H122008   3.738   1.293   4.580
 7355TIP3    H222009   3.662   1.329   4.454
 7356TIP3   OH222010   0.513   6.462   1.269
 7356TIP3    H122011   0.511   6.383   1.323
 7356TIP3    H222012   0.573   6.521   1.314
 7357TIP3   OH222013   0.578   0.299   1.183
 7357TIP3    H122014   0.646   0.300   1.250
 7357TIP3    H222015   0.593   0.217   1.134
 7358TIP3   OH222016   3.802   6.503   0.301
 7358TIP3    H122017   3.716   6.507   0.260
 7358TIP3    H222018   3.806   6.415   0.339
 7359TIP3   OH222019   3.918   5.250   3.028
 7359TIP3    H122020   3.826   5.224   3.039
 7359TIP3    H222021   3.935   5.239   2.935
 7360TIP3   OH222022   2.901   6.943   5.802
 7360TIP3    H122023   2.935   6.954   5.891
 7360TIP3    H222024   2.821   6.892   5.812
 7361TIP3   OH222025   0.804   0.510   2.812
 7361TIP3    H122026   0.889   0.555   2.816
 7361TIP3    H222027   0.745   0.567   2.860
 7362TIP3   OH222028   3.677   0.270   4.206
 7362TIP3    H122029   3.636   0.355   4.219
 7362TIP3    H222030   3.604   0.209   4.193
 7363TIP3   OH222031   1.481   0.453   4.185
 7363TIP3    H122032   1.450   0.390   4.250
 7363TIP3    H222033   1.424   0.439   4.109
 7364TIP3   OH222034   0.502   3.570   2.540
 7364TIP3    H122035   0.483   3.664   2.538
 7364TIP3    H222036   0.456   3.535   2.463
 7365TIP3   OH222037   4.073   2.063   2.245
 7365TIP3    H122038   4.162   2.026   2.243
 7365TIP3    H222039   4.055   2.088   2.154
 7366TIP3   OH222040   6.865   1.947   1.489
 7366TIP3    H122041   6.912   1.870   1.459
 7366TIP3    H222042   6.773   1.927   1.473
 7367TIP3   OH222043   0.595   7.596   1.109
 7367TIP3    H122044   0.619   7.678   1.151
 7367TIP3    H222045   0.671   7.573   1.056
 7368TIP3   OH222046   0.819   7.728   3.090
 7368TIP3    H122047   0.741   7.671   3.096
 7368TIP3    H222048   0.887   7.670   3.056
 7369TIP3   OH222049   1.195   2.036   3.843
 7369TIP3    H122050   1.254   2.059   3.915
 7369TIP3    H222051   1.198   1.941   3.839
 7370TIP3   OH222052   7.415   4.440   1.961
 7370TIP3    H122053   7.496   4.490   1.950
 7370TIP3    H222054   7.443   4.348   1.957
 7371TIP3   OH222055   1.602   5.955   4.483
 7371TIP3    H122056   1.578   5.888   4.547
 7371TIP3    H222057   1.542   6.027   4.500
 7372TIP3   OH222058   6.290   0.640   6.729
 7372TIP3    H122059   6.216   0.681   6.683
 7372TIP3    H222060   6.291   0.682   6.815
 7373TIP3   OH222061   4.234   3.922   6.059
 7373TIP3    H122062   4.219   3.979   6.134
 7373TIP3    H222063   4.324   3.942   6.031
 7374TIP3   OH222064   1.834   0.604   0.909
 7374TIP3    H122065   1.781   0.586   0.831
 7374TIP3    H222066   1.909   0.546   0.902
 7375TIP3   OH222067   7.618   3.084   5.940
 7375TIP3    H122068   7.690   3.135   5.977
 7375TIP3    H222069   7.607   3.118   5.851
 7376TIP3   OH222070   7.580   5.056   0.340
 7376TIP3    H122071   7.505   5.114   0.324
 7376TIP3    H222072   7.613   5.083   0.426
 7377TIP3   OH222073   4.928   1.429   6.503
 7377TIP3    H122074   4.836   1.423   6.481
 7377TIP3    H222075   4.931   1.489   6.578
 7378TIP3   OH222076   1.080   2.745   0.469
 7378TIP3    H122077   1.019   2.682   0.430
 7378TIP3    H222078   1.161   2.695   0.480
 7379TIP3   OH222079   3.030   7.081   5.211
 7379TIP3    H122080   2.935   7.078   5.218
 7379TIP3    H222081   3.049   7.171   5.183
 7380TIP3   OH222082   3.740   3.523   4.029
 7380TIP3    H122083   3.726   3.618   4.029
 7380TIP3    H222084   3.751   3.501   3.936
 7381TIP3   OH222085   1.586   0.221   2.484
 7381TIP3    H122086   1.642   0.282   2.435
 7381TIP3    H222087   1.497   0.251   2.466
 7382TIP3   OH222088   3.923   4.029   3.940
 7382TIP3    H122089   3.849   4.047   3.882
 7382TIP3    H222090   3.954   3.942   3.914
 7383TIP3   OH222091   7.484   5.238   3.657
 7383TIP3    H122092   7.395   5.210   3.636
 7383TIP3    H222093   7.540   5.165   3.631
 7384TIP3   OH222094   2.970   7.213   2.107
 7384TIP3    H122095   2.901   7.278   2.089
 7384TIP3    H222096   2.926   7.129   2.101
 7385TIP3   OH222097   6.978   4.349   2.364
 7385TIP3    H122098   6.977   4.261   2.402
 7385TIP3    H222099   6.991   4.407   2.439
 7386TIP3   OH222100   4.456   0.660   0.519
 7386TIP3    H122101   4.418   0.680   0.605
 7386TIP3    H222102   4.489   0.744   0.487
 7387TIP3   OH222103   1.509   0.627   6.026
 7387TIP3    H122104   1.599   0.656   6.015
 7387TIP3    H222105   1.505   0.592   6.115
 7388TIP3   OH222106   1.578   0.079   5.497
 7388TIP3    H122107   1.603   0.170   5.509
 7388TIP3    H222108   1.531   0.077   5.414
 7389TIP3   OH222109   1.762   1.385   2.193
 7389TIP3    H122110   1.808   1.309   2.228
 7389TIP3    H222111   1.776   1.380   2.098
 7390TIP3   OH222112   1.556   4.111   1.608
 7390TIP3    H122113   1.488   4.127   1.542
 7390TIP3    H222114   1.517   4.144   1.689
 7391TIP3   OH222115   3.782   2.476   4.073
 7391TIP3    H122116   3.872   2.507   4.066
 7391TIP3    H222117   3.748   2.517   4.153
 7392TIP3   OH222118   7.421   3.829   4.762
 7392TIP3    H122119   7.501   3.805   4.716
 7392TIP3    H222120   7.402   3.918   4.732
 7393TIP3   OH222121   3.654   4.072   0.688
 7393TIP3    H122122   3.693   3.993   0.652
 7393TIP3    H222123   3.727   4.134   0.698
 7394TIP3   OH222124   8.061   3.881   1.275
 7394TIP3    H122125   8.017   3.797   1.291
 7394TIP3    H222126   8.138   3.858   1.223
 7395TIP3   OH222127   6.110   3.902   4.926
 7395TIP3    H122128   6.153   3.829   4.882
 7395TIP3    H222129   6.024   3.908   4.885
 7396TIP3   OH222130   3.257   5.650   4.562
 7396TIP3    H122131   3.325   5.713   4.583
 7396TIP3    H222132   3.291   5.601   4.487
 7397TIP3   OH222133   7.251   2.311   4.422
 7397TIP3    H122134   7.312   2.382   4.402
 7397TIP3    H222135   7.228   2.275   4.337
 7398TIP3   OH222136   6.242   7.464   5.493
 7398TIP3    H122137   6.312   7.400   5.481
 7398TIP3    H222138   6.284   7.536   5.542
 7399TIP3   OH222139   3.002   5.232   4.576
 7399TIP3    H122140   2.968   5.187   4.499
 7399TIP3    H222141   2.998   5.167   4.646
 7400TIP3   OH222142   5.084   2.273   1.043
 7400TIP3    H122143   5.119   2.307   0.961
 7400TIP3    H222144   5.003   2.322   1.056
 7401TIP3   OH222145   3.222   7.846   0.147
 7401TIP3    H122146   3.231   7.764   0.099
 7401TIP3    H222147   3.306   7.890   0.135
 7402TIP3   OH222148   4.613   3.514   3.214
 7402TIP3    H122149   4.637   3.593   3.263
 7402TIP3    H222150   4.536   3.479   3.259
 7403TIP3   OH222151   5.215   2.565   0.187
 7403TIP3    H122152   5.269   2.595   0.114
 7403TIP3    H222153   5.260   2.596   0.265
 7404TIP3   OH222154   0.583   5.848   6.233
 7404TIP3    H122155   0.533   5.768   6.218
 7404TIP3    H222156   0.626   5.865   6.149
 7405TIP3   OH222157   7.228   7.329   0.836
 7405TIP3    H122158   7.221   7.239   0.803
 7405TIP3    H222159   7.139   7.350   0.866
 7406TIP3   OH222160   5.690   4.199   6.775
 7406TIP3    H122161   5.703   4.274   6.833
 7406TIP3    H222162   5.609   4.218   6.728
 7407TIP3   OH222163   6.902   1.852   6.348
 7407TIP3    H122164   6.987   1.859   6.304
 7407TIP3    H222165   6.847   1.806   6.286
 7408TIP3   OH222166   1.997   0.196   1.624
 7408TIP3    H122167   2.035   0.281   1.605
 7408TIP3    H222168   1.929   0.214   1.689
 7409TIP3   OH222169   6.101   5.877   5.624
 7409TIP3    H122170   6.117   5.857   5.716
 7409TIP3    H222171   6.132   5.799   5.577
 7410TIP3   OH222172   2.281   0.140   3.686
 7410TIP3    H122173   2.253   0.049   3.695
 7410TIP3    H222174   2.376   0.138   3.697
 7411TIP3   OH222175   2.934   6.270   5.861
 7411TIP3    H122176   2.955   6.364   5.855
 7411TIP3    H222177   2.951   6.248   5.952
 7412TIP3   OH222178   6.955   6.315   4.221
 7412TIP3    H122179   6.959   6.348   4.131
 7412TIP3    H222180   6.866   6.338   4.251
 7413TIP3   OH222181   2.027   3.729   3.918
 7413TIP3    H122182   1.985   3.800   3.967
 7413TIP3    H222183   2.012   3.651   3.971
 7414TIP3   OH222184   0.062   6.569   3.537
 7414TIP3    H122185   0.088   6.640   3.479
 7414TIP3    H222186   0.137   6.556   3.595
 7415TIP3   OH222187   2.201   6.118   3.583
 7415TIP3    H122188   2.230   6.203   3.616
 7415TIP3    H222189   2.112   6.108   3.617
 7416TIP3   OH222190   6.835   6.996   3.858
 7416TIP3    H122191   6.883   7.078   3.869
 7416TIP3    H222192   6.901   6.928   3.871
 7417TIP3   OH222193   6.621   0.319   5.778
 7417TIP3    H122194   6.709   0.313   5.817
 7417TIP3    H222195   6.634   0.296   5.686
 7418TIP3   OH222196   4.404   4.598   3.792
 7418TIP3    H122197   4.489   4.636   3.771
 7418TIP3    H222198   4.404   4.513   3.748
 7419TIP3   OH222199   2.967   6.716   0.278
 7419TIP3    H122200   3.050   6.673   0.259
 7419TIP3    H222201   2.991   6.794   0.328
 7420TIP3   OH222202   0.331   7.418   3.166
 7420TIP3    H122203   0.366   7.507   3.157
 7420TIP3    H222204   0.279   7.421   3.246
 7421TIP3   OH222205   5.376   4.792   4.107
 7421TIP3    H122206   5.299   4.743   4.078
 7421TIP3    H222207   5.379   4.869   4.049
 7422TIP3   OH222208   7.431   3.181   0.776
 7422TIP3    H122209   7.510   3.128   0.780
 7422TIP3    H222210   7.360   3.118   0.760
 7423TIP3   OH222211   2.678   1.180   5.562
 7423TIP3    H122212   2.691   1.096   5.605
 7423TIP3    H222213   2.591   1.209   5.590
 7424TIP3   OH222214   0.110   6.286   3.769
 7424TIP3    H122215   0.162   6.366   3.769
 7424TIP3    H222216   0.164   6.222   3.815
 7425TIP3   OH222217   7.598   0.110   5.135
 7425TIP3    H122218   7.670   0.167   5.164
 7425TIP3    H222219   7.641   0.031   5.103
 7426TIP3   OH222220   5.586   6.855   3.656
 7426TIP3    H122221   5.509   6.871   3.602
 7426TIP3    H222222   5.577   6.915   3.729
 7427TIP3   OH222223   1.183   6.035   1.710
 7427TIP3    H122224   1.234   6.084   1.646
 7427TIP3    H222225   1.242   5.966   1.740
 7428TIP3   OH222226   2.310   2.437   4.161
 7428TIP3    H122227   2.269   2.523   4.171
 7428TIP3    H222228   2.254   2.391   4.098
 7429TIP3   OH222229   0.365   7.187   3.052
 7429TIP3    H122230   0.385   7.179   2.959
 7429TIP3    H222231   0.384   7.279   3.073
 7430TIP3   OH222232   7.706   5.572   6.561
 7430TIP3    H122233   7.667   5.611   6.482
 7430TIP3    H222234   7.636   5.520   6.599
 7431TIP3   OH222235   1.455   4.643   1.474
 7431TIP3    H122236   1.407   4.580   1.528
 7431TIP3    H222237   1.544   4.608   1.470
 7432TIP3   OH222238   5.741   0.658   4.930
 7432TIP3    H122239   5.803   0.710   4.982
 7432TIP3    H222240   5.796   0.604   4.874
 7433TIP3   OH222241   2.806   0.923   6.721
 7433TIP3    H122242   2.789   0.829   6.714
 7433TIP3    H222243   2.759   0.962   6.647
 7434TIP3   OH222244   5.476   0.535   5.003
 7434TIP3    H122245   5.557   0.575   4.973
 7434TIP3    H222246   5.441   0.597   5.067
 7435TIP3   OH222247   8.324   2.779   4.005
 7435TIP3    H122248   8.245   2.804   3.957
 7435TIP3    H222249   8.291   2.734   4.083
 7436TIP3   OH222250   3.534   3.967   4.906
 7436TIP3    H122251   3.517   4.011   4.989
 7436TIP3    H222252   3.555   3.877   4.932
 7437TIP3   OH222253   4.636   5.704   4.006
 7437TIP3    H122254   4.569   5.696   4.074
 7437TIP3    H222255   4.586   5.723   3.926
 7438TIP3   OH222256   2.301   6.552   3.564
 7438TIP3    H122257   2.220   6.565   3.514
 7438TIP3    H222258   2.337   6.471   3.530
 7439TIP3   OH222259   5.632   4.111   0.577
 7439TIP3    H122260   5.723   4.080   0.582
 7439TIP3    H222261   5.621   4.165   0.655
 7440TIP3   OH222262   1.534   4.390   5.537
 7440TIP3    H122263   1.535   4.482   5.563
 7440TIP3    H222264   1.609   4.351   5.584
 7441TIP3   OH222265   7.843   3.580   0.453
 7441TIP3    H122266   7.750   3.565   0.464
 7441TIP3    H222267   7.877   3.592   0.541
 7442TIP3   OH222268   7.660   2.078   4.673
 7442TIP3    H122269   7.713   2.098   4.596
 7442TIP3    H222270   7.577   2.122   4.657
 7443TIP3   OH222271   3.206   3.242   2.344
 7443TIP3    H122272   3.276   3.182   2.322
 7443TIP3    H222273   3.150   3.193   2.404
 7444TIP3   OH222274   6.013   3.984   1.761
 7444TIP3    H122275   6.068   3.969   1.684
 7444TIP3    H222276   5.925   3.994   1.725
 7445TIP3   OH222277   6.118   4.608   4.266
 7445TIP3    H122278   6.181   4.562   4.321
 7445TIP3    H222279   6.171   4.652   4.200
 7446TIP3   OH222280   5.354   1.618   3.974
 7446TIP3    H122281   5.400   1.696   4.005
 7446TIP3    H222282   5.285   1.604   4.038
 7447TIP3   OH222283   6.637   6.167   1.644
 7447TIP3    H122284   6.615   6.251   1.684
 7447TIP3    H222285   6.558   6.115   1.652
 7448TIP3   OH222286   3.908   6.368   4.279
 7448TIP3    H122287   3.847   6.442   4.286
 7448TIP3    H222288   3.875   6.303   4.341
 7449TIP3   OH222289   3.677   4.682   1.492
 7449TIP3    H122290   3.652   4.764   1.535
 7449TIP3    H222291   3.595   4.650   1.453
 7450TIP3   OH222292   0.460   5.464   3.969
 7450TIP3    H122293   0.441   5.440   3.879
 7450TIP3    H222294   0.454   5.559   3.971
 7451TIP3   OH222295   6.061   7.698   3.080
 7451TIP3    H122296   6.039   7.738   3.164
 7451TIP3    H222297   6.079   7.772   3.022
 7452TIP3   OH222298   3.213   0.008   5.337
 7452TIP3    H122299   3.188  -0.034   5.255
 7452TIP3    H222300   3.309   0.003   5.339
 7453TIP3   OH222301   0.682   4.605   4.206
 7453TIP3    H122302   0.623   4.587   4.133
 7453TIP3    H222303   0.680   4.525   4.259
 7454TIP3   OH222304   2.890   4.281   1.289
 7454TIP3    H122305   2.961   4.267   1.226
 7454TIP3    H222306   2.869   4.194   1.321
 7455TIP3   OH222307   1.257   3.368   0.745
 7455TIP3    H122308   1.234   3.292   0.798
 7455TIP3    H222309   1.175   3.394   0.702
 7456TIP3   OH222310   1.994  -0.038   1.458
 7456TIP3    H122311   1.905  -0.030   1.424
 7456TIP3    H222312   2.005   0.038   1.515
 7457TIP3   OH222313   0.364   6.627   0.843
 7457TIP3    H122314   0.372   6.606   0.936
 7457TIP3    H222315   0.271   6.617   0.824
 7458TIP3   OH222316   6.497   2.379   4.494
 7458TIP3    H122317   6.427   2.318   4.517
 7458TIP3    H222318   6.486   2.393   4.400
 7459TIP3   OH222319   5.264   0.017   4.766
 7459TIP3    H122320   5.322   0.003   4.841
 7459TIP3    H222321   5.301   0.093   4.721
 7460TIP3   OH222322   2.609   6.237   6.508
 7460TIP3    H122323   2.554   6.246   6.431
 7460TIP3    H222324   2.663   6.316   6.509
 7461TIP3   OH222325   0.361   4.407   5.005
 7461TIP3    H122326   0.312   4.489   5.000
 7461TIP3    H222327   0.390   4.401   5.096
 7462TIP3   OH222328   7.134   0.269   1.107
 7462TIP3    H122329   7.053   0.252   1.058
 7462TIP3    H222330   7.174   0.343   1.061
 7463TIP3   OH222331   4.679   6.989   0.152
 7463TIP3    H122332   4.600   6.936   0.140
 7463TIP3    H222333   4.647   7.079   0.149
 7464TIP3   OH222334   3.572   6.819   2.081
 7464TIP3    H122335   3.544   6.747   2.024
 7464TIP3    H222336   3.551   6.790   2.169
 7465TIP3   OH222337   1.453   7.265   4.419
 7465TIP3    H122338   1.514   7.228   4.355
 7465TIP3    H222339   1.406   7.189   4.453
 7466TIP3   OH222340   3.964   2.396   1.333
 7466TIP3    H122341   3.904   2.428   1.266
 7466TIP3    H222342   4.028   2.466   1.343
 7467TIP3   OH222343   4.824   7.592   1.210
 7467TIP3    H122344   4.801   7.564   1.121
 7467TIP3    H222345   4.913   7.626   1.201
 7468TIP3   OH222346   1.296   4.211   2.204
 7468TIP3    H122347   1.334   4.285   2.157
 7468TIP3    H222348   1.209   4.199   2.165
 7469TIP3   OH222349   7.534   6.281   6.335
 7469TIP3    H122350   7.496   6.235   6.411
 7469TIP3    H222351   7.501   6.232   6.259
 7470TIP3   OH222352   7.555   1.987   2.716
 7470TIP3    H122353   7.573   1.919   2.650
 7470TIP3    H222354   7.556   1.939   2.800
 7471TIP3   OH222355   4.820   3.448   2.054
 7471TIP3    H122356   4.855   3.365   2.086
 7471TIP3    H222357   4.871   3.467   1.974
 7472TIP3   OH222358   6.934   2.624   5.091
 7472TIP3    H122359   6.916   2.717   5.080
 7472TIP3    H222360   6.900   2.584   5.011
 7473TIP3   OH222361   5.847   1.091   5.075
 7473TIP3    H122362   5.895   1.163   5.115
 7473TIP3    H222363   5.894   1.075   4.993
 7474TIP3   OH222364   4.416   7.468   3.165
 7474TIP3    H122365   4.431   7.394   3.223
 7474TIP3    H222366   4.504   7.502   3.147
 7475TIP3   OH222367   2.668   2.097   6.248
 7475TIP3    H122368   2.577   2.124   6.237
 7475TIP3    H222369   2.688   2.047   6.169
 7476TIP3   OH222370   2.925   0.116   5.123
 7476TIP3    H122371   2.909   0.209   5.141
 7476TIP3    H222372   2.985   0.117   5.048
 7477TIP3   OH222373   6.370   5.805   1.821
 7477TIP3    H122374   6.345   5.714   1.805
 7477TIP3    H222375   6.462   5.809   1.796
 7478TIP3   OH222376   1.965   6.760   2.980
 7478TIP3    H122377   1.961   6.667   2.957
 7478TIP3    H222378   2.021   6.799   2.913
 7479TIP3   OH222379   1.863   5.543   6.529
 7479TIP3    H122380   1.828   5.514   6.613
 7479TIP3    H222381   1.793   5.596   6.491
 7480TIP3   OH222382   5.353   7.114   2.110
 7480TIP3    H122383   5.326   7.142   2.023
 7480TIP3    H222384   5.288   7.048   2.135
 7481TIP3   OH222385   2.942   2.638   1.410
 7481TIP3    H122386   2.941   2.704   1.340
 7481TIP3    H222387   3.018   2.660   1.463
 7482TIP3   OH222388   3.859   0.644   3.399
 7482TIP3    H122389   3.855   0.658   3.494
 7482TIP3    H222390   3.945   0.604   3.384
 7483TIP3   OH222391   6.354   1.796   0.911
 7483TIP3    H122392   6.309   1.878   0.895
 7483TIP3    H222393   6.330   1.771   1.000
 7484TIP3   OH222394   3.990   2.313   4.677
 7484TIP3    H122395   3.994   2.390   4.621
 7484TIP3    H222396   4.052   2.330   4.747
 7485TIP3   OH222397   1.564   2.715   1.302
 7485TIP3    H122398   1.498   2.708   1.233
 7485TIP3    H222399   1.555   2.634   1.352
 7486TIP3   OH222400   2.929   2.752   2.201
 7486TIP3    H122401   2.834   2.753   2.192
 7486TIP3    H222402   2.960   2.695   2.130
 7487TIP3   OH222403   4.199   3.912   5.523
 7487TIP3    H122404   4.196   4.007   5.526
 7487TIP3    H222405   4.270   3.888   5.582
 7488TIP3   OH222406   3.937   0.159   4.248
 7488TIP3    H122407   3.843   0.141   4.245
 7488TIP3    H222408   3.954   0.176   4.341
 7489TIP3   OH222409   4.313   2.792   1.831
 7489TIP3    H122410   4.368   2.828   1.761
 7489TIP3    H222411   4.248   2.860   1.848
 7490TIP3   OH222412   3.499   0.153   4.587
 7490TIP3    H122413   3.550   0.217   4.637
 7490TIP3    H222414   3.564   0.105   4.536
 7491TIP3   OH222415   7.999   4.303   0.067
 7491TIP3    H122416   8.056   4.254   0.126
 7491TIP3    H222417   7.991   4.248  -0.011
 7492TIP3   OH222418   3.952   0.162   2.305
 7492TIP3    H122419   3.888   0.191   2.370
 7492TIP3    H222420   4.007   0.099   2.352
 7493TIP3   OH222421   2.307   4.077   3.078
 7493TIP3    H122422   2.381   4.023   3.051
 7493TIP3    H222423   2.347   4.150   3.126
 7494TIP3   OH222424   4.742   1.703   6.069
 7494TIP3    H122425   4.725   1.782   6.122
 7494TIP3    H222426   4.723   1.630   6.129
 7495TIP3   OH222427   3.039   5.772   4.691
 7495TIP3    H122428   3.122   5.729   4.670
 7495TIP3    H222429   3.042   5.854   4.642
 7496TIP3   OH222430   3.145   0.293   2.866
 7496TIP3    H122431   3.231   0.258   2.841
 7496TIP3    H222432   3.125   0.358   2.800
 7497TIP3   OH222433   2.521   3.831   1.616
 7497TIP3    H122434   2.600   3.886   1.624
 7497TIP3    H222435   2.552   3.742   1.635
 7498TIP3   OH222436   1.274   3.155   6.212
 7498TIP3    H122437   1.208   3.125   6.150
 7498TIP3    H222438   1.264   3.099   6.288
 7499TIP3   OH222439   7.430   4.544   4.188
 7499TIP3    H122440   7.497   4.584   4.132
 7499TIP3    H222441   7.382   4.619   4.224
 7500TIP3   OH222442   5.384   6.624   5.951
 7500TIP3    H122443   5.384   6.686   5.878
 7500TIP3    H222444   5.475   6.594   5.956
 7501TIP3   OH222445   7.871   2.356   1.223
 7501TIP3    H122446   7.865   2.427   1.287
 7501TIP3    H222447   7.958   2.318   1.237
 7502TIP3   OH222448   6.917   3.751   5.174
 7502TIP3    H122449   6.927   3.672   5.122
 7502TIP3    H222450   6.985   3.810   5.143
 7503TIP3   OH222451   6.496   2.599   2.798
 7503TIP3    H122452   6.458   2.551   2.872
 7503TIP3    H222453   6.521   2.530   2.735
 7504TIP3   OH222454   2.107   0.903   4.477
 7504TIP3    H122455   2.114   0.810   4.499
 7504TIP3    H222456   2.112   0.948   4.561
 7505TIP3   OH222457   7.823   4.806   2.814
 7505TIP3    H122458   7.904   4.782   2.768
 7505TIP3    H222459   7.841   4.784   2.906
 7506TIP3   OH222460   7.985   1.133   3.530
 7506TIP3    H122461   8.065   1.142   3.478
 7506TIP3    H222462   7.956   1.043   3.515
 7507TIP3   OH222463   7.415   3.933   3.168
 7507TIP3    H122464   7.463   3.855   3.197
 7507TIP3    H222465   7.430   3.937   3.074
 7508TIP3   OH222466   7.361   6.653   4.234
 7508TIP3    H122467   7.335   6.691   4.151
 7508TIP3    H222468   7.452   6.627   4.221
 7509TIP3   OH222469   1.167   3.725   5.891
 7509TIP3    H122470   1.242   3.722   5.950
 7509TIP3    H222471   1.182   3.803   5.837
 7510TIP3   OH222472   5.306   6.937   0.434
 7510TIP3    H122473   5.248   6.894   0.371
 7510TIP3    H222474   5.321   6.871   0.502
 7511TIP3   OH222475   0.854   3.380   0.450
 7511TIP3    H122476   0.879   3.431   0.528
 7511TIP3    H222477   0.783   3.431   0.410
 7512TIP3   OH222478   6.455   1.731   4.514
 7512TIP3    H122479   6.367   1.701   4.533
 7512TIP3    H222480   6.486   1.770   4.595
 7513TIP3   OH222481   5.583   5.347   4.821
 7513TIP3    H122482   5.561   5.301   4.902
 7513TIP3    H222483   5.667   5.389   4.839
 7514TIP3   OH222484   3.903   1.432   6.278
 7514TIP3    H122485   3.901   1.337   6.270
 7514TIP3    H222486   3.916   1.463   6.188
 7515TIP3   OH222487   3.231   4.156   0.864
 7515TIP3    H122488   3.295   4.157   0.792
 7515TIP3    H222489   3.224   4.063   0.887
 7516TIP3   OH222490   0.355   2.323   0.615
 7516TIP3    H122491   0.266   2.311   0.650
 7516TIP3    H222492   0.357   2.415   0.587
 7517TIP3   OH222493   5.627   6.835   1.740
 7517TIP3    H122494   5.586   6.840   1.826
 7517TIP3    H222495   5.719   6.814   1.758
 7518TIP3   OH222496   8.164   5.317   2.491
 7518TIP3    H122497   8.160   5.385   2.424
 7518TIP3    H222498   8.255   5.287   2.489
 7519TIP3   OH222499   5.630   2.361   4.140
 7519TIP3    H122500   5.643   2.401   4.054
 7519TIP3    H222501   5.703   2.392   4.193
 7520TIP3   OH222502   0.631   5.515   1.820
 7520TIP3    H122503   0.616   5.607   1.798
 7520TIP3    H222504   0.715   5.516   1.867
 7521TIP3   OH222505   2.636   0.572   0.709
 7521TIP3    H122506   2.633   0.476   0.712
 7521TIP3    H222507   2.587   0.600   0.786
 7522TIP3   OH222508   4.124   7.084   6.020
 7522TIP3    H122509   4.112   7.076   6.114
 7522TIP3    H222510   4.036   7.101   5.986
 7523TIP3   OH222511   4.401   6.348   4.865
 7523TIP3    H122512   4.329   6.329   4.926
 7523TIP3    H222513   4.428   6.437   4.887
 7524TIP3   OH222514   0.564   6.895   6.505
 7524TIP3    H122515   0.645   6.855   6.536
 7524TIP3    H222516   0.586   6.988   6.495
 7525TIP3   OH222517   4.914   4.857   0.839
 7525TIP3    H122518   4.839   4.913   0.858
 7525TIP3    H222519   4.932   4.872   0.746
 7526TIP3   OH222520   2.548   3.919   2.989
 7526TIP3    H122521   2.503   3.845   3.028
 7526TIP3    H222522   2.603   3.881   2.920
 7527TIP3   OH222523   2.603   5.041   4.933
 7527TIP3    H122524   2.510   5.059   4.948
 7527TIP3    H222525   2.648   5.093   4.999
 7528TIP3   OH222526   4.053   5.124   1.279
 7528TIP3    H122527   4.053   5.214   1.245
 7528TIP3    H222528   4.078   5.070   1.204
 7529TIP3   OH222529   7.229   7.558   3.377
 7529TIP3    H122530   7.232   7.463   3.368
 7529TIP3    H222531   7.156   7.574   3.437
 7530TIP3   OH222532   0.040   0.562   4.622
 7530TIP3    H122533   0.004   0.647   4.595
 7530TIP3    H222534   0.129   0.561   4.587
 7531TIP3   OH222535   7.811   7.475   5.853
 7531TIP3    H122536   7.907   7.471   5.852
 7531TIP3    H222537   7.790   7.567   5.838
 7532TIP3   OH222538   5.029   5.982   6.242
 7532TIP3    H122539   4.941   6.011   6.217
 7532TIP3    H222540   5.030   5.889   6.220
 7533TIP3   OH222541   3.450   2.573   0.553
 7533TIP3    H122542   3.391   2.498   0.547
 7533TIP3    H222543   3.434   2.609   0.640
 7534TIP3   OH222544   6.795   6.841   4.613
 7534TIP3    H122545   6.763   6.857   4.702
 7534TIP3    H222546   6.889   6.826   4.624
 7535TIP3   OH222547   1.134   5.409   4.629
 7535TIP3    H122548   1.170   5.344   4.568
 7535TIP3    H222549   1.072   5.459   4.576
 7536TIP3   OH222550   8.144   3.173   6.061
 7536TIP3    H122551   8.116   3.250   6.109
 7536TIP3    H222552   8.227   3.198   6.020
 7537TIP3   OH222553   4.613   7.051   4.061
 7537TIP3    H122554   4.652   6.972   4.098
 7537TIP3    H222555   4.580   7.023   3.976
 7538TIP3   OH222556   0.514   6.381   2.358
 7538TIP3    H122557   0.450   6.416   2.419
 7538TIP3    H222558   0.590   6.438   2.368
 7539TIP3   OH222559   5.276   4.193   4.790
 7539TIP3    H122560   5.247   4.204   4.880
 7539TIP3    H222561   5.278   4.098   4.777
 7540TIP3   OH222562   6.890   1.166   0.874
 7540TIP3    H122563   6.883   1.225   0.950
 7540TIP3    H222564   6.936   1.089   0.908
 7541TIP3   OH222565   1.487   1.001   5.914
 7541TIP3    H122566   1.537   1.071   5.955
 7541TIP3    H222567   1.436   0.963   5.986
 7542TIP3   OH222568   4.093   1.342   2.772
 7542TIP3    H122569   4.094   1.375   2.682
 7542TIP3    H222570   4.167   1.282   2.776
 7543TIP3   OH222571   5.022   4.463   1.338
 7543TIP3    H122572   5.032   4.401   1.265
 7543TIP3    H222573   5.017   4.549   1.296
 7544TIP3   OH222574   0.990   6.385   4.191
 7544TIP3    H122575   0.973   6.468   4.145
 7544TIP3    H222576   0.904   6.359   4.224
 7545TIP3   OH222577   2.556   5.865   3.095
 7545TIP3    H122578   2.476   5.858   3.043
 7545TIP3    H222579   2.542   5.805   3.168
 7546TIP3   OH222580   1.279   2.078   1.464
 7546TIP3    H122581   1.305   2.105   1.552
 7546TIP3    H222582   1.357   2.093   1.410
 7547TIP3   OH222583   2.392   2.548   0.728
 7547TIP3    H122584   2.348   2.499   0.659
 7547TIP3    H222585   2.429   2.481   0.785
 7548TIP3   OH222586   0.463   0.689   1.920
 7548TIP3    H122587   0.519   0.708   1.995
 7548TIP3    H222588   0.377   0.725   1.944
 7549TIP3   OH222589   5.194   2.246   1.944
 7549TIP3    H122590   5.258   2.270   2.011
 7549TIP3    H222591   5.121   2.209   1.993
 7550TIP3   OH222592   6.091   7.443   4.735
 7550TIP3    H122593   6.175   7.398   4.736
 7550TIP3    H222594   6.111   7.534   4.756
 7551TIP3   OH222595   1.016   4.409   2.281
 7551TIP3    H122596   0.974   4.382   2.200
 7551TIP3    H222597   0.948   4.455   2.329
 7552TIP3   OH222598   3.456   7.098   6.681
 7552TIP3    H122599   3.361   7.098   6.687
 7552TIP3    H222600   3.483   7.015   6.721
 7553TIP3   OH222601   7.735   1.395   6.756
 7553TIP3    H122602   7.651   1.373   6.716
 7553TIP3    H222603   7.750   1.326   6.820
 7554TIP3   OH222604   3.470   4.357   3.869
 7554TIP3    H122605   3.426   4.417   3.929
 7554TIP3    H222606   3.401   4.298   3.838
 7555TIP3   OH222607   1.959   4.857   1.952
 7555TIP3    H122608   1.923   4.815   2.030
 7555TIP3    H222609   2.020   4.922   1.986
 7556TIP3   OH222610   1.565   3.896   3.066
 7556TIP3    H122611   1.470   3.880   3.064
 7556TIP3    H222612   1.596   3.864   2.982
 7557TIP3   OH222613   2.540   2.280   5.828
 7557TIP3    H122614   2.606   2.349   5.831
 7557TIP3    H222615   2.481   2.298   5.901
 7558TIP3   OH222616   4.562   6.116   4.155
 7558TIP3    H122617   4.554   6.208   4.180
 7558TIP3    H222618   4.644   6.087   4.196
 7559TIP3   OH222619   3.762   4.825   0.461
 7559TIP3    H122620   3.801   4.907   0.490
 7559TIP3    H222621   3.814   4.799   0.386
 7560TIP3   OH222622   5.463   4.499   4.079
 7560TIP3    H122623   5.452   4.593   4.093
 7560TIP3    H222624   5.526   4.493   4.007
 7561TIP3   OH222625   4.931   6.890   3.848
 7561TIP3    H122626   4.884   6.973   3.853
 7561TIP3    H222627   5.000   6.897   3.914
 7562TIP3   OH222628   5.961   6.610   3.457
 7562TIP3    H122629   5.996   6.524   3.477
 7562TIP3    H222630   6.024   6.671   3.496
 7563TIP3   OH222631   2.332   7.565   4.472
 7563TIP3    H122632   2.421   7.534   4.486
 7563TIP3    H222633   2.293   7.501   4.412
 7564TIP3   OH222634   7.474   6.844   5.753
 7564TIP3    H122635   7.405   6.906   5.777
 7564TIP3    H222636   7.493   6.796   5.833
 7565TIP3   OH222637   7.178   1.089   4.206
 7565TIP3    H122638   7.268   1.119   4.189
 7565TIP3    H222639   7.135   1.095   4.120
 7566TIP3   OH222640   0.496   2.849   2.056
 7566TIP3    H122641   0.584   2.877   2.083
 7566TIP3    H222642   0.511   2.765   2.011
 7567TIP3   OH222643   3.206   6.904   3.367
 7567TIP3    H122644   3.136   6.965   3.343
 7567TIP3    H222645   3.162   6.834   3.415
 7568TIP3   OH222646   5.225   7.455   0.169
 7568TIP3    H122647   5.306   7.502   0.187
 7568TIP3    H222648   5.232   7.374   0.219
 7569TIP3   OH222649   3.359   3.550   3.207
 7569TIP3    H122650   3.342   3.496   3.284
 7569TIP3    H222651   3.433   3.605   3.233
 7570TIP3   OH222652   0.429   6.303   6.320
 7570TIP3    H122653   0.374   6.354   6.260
 7570TIP3    H222654   0.484   6.368   6.364
 7571TIP3   OH222655   3.610   0.660   2.985
 7571TIP3    H122656   3.599   0.747   3.024
 7571TIP3    H222657   3.606   0.600   3.059
 7572TIP3   OH222658   4.059   0.895   4.772
 7572TIP3    H122659   4.031   0.821   4.825
 7572TIP3    H222660   4.077   0.858   4.686
 7573TIP3   OH222661   0.411   6.800   1.687
 7573TIP3    H122662   0.419   6.795   1.592
 7573TIP3    H222663   0.413   6.894   1.706
 7574TIP3   OH222664   2.463   0.561   2.985
 7574TIP3    H122665   2.423   0.633   3.033
 7574TIP3    H222666   2.427   0.482   3.026
 7575TIP3   OH222667   4.815   7.044   5.273
 7575TIP3    H122668   4.727   7.009   5.262
 7575TIP3    H222669   4.830   7.098   5.195
 7576TIP3   OH222670   6.750   3.332   0.357
 7576TIP3    H122671   6.815   3.266   0.332
 7576TIP3    H222672   6.670   3.282   0.371
 7577TIP3   OH222673   8.339   3.238   1.929
 7577TIP3    H122674   8.288   3.320   1.925
 7577TIP3    H222675   8.273   3.169   1.925
 7578TIP3   OH222676   7.686   7.633   0.140
 7578TIP3    H122677   7.721   7.722   0.146
 7578TIP3    H222678   7.664   7.610   0.230
 7579TIP3   OH222679   3.710   2.803   0.364
 7579TIP3    H122680   3.787   2.853   0.338
 7579TIP3    H222681   3.685   2.754   0.285
 7580TIP3   OH222682   3.705   5.791   0.400
 7580TIP3    H122683   3.690   5.853   0.328
 7580TIP3    H222684   3.705   5.845   0.479
 7581TIP3   OH222685   2.940   1.180   2.132
 7581TIP3    H122686   2.936   1.107   2.194
 7581TIP3    H222687   3.032   1.184   2.105
 7582TIP3   OH222688   3.321   2.895   4.697
 7582TIP3    H122689   3.302   2.988   4.681
 7582TIP3    H222690   3.238   2.859   4.729
 7583TIP3   OH222691   6.895   5.194   0.548
 7583TIP3    H122692   6.904   5.158   0.636
 7583TIP3    H222693   6.944   5.276   0.550
 7584TIP3   OH222694   2.865   1.368   2.405
 7584TIP3    H122695   2.857   1.280   2.441
 7584TIP3    H222696   2.907   1.419   2.475
 7585TIP3   OH222697   7.108   0.860   3.080
 7585TIP3    H122698   7.200   0.865   3.054
 7585TIP3    H222699   7.101   0.779   3.130
 7586TIP3   OH222700   7.214   1.562   1.426
 7586TIP3    H122701   7.238   1.531   1.513
 7586TIP3    H222702   7.145   1.503   1.397
 7587TIP3   OH222703   4.601   1.749   0.020
 7587TIP3    H122704   4.693   1.740   0.043
 7587TIP3    H222705   4.600   1.747  -0.076
 7588TIP3   OH222706   6.019   5.526   2.638
 7588TIP3    H122707   5.945   5.544   2.581
 7588TIP3    H222708   6.073   5.605   2.633
 7589TIP3   OH222709   0.917   2.711   1.218
 7589TIP3    H122710   0.976   2.698   1.144
 7589TIP3    H222711   0.858   2.781   1.189
 7590TIP3   OH222712   6.275   3.370   6.151
 7590TIP3    H122713   6.316   3.423   6.082
 7590TIP3    H222714   6.208   3.320   6.105
 7591TIP3   OH222715   0.247   4.862   2.536
 7591TIP3    H122716   0.223   4.918   2.610
 7591TIP3    H222717   0.168   4.810   2.519
 7592TIP3   OH222718   6.557   5.367   0.630
 7592TIP3    H122719   6.641   5.412   0.627
 7592TIP3    H222720   6.576   5.284   0.672
 7593TIP3   OH222721   3.578   1.200   2.703
 7593TIP3    H122722   3.540   1.287   2.693
 7593TIP3    H222723   3.505   1.145   2.731
 7594TIP3   OH222724   6.443   1.769   0.233
 7594TIP3    H122725   6.464   1.699   0.295
 7594TIP3    H222726   6.520   1.774   0.176
 7595TIP3   OH222727   2.377   1.987   0.802
 7595TIP3    H122728   2.404   1.905   0.844
 7595TIP3    H222729   2.416   1.983   0.715
 7596TIP3   OH222730   7.308   0.279   2.175
 7596TIP3    H122731   7.370   0.228   2.123
 7596TIP3    H222732   7.222   0.242   2.155
 7597TIP3   OH222733   5.625   2.836   5.006
 7597TIP3    H122734   5.559   2.849   5.074
 7597TIP3    H222735   5.627   2.741   4.992
 7598TIP3   OH222736   7.801   0.718   0.665
 7598TIP3    H122737   7.878   0.721   0.608
 7598TIP3    H222738   7.792   0.807   0.699
 7599TIP3   OH222739   3.596   7.795   1.247
 7599TIP3    H122740   3.662   7.738   1.207
 7599TIP3    H222741   3.571   7.751   1.328
 7600TIP3   OH222742   1.949   0.923   0.151
 7600TIP3    H122743   1.963   0.922   0.246
 7600TIP3    H222744   2.037   0.920   0.114
 7601TIP3   OH222745   1.813   1.637   0.448
 7601TIP3    H122746   1.902   1.626   0.483
 7601TIP3    H222747   1.772   1.701   0.506
 7602TIP3   OH222748   7.489   6.449   1.412
 7602TIP3    H122749   7.401   6.459   1.448
 7602TIP3    H222750   7.528   6.537   1.418
 7603TIP3   OH222751   2.127   7.326   5.895
 7603TIP3    H122752   2.133   7.354   5.804
 7603TIP3    H222753   2.188   7.253   5.902
 7604TIP3   OH222754   5.135   1.887   5.845
 7604TIP3    H122755   5.183   1.828   5.786
 7604TIP3    H222756   5.188   1.889   5.925
 7605TIP3   OH222757   7.188   7.601   6.368
 7605TIP3    H122758   7.133   7.578   6.292
 7605TIP3    H222759   7.236   7.679   6.339
 7606TIP3   OH222760   1.954   3.832   0.417
 7606TIP3    H122761   1.937   3.893   0.345
 7606TIP3    H222762   1.886   3.766   0.408
 7607TIP3   OH222763   6.034   0.688   0.463
 7607TIP3    H122764   6.100   0.676   0.531
 7607TIP3    H222765   6.031   0.604   0.417
 7608TIP3   OH222766   6.731   1.102   0.539
 7608TIP3    H122767   6.815   1.076   0.575
 7608TIP3    H222768   6.721   1.049   0.460
 7609TIP3   OH222769   1.568   3.578   2.219
 7609TIP3    H122770   1.559   3.627   2.137
 7609TIP3    H222771   1.654   3.536   2.213
 7610TIP3   OH222772   2.770   6.947   5.058
 7610TIP3    H122773   2.775   6.873   5.119
 7610TIP3    H222774   2.721   6.913   4.983
 7611TIP3   OH222775   0.976   7.682   4.275
 7611TIP3    H122776   0.886   7.661   4.251
 7611TIP3    H222777   1.011   7.727   4.198
 7612TIP3   OH222778   4.523   4.264   1.496
 7612TIP3    H122779   4.479   4.208   1.432
 7612TIP3    H222780   4.523   4.351   1.457
 7613TIP3   OH222781   6.677   4.486   2.661
 7613TIP3    H122782   6.750   4.451   2.711
 7613TIP3    H222783   6.606   4.493   2.725
 7614TIP3   OH222784   2.847   2.451   0.180
 7614TIP3    H122785   2.870   2.375   0.234
 7614TIP3    H222786   2.898   2.439   0.100
 7615TIP3   OH222787   4.906   6.517   1.595
 7615TIP3    H122788   4.893   6.501   1.502
 7615TIP3    H222789   4.817   6.521   1.631
 7616TIP3   OH222790   1.311   6.936   5.251
 7616TIP3    H122791   1.301   6.870   5.182
 7616TIP3    H222792   1.242   6.916   5.314
 7617TIP3   OH222793   8.216   0.250   2.303
 7617TIP3    H122794   8.186   0.272   2.214
 7617TIP3    H222795   8.205   0.332   2.352
 7618TIP3   OH222796   5.291   7.434   4.851
 7618TIP3    H122797   5.268   7.408   4.762
 7618TIP3    H222798   5.367   7.492   4.840
 7619TIP3   OH222799   6.439   7.782   3.225
 7619TIP3    H122800   6.401   7.743   3.146
 7619TIP3    H222801   6.449   7.710   3.286
 7620TIP3   OH222802   3.443   5.185   0.831
 7620TIP3    H122803   3.531   5.168   0.798
 7620TIP3    H222804   3.386   5.132   0.775
 7621TIP3   OH222805   2.717   5.981   6.388
 7621TIP3    H122806   2.767   5.899   6.383
 7621TIP3    H222807   2.767   6.034   6.451
 7622TIP3   OH222808   2.709   1.221   0.985
 7622TIP3    H122809   2.650   1.218   1.060
 7622TIP3    H222810   2.661   1.269   0.918
 7623TIP3   OH222811   0.093   3.791   5.891
 7623TIP3    H122812   0.119   3.776   5.801
 7623TIP3    H222813   0.022   3.856   5.885
 7624TIP3   OH222814   2.490   1.469   3.770
 7624TIP3    H122815   2.507   1.534   3.702
 7624TIP3    H222816   2.467   1.389   3.723
 7625TIP3   OH222817   5.229   0.898   0.780
 7625TIP3    H122818   5.227   0.929   0.690
 7625TIP3    H222819   5.170   0.823   0.782
 7626TIP3   OH222820   3.772   5.052   3.722
 7626TIP3    H122821   3.841   5.044   3.788
 7626TIP3    H222822   3.811   5.106   3.653
 7627TIP3   OH222823   4.174   3.246   5.966
 7627TIP3    H122824   4.210   3.315   6.022
 7627TIP3    H222825   4.186   3.279   5.877
 7628TIP3   OH222826   5.258   6.695   0.878
 7628TIP3    H122827   5.171   6.656   0.886
 7628TIP3    H222828   5.262   6.727   0.788
 7629TIP3   OH222829   4.152   6.370   0.760
 7629TIP3    H122830   4.225   6.308   0.760
 7629TIP3    H222831   4.136   6.388   0.852
 7630TIP3   OH222832   7.396   3.802   0.540
 7630TIP3    H122833   7.334   3.832   0.474
 7630TIP3    H222834   7.343   3.780   0.616
 7631TIP3   OH222835   4.283   4.046   4.946
 7631TIP3    H122836   4.223   4.026   4.874
 7631TIP3    H222837   4.360   3.993   4.928
 7632TIP3   OH222838   5.747   0.855   5.222
 7632TIP3    H122839   5.831   0.809   5.218
 7632TIP3    H222840   5.757   0.929   5.162
 7633TIP3   OH222841   4.008   4.093   0.232
 7633TIP3    H122842   3.997   4.149   0.308
 7633TIP3    H222843   4.003   4.152   0.157
 7634TIP3   OH222844   6.908   5.259   3.457
 7634TIP3    H122845   6.950   5.229   3.376
 7634TIP3    H222846   6.981   5.285   3.514
 7635TIP3   OH222847   5.960   0.814   6.513
 7635TIP3    H122848   5.883   0.833   6.460
 7635TIP3    H222849   5.932   0.834   6.603
 7636TIP3   OH222850   8.261   0.134   5.899
 7636TIP3    H122851   8.256   0.210   5.842
 7636TIP3    H222852   8.198   0.152   5.969
 7637TIP3   OH222853   2.202   4.574   0.080
 7637TIP3    H122854   2.274   4.579   0.143
 7637TIP3    H222855   2.135   4.631   0.116
 7638TIP3   OH222856   3.396   1.271   3.654
 7638TIP3    H122857   3.359   1.353   3.687
 7638TIP3    H222858   3.320   1.212   3.649
 7639TIP3   OH222859   2.146   4.003   0.685
 7639TIP3    H122860   2.209   4.045   0.626
 7639TIP3    H222861   2.095   4.075   0.721
 7640TIP3   OH222862   4.789   0.814   0.211
 7640TIP3    H122863   4.794   0.815   0.307
 7640TIP3    H222864   4.870   0.858   0.183
 7641TIP3   OH222865   7.256   5.467   0.612
 7641TIP3    H122866   7.276   5.374   0.625
 7641TIP3    H222867   7.331   5.502   0.564
 7642TIP3   OH222868   4.849   4.330   5.088
 7642TIP3    H122869   4.943   4.322   5.105
 7642TIP3    H222870   4.842   4.398   5.021
 7643TIP3   OH222871   2.026   6.537   5.919
 7643TIP3    H122872   1.956   6.600   5.900
 7643TIP3    H222873   2.097   6.591   5.952
 7644TIP3   OH222874   3.428   2.760   3.178
 7644TIP3    H122875   3.447   2.763   3.084
 7644TIP3    H222876   3.494   2.701   3.214
 7645TIP3   OH222877   0.765   2.232   5.885
 7645TIP3    H122878   0.852   2.255   5.851
 7645TIP3    H222879   0.709   2.305   5.861
 7646TIP3   OH222880   2.170   7.788   4.459
 7646TIP3    H122881   2.140   7.806   4.548
 7646TIP3    H222882   2.233   7.717   4.469
 7647TIP3   OH222883   0.280   2.744   1.618
 7647TIP3    H122884   0.361   2.794   1.616
 7647TIP3    H222885   0.248   2.745   1.528
 7648TIP3   OH222886   5.240   3.048   0.702
 7648TIP3    H122887   5.316   3.095   0.667
 7648TIP3    H222888   5.177   3.117   0.724
 7649TIP3   OH222889   7.180   5.243   3.575
 7649TIP3    H122890   7.185   5.152   3.604
 7649TIP3    H222891   7.127   5.287   3.641
 7650TIP3   OH222892   2.348   0.493   0.012
 7650TIP3    H122893   2.315   0.547   0.084
 7650TIP3    H222894   2.345   0.404   0.046
 7651TIP3   OH222895   0.694   7.020   4.391
 7651TIP3    H122896   0.786   7.044   4.400
 7651TIP3    H222897   0.661   7.018   4.481
 7652TIP3   OH222898   4.922   2.501   3.634
 7652TIP3    H122899   4.969   2.537   3.558
 7652TIP3    H222900   4.987   2.448   3.679
 7653TIP3   OH222901   0.274   4.343   3.899
 7653TIP3    H122902   0.283   4.389   3.982
 7653TIP3    H222903   0.337   4.271   3.905
 7654TIP3   OH222904   4.916   2.013   0.686
 7654TIP3    H122905   4.825   2.031   0.712
 7654TIP3    H222906   4.946   2.095   0.645
 7655TIP3   OH222907   2.583   1.532   1.901
 7655TIP3    H122908   2.620   1.505   1.817
 7655TIP3    H222909   2.493   1.499   1.900
 7656TIP3   OH222910   6.962   0.705   6.277
 7656TIP3    H122911   7.006   0.719   6.361
 7656TIP3    H222912   6.873   0.679   6.302
 7657TIP3   OH222913   2.092   4.612   1.976
 7657TIP3    H122914   2.167   4.601   2.034
 7657TIP3    H222915   2.023   4.648   2.032
 7658TIP3   OH222916   3.365   4.112   4.170
 7658TIP3    H122917   3.442   4.056   4.159
 7658TIP3    H222918   3.291   4.054   4.150
 7659TIP3   OH222919   7.568   3.082   3.680
 7659TIP3    H122920   7.491   3.063   3.627
 7659TIP3    H222921   7.614   3.152   3.632
 7660TIP3   OH222922   5.694   0.439   1.954
 7660TIP3    H122923   5.683   0.532   1.936
 7660TIP3    H222924   5.764   0.410   1.894
 7661TIP3   OH222925   5.589   0.301   2.702
 7661TIP3    H122926   5.566   0.238   2.634
 7661TIP3    H222927   5.605   0.247   2.780
 7662TIP3   OH222928   1.492   1.758   3.404
 7662TIP3    H122929   1.539   1.738   3.485
 7662TIP3    H222930   1.419   1.696   3.403
 7663TIP3   OH222931   4.496   6.608   4.447
 7663TIP3    H122932   4.491   6.699   4.417
 7663TIP3    H222933   4.546   6.613   4.529
 7664TIP3   OH222934   7.880   4.868   1.972
 7664TIP3    H122935   7.838   4.952   1.990
 7664TIP3    H222936   7.956   4.890   1.919
 7665TIP3   OH222937   0.496   4.314   5.744
 7665TIP3    H122938   0.538   4.290   5.826
 7665TIP3    H222939   0.543   4.392   5.714
 7666TIP3   OH222940   7.990   4.049   1.077
 7666TIP3    H122941   8.079   4.076   1.053
 7666TIP3    H222942   8.001   3.999   1.158
 7667TIP3   OH222943   4.270   2.854   4.753
 7667TIP3    H122944   4.241   2.790   4.689
 7667TIP3    H222945   4.293   2.802   4.830
 7668TIP3   OH222946   7.749   1.592   4.648
 7668TIP3    H122947   7.766   1.568   4.557
 7668TIP3    H222948   7.689   1.525   4.680
 7669TIP3   OH222949   6.990   3.770   1.291
 7669TIP3    H122950   6.922   3.704   1.304
 7669TIP3    H222951   7.072   3.721   1.285
 7670TIP3   OH222952   1.475   6.868   0.228
 7670TIP3    H122953   1.417   6.858   0.303
 7670TIP3    H222954   1.532   6.941   0.251
 7671TIP3   OH222955   5.079   6.820   0.336
 7671TIP3    H122956   5.072   6.767   0.257
 7671TIP3    H222957   5.008   6.884   0.328
 7672TIP3   OH222958   5.471   6.527   2.289
 7672TIP3    H122959   5.558   6.488   2.287
 7672TIP3    H222960   5.412   6.456   2.264
 7673TIP3   OH222961   0.317   7.473   1.409
 7673TIP3    H122962   0.289   7.394   1.455
 7673TIP3    H222963   0.393   7.505   1.458
 7674TIP3   OH222964   4.432   7.048   0.451
 7674TIP3    H122965   4.443   7.082   0.363
 7674TIP3    H222966   4.351   6.997   0.447
 7675TIP3   OH222967   3.531   1.869   5.213
 7675TIP3    H122968   3.481   1.792   5.240
 7675TIP3    H222969   3.574   1.843   5.132
 7676TIP3   OH222970   5.265   5.861   3.178
 7676TIP3    H122971   5.303   5.940   3.215
 7676TIP3    H222972   5.303   5.856   3.090
 7677TIP3   OH222973   4.343   6.002   0.512
 7677TIP3    H122974   4.386   6.050   0.441
 7677TIP3    H222975   4.407   5.935   0.537
 7678TIP3   OH222976   0.306   2.386   3.065
 7678TIP3    H122977   0.314   2.453   2.996
 7678TIP3    H222978   0.331   2.305   3.022
 7679TIP3   OH222979   4.901   0.852   6.146
 7679TIP3    H122980   4.845   0.908   6.200
 7679TIP3    H222981   4.949   0.913   6.090
 7680TIP3   OH222982   7.849   2.277   2.913
 7680TIP3    H122983   7.769   2.283   2.965
 7680TIP3    H222984   7.870   2.184   2.909
 7681TIP3   OH222985   6.434   0.321   2.403
 7681TIP3    H122986   6.519   0.363   2.394
 7681TIP3    H222987   6.453   0.227   2.401
 7682TIP3   OH222988   1.925   7.017   6.607
 7682TIP3    H122989   1.879   6.958   6.547
 7682TIP3    H222990   1.932   7.099   6.558
 7683TIP3   OH222991   7.026   5.160   2.998
 7683TIP3    H122992   6.977   5.192   2.922
 7683TIP3    H222993   6.997   5.069   3.009
 7684TIP3   OH222994   7.140   3.106   2.511
 7684TIP3    H122995   7.212   3.169   2.501
 7684TIP3    H222996   7.078   3.130   2.443
 7685TIP3   OH222997   6.130   4.124   5.365
 7685TIP3    H122998   6.159   4.175   5.289
 7685TIP3    H222999   6.211   4.101   5.410
 7686TIP3   OH223000   2.037   4.333   1.510
 7686TIP3    H123001   2.057   4.398   1.442
 7686TIP3    H223002   2.039   4.382   1.592
 7687TIP3   OH223003   7.631   1.818   1.522
 7687TIP3    H123004   7.700   1.864   1.571
 7687TIP3    H223005   7.665   1.729   1.511
 7688TIP3   OH223006   1.663   4.006   5.748
 7688TIP3    H123007   1.695   3.929   5.701
 7688TIP3    H223008   1.585   3.976   5.793
 7689TIP3   OH223009   1.849   1.410   6.023
 7689TIP3    H123010   1.898   1.480   5.980
 7689TIP3    H223011   1.825   1.448   6.108
 7690TIP3   OH223012   2.214   2.120   5.469
 7690TIP3    H123013   2.161   2.199   5.481
 7690TIP3    H223014   2.297   2.140   5.512
 7691TIP3   OH223015   7.729   2.768   5.187
 7691TIP3    H123016   7.737   2.764   5.282
 7691TIP3    H223017   7.788   2.838   5.161
 7692TIP3   OH223018   3.219   6.115   3.041
 7692TIP3    H123019   3.197   6.207   3.056
 7692TIP3    H223020   3.314   6.115   3.028
 7693TIP3   OH223021   0.415   3.860   1.129
 7693TIP3    H123022   0.491   3.842   1.185
 7693TIP3    H223023   0.412   3.786   1.069
 7694TIP3   OH223024   3.460   4.576   2.381
 7694TIP3    H123025   3.449   4.500   2.323
 7694TIP3    H223026   3.520   4.634   2.334
 7695TIP3   OH223027   3.467   0.103   2.951
 7695TIP3    H123028   3.509   0.037   3.006
 7695TIP3    H223029   3.450   0.177   3.009
 7696TIP3   OH223030   6.454   1.057   2.639
 7696TIP3    H123031   6.360   1.038   2.640
 7696TIP3    H223032   6.496   0.971   2.633
 7697TIP3   OH223033   0.131   5.611   1.576
 7697TIP3    H123034   0.085   5.683   1.619
 7697TIP3    H223035   0.223   5.639   1.573
 7698TIP3   OH223036   2.615   4.137   4.559
 7698TIP3    H123037   2.643   4.050   4.589
 7698TIP3    H223038   2.526   4.123   4.527
 7699TIP3   OH223039   2.946   3.993   2.908
 7699TIP3    H123040   2.897   3.969   2.987
 7699TIP3    H223041   2.980   3.910   2.875
 7700TIP3   OH223042   7.419   5.486   1.411
 7700TIP3    H123043   7.510   5.511   1.395
 7700TIP3    H223044   7.371   5.569   1.413
 7701TIP3   OH223045   1.589   7.284   5.885
 7701TIP3    H123046   1.662   7.223   5.898
 7701TIP3    H223047   1.586   7.297   5.790
 7702TIP3   OH223048   6.524   1.064   1.425
 7702TIP3    H123049   6.484   1.113   1.497
 7702TIP3    H223050   6.569   1.130   1.372
 7703TIP3   OH223051   7.675   3.432   2.764
 7703TIP3    H123052   7.673   3.338   2.784
 7703TIP3    H223053   7.758   3.446   2.719
 7704TIP3   OH223054   2.456   4.266   2.360
 7704TIP3    H123055   2.434   4.247   2.269
 7704TIP3    H223056   2.512   4.344   2.356
 7705TIP3   OH223057   2.537   5.627   0.993
 7705TIP3    H123058   2.501   5.585   0.914
 7705TIP3    H223059   2.629   5.600   0.993
 7706TIP3   OH223060   3.894   3.267   5.996
 7706TIP3    H123061   3.981   3.254   5.960
 7706TIP3    H223062   3.842   3.298   5.922
 7707TIP3   OH223063   4.141   0.465   1.256
 7707TIP3    H123064   4.187   0.386   1.285
 7707TIP3    H223065   4.063   0.470   1.312
 7708TIP3   OH223066   3.357   0.047   1.241
 7708TIP3    H123067   3.344   0.050   1.335
 7708TIP3    H223068   3.433  -0.010   1.229
 7709TIP3   OH223069   1.980   4.724   1.071
 7709TIP3    H123070   1.954   4.732   1.163
 7709TIP3    H223071   2.026   4.806   1.052
 7710TIP3   OH223072   1.464   7.685   5.041
 7710TIP3    H123073   1.416   7.613   4.999
 7710TIP3    H223074   1.403   7.720   5.105
 7711TIP3   OH223075   6.592   0.588   0.991
 7711TIP3    H123076   6.559   0.507   0.951
 7711TIP3    H223077   6.687   0.585   0.977
 7712TIP3   OH223078   4.115   1.685   1.406
 7712TIP3    H123079   4.191   1.709   1.353
 7712TIP3    H223080   4.083   1.604   1.366
 7713TIP3   OH223081   2.502   4.904   0.701
 7713TIP3    H123082   2.582   4.913   0.753
 7713TIP3    H223083   2.512   4.820   0.656
 7714TIP3   OH223084   5.047   0.102   2.571
 7714TIP3    H123085   5.122   0.130   2.622
 7714TIP3    H223086   4.985   0.068   2.635
 7715TIP3   OH223087   1.931   2.456   2.189
 7715TIP3    H123088   1.869   2.462   2.117
 7715TIP3    H223089   1.995   2.526   2.171
 7716TIP3   OH223090   3.037   0.249   6.519
 7716TIP3    H123091   3.055   0.342   6.537
 7716TIP3    H223092   3.121   0.213   6.493
 7717TIP3   OH223093   4.977   4.377   2.008
 7717TIP3    H123094   5.023   4.357   2.090
 7717TIP3    H223095   5.048   4.387   1.944
 7718TIP3   OH223096   5.493   7.598   4.789
 7718TIP3    H123097   5.562   7.536   4.767
 7718TIP3    H223098   5.538   7.682   4.800
 7719TIP3   OH223099   2.565   0.821   3.891
 7719TIP3    H123100   2.573   0.726   3.884
 7719TIP3    H223101   2.637   0.855   3.839
 7720TIP3   OH223102   1.996   1.890   4.728
 7720TIP3    H123103   2.079   1.938   4.731
 7720TIP3    H223104   1.972   1.878   4.819
 7721TIP3   OH223105   1.382   7.325   3.011
 7721TIP3    H123106   1.324   7.393   3.045
 7721TIP3    H223107   1.447   7.312   3.081
 7722TIP3   OH223108   4.016   5.841   5.570
 7722TIP3    H123109   3.937   5.806   5.528
 7722TIP3    H223110   4.000   5.936   5.575
 7723TIP3   OH223111   4.098   3.683   6.144
 7723TIP3    H123112   4.050   3.692   6.062
 7723TIP3    H223113   4.161   3.755   6.144
 7724TIP3   OH223114   8.130   7.611   5.325
 7724TIP3    H123115   8.093   7.644   5.243
 7724TIP3    H223116   8.177   7.531   5.300
 7725TIP3   OH223117   4.965   2.887   5.169
 7725TIP3    H123118   4.942   2.800   5.201
 7725TIP3    H223119   5.018   2.871   5.091
 7726TIP3   OH223120   6.583   4.135   5.799
 7726TIP3    H123121   6.542   4.218   5.776
 7726TIP3    H223122   6.674   4.145   5.769
 7727TIP3   OH223123   7.418   6.871   0.225
 7727TIP3    H123124   7.473   6.838   0.154
 7727TIP3    H223125   7.334   6.891   0.183
 7728TIP3   OH223126   3.994   3.436   0.887
 7728TIP3    H123127   3.920   3.462   0.833
 7728TIP3    H223128   3.959   3.429   0.976
 7729TIP3   OH223129   7.245   0.837   5.881
 7729TIP3    H123130   7.257   0.744   5.862
 7729TIP3    H223131   7.150   0.848   5.887
 7730TIP3   OH223132   5.212   6.799   2.863
 7730TIP3    H123133   5.249   6.777   2.949
 7730TIP3    H223134   5.287   6.822   2.809
 7731TIP3   OH223135   6.800   3.511   3.657
 7731TIP3    H123136   6.832   3.471   3.738
 7731TIP3    H223137   6.879   3.539   3.612
 7732TIP3   OH223138   5.763   2.424   3.708
 7732TIP3    H123139   5.699   2.366   3.667
 7732TIP3    H223140   5.816   2.456   3.635
 7733TIP3   OH223141   3.328   6.406   1.961
 7733TIP3    H123142   3.244   6.375   1.928
 7733TIP3    H223143   3.385   6.328   1.956
 7734TIP3   OH223144   4.191   1.558   4.239
 7734TIP3    H123145   4.249   1.584   4.310
 7734TIP3    H223146   4.250   1.526   4.170
 7735TIP3   OH223147   1.614   2.619   5.121
 7735TIP3    H123148   1.530   2.586   5.089
 7735TIP3    H223149   1.679   2.571   5.071
 7736TIP3   OH223150   3.474   4.114   5.609
 7736TIP3    H123151   3.546   4.172   5.634
 7736TIP3    H223152   3.458   4.060   5.687
 7737TIP3   OH223153   6.528   3.158   3.136
 7737TIP3    H123154   6.532   3.131   3.044
 7737TIP3    H223155   6.463   3.100   3.175
 7738TIP3   OH223156   0.955   3.517   3.752
 7738TIP3    H123157   0.929   3.498   3.662
 7738TIP3    H223158   1.038   3.470   3.763
 7739TIP3   OH223159   8.135   0.396   3.084
 7739TIP3    H123160   8.214   0.433   3.046
 7739TIP3    H223161   8.131   0.307   3.049
 7740TIP3   OH223162   0.513   2.779   6.168
 7740TIP3    H123163   0.572   2.704   6.176
 7740TIP3    H223164   0.493   2.783   6.074
 7741TIP3   OH223165   6.318   6.246   2.772
 7741TIP3    H123166   6.329   6.200   2.855
 7741TIP3    H223167   6.265   6.323   2.794
 7742TIP3   OH223168   5.100   0.190   1.657
 7742TIP3    H123169   5.147   0.270   1.633
 7742TIP3    H223170   5.169   0.123   1.662
 7743TIP3   OH223171   3.727   1.763   0.535
 7743TIP3    H123172   3.745   1.825   0.605
 7743TIP3    H223173   3.810   1.756   0.487
 7744TIP3   OH223174   3.507   6.794   6.000
 7744TIP3    H123175   3.602   6.805   5.990
 7744TIP3    H223176   3.492   6.802   6.094
 7745TIP3   OH223177   2.120   2.204   2.510
 7745TIP3    H123178   2.159   2.126   2.549
 7745TIP3    H223179   2.034   2.211   2.551
 7746TIP3   OH223180   3.981   3.863   3.237
 7746TIP3    H123181   3.990   3.949   3.196
 7746TIP3    H223182   3.906   3.824   3.194
 7747TIP3   OH223183   6.006   1.219   6.465
 7747TIP3    H123184   5.945   1.164   6.514
 7747TIP3    H223185   6.090   1.175   6.473
 7748TIP3   OH223186   4.513   1.230   3.757
 7748TIP3    H123187   4.466   1.207   3.837
 7748TIP3    H223188   4.529   1.147   3.713
 7749TIP3   OH223189   0.336   1.686   0.945
 7749TIP3    H123190   0.379   1.768   0.970
 7749TIP3    H223191   0.288   1.660   1.023
 7750TIP3   OH223192   4.106   3.737   4.087
 7750TIP3    H123193   4.137   3.655   4.048
 7750TIP3    H223194   4.186   3.787   4.105
 7751TIP3   OH223195   1.047   2.700   0.972
 7751TIP3    H123196   1.031   2.741   0.887
 7751TIP3    H223197   1.096   2.620   0.951
 7752TIP3   OH223198   5.907   6.521   6.419
 7752TIP3    H123199   5.989   6.564   6.442
 7752TIP3    H223200   5.931   6.457   6.352
 7753TIP3   OH223201   7.722   3.495   5.069
 7753TIP3    H123202   7.802   3.451   5.039
 7753TIP3    H223203   7.728   3.583   5.033
 7754TIP3   OH223204   6.290   5.578   3.488
 7754TIP3    H123205   6.205   5.616   3.465
 7754TIP3    H223206   6.350   5.612   3.423
 7755TIP3   OH223207   5.239   0.964   4.376
 7755TIP3    H123208   5.226   1.056   4.401
 7755TIP3    H223209   5.331   0.958   4.352
 7756TIP3   OH223210   5.874   7.101   1.718
 7756TIP3    H123211   5.798   7.087   1.775
 7756TIP3    H223212   5.891   7.015   1.679
 7757TIP3   OH223213   0.281   3.622   6.030
 7757TIP3    H123214   0.274   3.565   5.954
 7757TIP3    H223215   0.226   3.697   6.009
 7758TIP3   OH223216   4.357   3.714   2.306
 7758TIP3    H123217   4.440   3.684   2.269
 7758TIP3    H223218   4.352   3.671   2.392
 7759TIP3   OH223219   2.628   3.816   5.346
 7759TIP3    H123220   2.669   3.882   5.290
 7759TIP3    H223221   2.585   3.866   5.415
 7760TIP3   OH223222   5.854   4.701   1.511
 7760TIP3    H123223   5.811   4.731   1.591
 7760TIP3    H223224   5.874   4.782   1.463
 7761TIP3   OH223225   3.673   7.113   4.495
 7761TIP3    H123226   3.757   7.130   4.537
 7761TIP3    H223227   3.659   7.187   4.436
 7762TIP3   OH223228   0.534   7.454   5.944
 7762TIP3    H123229   0.449   7.490   5.968
 7762TIP3    H223230   0.515   7.389   5.877
 7763TIP3   OH223231   7.139   5.971   2.955
 7763TIP3    H123232   7.193   6.049   2.963
 7763TIP3    H223233   7.199   5.903   2.924
 7764TIP3   OH223234   2.990   2.284   6.148
 7764TIP3    H123235   2.972   2.321   6.235
 7764TIP3    H223236   3.054   2.215   6.164
 7765TIP3   OH223237   0.736   2.186   1.647
 7765TIP3    H123238   0.757   2.169   1.739
 7765TIP3    H223239   0.815   2.161   1.599
 7766TIP3   OH223240   4.370   3.930   5.717
 7766TIP3    H123241   4.454   3.886   5.713
 7766TIP3    H223242   4.391   4.021   5.739
 7767TIP3   OH223243   0.761   4.088   1.111
 7767TIP3    H123244   0.735   4.004   1.147
 7767TIP3    H223245   0.856   4.082   1.100
 7768TIP3   OH223246   1.989   5.005   1.379
 7768TIP3    H123247   2.017   5.024   1.469
 7768TIP3    H223248   2.067   5.020   1.326
 7769TIP3   OH223249   4.092   7.192   2.034
 7769TIP3    H123250   4.184   7.218   2.038
 7769TIP3    H223251   4.045   7.273   2.014
 7770TIP3   OH223252   0.134   6.239   1.266
 7770TIP3    H123253   0.113   6.270   1.178
 7770TIP3    H223254   0.100   6.150   1.269
 7771TIP3   OH223255   6.528   0.416   4.311
 7771TIP3    H123256   6.512   0.382   4.223
 7771TIP3    H223257   6.466   0.488   4.321
 7772TIP3   OH223258   5.122   4.545   4.352
 7772TIP3    H123259   5.105   4.572   4.262
 7772TIP3    H223260   5.191   4.479   4.344
 7773TIP3   OH223261   5.161   1.273   2.687
 7773TIP3    H123262   5.119   1.328   2.621
 7773TIP3    H223263   5.243   1.318   2.706
 7774TIP3   OH223264   7.998   0.697   6.044
 7774TIP3    H123265   8.056   0.625   6.072
 7774TIP3    H223266   7.931   0.654   5.991
 7775TIP3   OH223267   7.877   7.199   3.370
 7775TIP3    H123268   7.967   7.178   3.395
 7775TIP3    H223269   7.865   7.157   3.285
 7776TIP3   OH223270   0.237   5.912   5.425
 7776TIP3    H123271   0.275   5.997   5.403
 7776TIP3    H223272   0.213   5.920   5.517
 7777TIP3   OH223273   2.336   6.750   3.051
 7777TIP3    H123274   2.309   6.661   3.029
 7777TIP3    H223275   2.379   6.742   3.137
 7778TIP3   OH223276   3.069   7.584   5.851
 7778TIP3    H123277   3.111   7.668   5.837
 7778TIP3    H223278   2.981   7.606   5.881
 7779TIP3   OH223279   7.562   2.413   5.791
 7779TIP3    H123280   7.546   2.323   5.762
 7779TIP3    H223281   7.505   2.467   5.736
 7780TIP3   OH223282   4.033   1.626   6.442
 7780TIP3    H123283   3.966   1.693   6.458
 7780TIP3    H223284   3.983   1.549   6.416
 7781TIP3   OH223285   0.349   0.276   1.522
 7781TIP3    H123286   0.303   0.314   1.447
 7781TIP3    H223287   0.353   0.182   1.503
 7782TIP3   OH223288   6.064   4.791   5.933
 7782TIP3    H123289   6.000   4.814   6.001
 7782TIP3    H223290   6.123   4.866   5.930
 7783TIP3   OH223291   3.524   2.541   3.636
 7783TIP3    H123292   3.531   2.447   3.623
 7783TIP3    H223293   3.612   2.574   3.617
 7784TIP3   OH223294   5.155   5.185   2.258
 7784TIP3    H123295   5.177   5.112   2.200
 7784TIP3    H223296   5.145   5.260   2.200
 7785TIP3   OH223297   1.508   0.859   4.221
 7785TIP3    H123298   1.533   0.846   4.312
 7785TIP3    H223299   1.425   0.811   4.212
 7786TIP3   OH223300   0.812   1.998   3.132
 7786TIP3    H123301   0.880   2.048   3.089
 7786TIP3    H223302   0.836   1.906   3.117
 7787TIP3   OH223303   7.647   1.002   6.196
 7787TIP3    H123304   7.573   1.027   6.251
 7787TIP3    H223305   7.720   1.056   6.229
 7788TIP3   OH223306   4.896   1.180   5.532
 7788TIP3    H123307   4.862   1.181   5.622
 7788TIP3    H223308   4.837   1.120   5.486
 7789TIP3   OH223309   3.046   4.939   3.391
 7789TIP3    H123310   3.106   4.939   3.317
 7789TIP3    H223311   3.063   5.022   3.435
 7790TIP3   OH223312   5.136   4.474   5.781
 7790TIP3    H123313   5.231   4.476   5.777
 7790TIP3    H223314   5.108   4.552   5.735
 7791TIP3   OH223315   3.091   2.128   2.063
 7791TIP3    H123316   3.045   2.061   2.012
 7791TIP3    H223317   3.042   2.208   2.048
 7792TIP3   OH223318   4.258   1.742   6.562
 7792TIP3    H123319   4.202   1.704   6.494
 7792TIP3    H223320   4.197   1.786   6.621
 7793TIP3   OH223321   2.436   6.398   3.092
 7793TIP3    H123322   2.523   6.437   3.101
 7793TIP3    H223323   2.453   6.310   3.059
 7794TIP3   OH223324   2.354   2.735   2.522
 7794TIP3    H123325   2.346   2.689   2.606
 7794TIP3    H223326   2.332   2.669   2.456
 7795TIP3   OH223327   6.477   6.826   6.046
 7795TIP3    H123328   6.526   6.901   6.079
 7795TIP3    H223329   6.537   6.783   5.985
 7796TIP3   OH223330   1.056   2.981   4.118
 7796TIP3    H123331   1.136   2.941   4.152
 7796TIP3    H223332   1.041   3.057   4.174
 7797TIP3   OH223333   0.707   7.545   6.654
 7797TIP3    H123334   0.699   7.623   6.599
 7797TIP3    H223335   0.716   7.580   6.743
 7798TIP3   OH223336   4.729   4.095   6.087
 7798TIP3    H123337   4.790   4.160   6.052
 7798TIP3    H223338   4.671   4.145   6.144
 7799TIP3   OH223339   5.165   3.454   2.510
 7799TIP3    H123340   5.099   3.466   2.442
 7799TIP3    H223341   5.161   3.534   2.562
 7800TIP3   OH223342   3.421   4.819   6.526
 7800TIP3    H123343   3.413   4.811   6.621
 7800TIP3    H223344   3.515   4.825   6.510
 7801TIP3   OH223345   4.106   0.221   3.184
 7801TIP3    H123346   4.152   0.202   3.102
 7801TIP3    H223347   4.172   0.206   3.252
 7802TIP3   OH223348   0.809   2.034   1.258
 7802TIP3    H123349   0.774   1.968   1.316
 7802TIP3    H223350   0.758   2.113   1.276
 7803TIP3   OH223351   4.836   5.446   5.177
 7803TIP3    H123352   4.801   5.379   5.119
 7803TIP3    H223353   4.760   5.475   5.228
 7804TIP3   OH223354   5.659   4.492   4.468
 7804TIP3    H123355   5.688   4.567   4.416
 7804TIP3    H223356   5.639   4.425   4.403
 7805TIP3   OH223357   5.472   1.498   5.398
 7805TIP3    H123358   5.542   1.477   5.460
 7805TIP3    H223359   5.454   1.415   5.354
 7806TIP3   OH223360   4.732   3.009   3.650
 7806TIP3    H123361   4.671   3.018   3.724
 7806TIP3    H223362   4.685   3.048   3.576
 7807TIP3   OH223363   0.480   2.538   2.211
 7807TIP3    H123364   0.393   2.556   2.175
 7807TIP3    H223365   0.468   2.458   2.263
 7808TIP3   OH223366   7.422   5.119   5.191
 7808TIP3    H123367   7.477   5.041   5.187
 7808TIP3    H223368   7.358   5.099   5.260
 7809TIP3   OH223369   7.086   3.866   1.945
 7809TIP3    H123370   7.024   3.933   1.975
 7809TIP3    H223371   7.077   3.795   2.010
 7810TIP3   OH223372   2.222   6.906   0.416
 7810TIP3    H123373   2.218   6.824   0.466
 7810TIP3    H223374   2.307   6.943   0.440
 7811TIP3   OH223375   6.748   1.267   2.265
 7811TIP3    H123376   6.692   1.251   2.341
 7811TIP3    H223377   6.694   1.242   2.190
 7812TIP3   OH223378   8.132   4.944   2.243
 7812TIP3    H123379   8.186   5.008   2.197
 7812TIP3    H223380   8.042   4.975   2.229
 7813TIP3   OH223381   5.895   3.853   4.790
 7813TIP3    H123382   5.923   3.801   4.715
 7813TIP3    H223383   5.829   3.912   4.755
 7814TIP3   OH223384   7.275   7.014   5.876
 7814TIP3    H123385   7.230   7.051   5.800
 7814TIP3    H223386   7.205   6.995   5.938
 7815TIP3   OH223387   7.053   5.730   1.042
 7815TIP3    H123388   6.963   5.727   1.010
 7815TIP3    H223389   7.048   5.778   1.125
 7816TIP3   OH223390   0.478   0.004   3.328
 7816TIP3    H123391   0.530  -0.021   3.404
 7816TIP3    H223392   0.485   0.100   3.325
 7817TIP3   OH223393   2.477   6.016   3.820
 7817TIP3    H123394   2.443   6.076   3.754
 7817TIP3    H223395   2.499   6.072   3.894
 7818TIP3   OH223396   5.951   0.160   3.781
 7818TIP3    H123397   5.891   0.228   3.750
 7818TIP3    H223398   5.903   0.115   3.849
 7819TIP3   OH223399   4.012   0.073   4.884
 7819TIP3    H123400   4.088   0.125   4.910
 7819TIP3    H223401   3.946   0.090   4.952
 7820TIP3   OH223402   1.973   3.794   3.637
 7820TIP3    H123403   1.960   3.700   3.650
 7820TIP3    H223404   2.036   3.820   3.704
 7821TIP3   OH223405   2.947   5.588   5.965
 7821TIP3    H123406   2.979   5.678   5.977
 7821TIP3    H223407   2.854   5.599   5.944
 7822TIP3   OH223408   1.981   4.239   6.707
 7822TIP3    H123409   2.049   4.288   6.660
 7822TIP3    H223410   2.031   4.181   6.766
 7823TIP3   OH223411   5.652   7.172   4.050
 7823TIP3    H123412   5.634   7.078   4.053
 7823TIP3    H223413   5.705   7.188   4.129
 7824TIP3   OH223414   5.766   4.803   5.373
 7824TIP3    H123415   5.742   4.869   5.309
 7824TIP3    H223416   5.693   4.801   5.435
 7825TIP3   OH223417   2.129   5.233   4.636
 7825TIP3    H123418   2.148   5.322   4.608
 7825TIP3    H223419   2.214   5.197   4.663
 7826TIP3   OH223420   1.268   6.993   3.855
 7826TIP3    H123421   1.310   7.063   3.805
 7826TIP3    H223422   1.288   7.013   3.947
 7827TIP3   OH223423   1.526   3.054   2.311
 7827TIP3    H123424   1.514   2.967   2.272
 7827TIP3    H223425   1.464   3.055   2.384
 7828TIP3   OH223426   8.171   5.343   2.888
 7828TIP3    H123427   8.205   5.283   2.954
 7828TIP3    H223428   8.080   5.316   2.876
 7829TIP3   OH223429   3.647   3.423   3.744
 7829TIP3    H123430   3.558   3.459   3.742
 7829TIP3    H223431   3.665   3.399   3.653
 7830TIP3   OH223432   5.807   0.264   4.721
 7830TIP3    H123433   5.830   0.321   4.794
 7830TIP3    H223434   5.785   0.180   4.763
 7831TIP3   OH223435   3.009   3.464   1.365
 7831TIP3    H123436   2.995   3.375   1.334
 7831TIP3    H223437   2.937   3.514   1.328
 7832TIP3   OH223438   2.327   4.898   2.529
 7832TIP3    H123439   2.369   4.973   2.571
 7832TIP3    H223440   2.399   4.846   2.494
 7833TIP3   OH223441   7.863   5.675   3.979
 7833TIP3    H123442   7.931   5.631   3.929
 7833TIP3    H223443   7.861   5.764   3.944
 7834TIP3   OH223444   5.083   2.042   6.360
 7834TIP3    H123445   5.032   2.116   6.326
 7834TIP3    H223446   5.090   2.059   6.454
 7835TIP3   OH223447   6.302   3.055   5.650
 7835TIP3    H123448   6.304   2.998   5.727
 7835TIP3    H223449   6.227   3.113   5.665
 7836TIP3   OH223450   6.514   4.368   3.381
 7836TIP3    H123451   6.521   4.301   3.313
 7836TIP3    H223452   6.422   4.365   3.408
 7837TIP3   OH223453   3.962   5.244   0.084
 7837TIP3    H123454   4.007   5.312   0.135
 7837TIP3    H223455   3.874   5.240   0.123
 7838TIP3   OH223456   2.678   5.745   6.138
 7838TIP3    H123457   2.609   5.694   6.095
 7838TIP3    H223458   2.724   5.788   6.066
 7839TIP3   OH223459   8.204   5.934   3.260
 7839TIP3    H123460   8.226   5.843   3.280
 7839TIP3    H223461   8.181   5.972   3.345
 7840TIP3   OH223462   3.160   7.729   3.206
 7840TIP3    H123463   3.195   7.816   3.188
 7840TIP3    H223464   3.231   7.669   3.183
 7841TIP3   OH223465   2.872   3.334   2.699
 7841TIP3    H123466   2.896   3.241   2.707
 7841TIP3    H223467   2.954   3.379   2.683
 7842TIP3   OH223468   2.640   3.620   4.774
 7842TIP3    H123469   2.662   3.696   4.829
 7842TIP3    H223470   2.676   3.545   4.823
 7843TIP3   OH223471   2.044   2.188   5.730
 7843TIP3    H123472   2.109   2.256   5.717
 7843TIP3    H223473   2.078   2.112   5.683
 7844TIP3   OH223474   4.333   0.280   4.664
 7844TIP3    H123475   4.406   0.221   4.684
 7844TIP3    H223476   4.355   0.361   4.710
 7845TIP3   OH223477   3.861   7.662   1.181
 7845TIP3    H123478   3.900   7.738   1.223
 7845TIP3    H223479   3.921   7.642   1.109
 7846TIP3   OH223480   7.089   1.152   1.277
 7846TIP3    H123481   7.004   1.112   1.296
 7846TIP3    H223482   7.075   1.246   1.292
 7847TIP3   OH223483   4.981   6.206   1.221
 7847TIP3    H123484   5.072   6.190   1.246
 7847TIP3    H223485   4.948   6.120   1.195
 7848TIP3   OH223486   4.261   1.143   1.723
 7848TIP3    H123487   4.190   1.116   1.782
 7848TIP3    H223488   4.239   1.102   1.639
 7849TIP3   OH223489   7.852   0.728   2.340
 7849TIP3    H123490   7.758   0.711   2.335
 7849TIP3    H223491   7.893   0.642   2.343
 7850TIP3   OH223492   4.028   3.252   1.369
 7850TIP3    H123493   3.998   3.262   1.459
 7850TIP3    H223494   4.124   3.256   1.374
 7851TIP3   OH223495   2.468   0.982   4.453
 7851TIP3    H123496   2.492   0.895   4.484
 7851TIP3    H223497   2.480   0.978   4.358
 7852TIP3   OH223498   0.643   5.287   5.811
 7852TIP3    H123499   0.581   5.330   5.869
 7852TIP3    H223500   0.705   5.243   5.869
 7853TIP3   OH223501   0.887   7.241   4.777
 7853TIP3    H123502   0.971   7.242   4.730
 7853TIP3    H223503   0.905   7.190   4.856
 7854TIP3   OH223504   2.380   0.524   4.533
 7854TIP3    H123505   2.293   0.559   4.551
 7854TIP3    H223506   2.377   0.498   4.441
 7855TIP3   OH223507   0.587   5.268   2.891
 7855TIP3    H123508   0.625   5.273   2.804
 7855TIP3    H223509   0.602   5.354   2.929
 7856TIP3   OH223510   1.151   4.611   3.609
 7856TIP3    H123511   1.144   4.552   3.534
 7856TIP3    H223512   1.229   4.663   3.591
 7857TIP3   OH223513   6.300   3.611   2.879
 7857TIP3    H123514   6.338   3.586   2.795
 7857TIP3    H223515   6.311   3.706   2.883
 7858TIP3   OH223516   2.668   5.551   4.973
 7858TIP3    H123517   2.661   5.456   4.983
 7858TIP3    H223518   2.732   5.563   4.903
 7859TIP3   OH223519   5.577   6.271   3.384
 7859TIP3    H123520   5.626   6.317   3.452
 7859TIP3    H223521   5.645   6.239   3.324
 7860TIP3   OH223522   2.366   5.052   6.310
 7860TIP3    H123523   2.396   4.962   6.301
 7860TIP3    H223524   2.392   5.078   6.398
 7861TIP3   OH223525   3.578   4.861   3.805
 7861TIP3    H123526   3.623   4.835   3.885
 7861TIP3    H223527   3.558   4.954   3.818
 7862TIP3   OH223528   7.129   2.515   1.244
 7862TIP3    H123529   7.041   2.519   1.206
 7862TIP3    H223530   7.187   2.505   1.168
 7863TIP3   OH223531   6.470   7.082   4.968
 7863TIP3    H123532   6.413   7.077   4.891
 7863TIP3    H223533   6.411   7.107   5.040
 7864TIP3   OH223534   4.702   5.489   1.281
 7864TIP3    H123535   4.796   5.475   1.295
 7864TIP3    H223536   4.660   5.445   1.355
 7865TIP3   OH223537   2.822   1.446   6.627
 7865TIP3    H123538   2.803   1.364   6.672
 7865TIP3    H223539   2.824   1.512   6.696
 7866TIP3   OH223540   1.330   3.585   5.571
 7866TIP3    H123541   1.320   3.505   5.520
 7866TIP3    H223542   1.248   3.593   5.620
 7867TIP3   OH223543   0.534   1.985   3.868
 7867TIP3    H123544   0.466   1.955   3.928
 7867TIP3    H223545   0.592   2.038   3.922
 7868TIP3   OH223546   2.492   3.145   5.269
 7868TIP3    H123547   2.587   3.139   5.265
 7868TIP3    H223548   2.468   3.095   5.346
 7869TIP3   OH223549   2.896   7.297   3.518
 7869TIP3    H123550   2.956   7.371   3.515
 7869TIP3    H223551   2.819   7.328   3.470
 7870TIP3   OH223552   2.041   5.424   3.200
 7870TIP3    H123553   2.125   5.403   3.158
 7870TIP3    H223554   2.061   5.498   3.257
 7871TIP3   OH223555   7.947   4.795   6.303
 7871TIP3    H123556   7.890   4.872   6.309
 7871TIP3    H223557   8.035   4.830   6.317
 7872TIP3   OH223558   1.464   2.314   3.946
 7872TIP3    H123559   1.433   2.245   4.006
 7872TIP3    H223560   1.454   2.277   3.859
 7873TIP3   OH223561   6.172   1.193   6.808
 7873TIP3    H123562   6.265   1.213   6.820
 7873TIP3    H223563   6.168   1.146   6.725
 7874TIP3   OH223564   4.309   2.064   6.692
 7874TIP3    H123565   4.286   2.132   6.755
 7874TIP3    H223566   4.226   2.041   6.651
 7875TIP3   OH223567   6.040   1.951   1.207
 7875TIP3    H123568   5.959   1.999   1.226
 7875TIP3    H223569   6.080   2.000   1.135
 7876TIP3   OH223570   1.863   2.732   5.222
 7876TIP3    H123571   1.826   2.752   5.308
 7876TIP3    H223572   1.788   2.701   5.171
 7877TIP3   OH223573   4.198   6.954   3.349
 7877TIP3    H123574   4.157   6.900   3.282
 7877TIP3    H223575   4.157   6.926   3.431
 7878TIP3   OH223576   6.473   4.387   5.818
 7878TIP3    H123577   6.385   4.371   5.784
 7878TIP3    H223578   6.466   4.368   5.912
 7879TIP3   OH223579   5.925   2.292   4.125
 7879TIP3    H123580   5.899   2.380   4.154
 7879TIP3    H223581   5.979   2.308   4.047
 7880TIP3   OH223582   3.708   5.584   1.700
 7880TIP3    H123583   3.766   5.543   1.636
 7880TIP3    H223584   3.766   5.637   1.755
 7881TIP3   OH223585   6.528   4.023   6.154
 7881TIP3    H123586   6.459   3.987   6.210
 7881TIP3    H223587   6.603   3.966   6.169
 7882TIP3   OH223588   4.190   6.784   6.039
 7882TIP3    H123589   4.262   6.839   6.067
 7882TIP3    H223590   4.222   6.741   5.960
 7883TIP3   OH223591   0.379   5.000   5.362
 7883TIP3    H123592   0.367   5.086   5.403
 7883TIP3    H223593   0.293   4.980   5.323
 7884TIP3   OH223594   5.646   6.658   5.892
 7884TIP3    H123595   5.666   6.751   5.902
 7884TIP3    H223596   5.730   6.614   5.904
 7885TIP3   OH223597   3.849   1.395   1.917
 7885TIP3    H123598   3.818   1.446   1.992
 7885TIP3    H223599   3.836   1.304   1.943
 7886TIP3   OH223600   6.355   0.255   5.635
 7886TIP3    H123601   6.450   0.267   5.632
 7886TIP3    H223602   6.337   0.193   5.564
 7887TIP3   OH223603   5.900   4.499   1.813
 7887TIP3    H123604   5.975   4.557   1.811
 7887TIP3    H223605   5.927   4.425   1.866
 7888TIP3   OH223606   0.174   5.828   2.892
 7888TIP3    H123607   0.103   5.871   2.939
 7888TIP3    H223608   0.151   5.735   2.894
 7889TIP3   OH223609   6.794   1.417   4.350
 7889TIP3    H123610   6.748   1.500   4.343
 7889TIP3    H223611   6.884   1.437   4.324
 7890TIP3   OH223612   7.894   2.172   4.154
 7890TIP3    H123613   7.819   2.223   4.124
 7890TIP3    H223614   7.908   2.107   4.085
 7891TIP3   OH223615   8.074   2.073   0.287
 7891TIP3    H123616   8.164   2.071   0.319
 7891TIP3    H223617   8.062   1.988   0.245
 7892TIP3   OH223618   3.303   1.889   1.595
 7892TIP3    H123619   3.210   1.869   1.606
 7892TIP3    H223620   3.333   1.912   1.683
 7893TIP3   OH223621   3.698   6.468   4.597
 7893TIP3    H123622   3.680   6.411   4.522
 7893TIP3    H223623   3.619   6.521   4.607
 7894TIP3   OH223624   3.256   0.206   0.139
 7894TIP3    H123625   3.308   0.283   0.116
 7894TIP3    H223626   3.274   0.143   0.070
 7895TIP3   OH223627   2.166   5.642   2.405
 7895TIP3    H123628   2.183   5.719   2.351
 7895TIP3    H223629   2.238   5.641   2.468
 7896TIP3   OH223630   0.143   1.975   0.636
 7896TIP3    H123631   0.178   1.935   0.557
 7896TIP3    H223632   0.205   1.950   0.705
 7897TIP3   OH223633   2.663   4.868   6.441
 7897TIP3    H123634   2.726   4.932   6.474
 7897TIP3    H223635   2.699   4.783   6.467
 7898TIP3   OH223636   0.102   3.363   3.323
 7898TIP3    H123637   0.167   3.293   3.319
 7898TIP3    H223638   0.103   3.391   3.414
 7899TIP3   OH223639   7.810   0.399   4.438
 7899TIP3    H123640   7.805   0.478   4.383
 7899TIP3    H223641   7.861   0.337   4.385
 7900TIP3   OH223642   4.870   4.106   4.486
 7900TIP3    H123643   4.819   4.033   4.521
 7900TIP3    H223644   4.920   4.139   4.560
 7901TIP3   OH223645   1.341   0.843   5.357
 7901TIP3    H123646   1.362   0.931   5.324
 7901TIP3    H223647   1.427   0.800   5.365
 7902TIP3   OH223648   0.417   0.921   1.175
 7902TIP3    H123649   0.327   0.889   1.179
 7902TIP3    H223650   0.468   0.845   1.148
 7903TIP3   OH223651   6.242   2.638   1.449
 7903TIP3    H123652   6.196   2.722   1.453
 7903TIP3    H223653   6.327   2.658   1.410
 7904TIP3   OH223654   4.595   4.735   1.992
 7904TIP3    H123655   4.611   4.825   2.021
 7904TIP3    H223656   4.652   4.681   2.047
 7905TIP3   OH223657   1.299   1.138   2.001
 7905TIP3    H123658   1.219   1.139   2.053
 7905TIP3    H223659   1.305   1.226   1.964
 7906TIP3   OH223660   1.980   3.044   2.582
 7906TIP3    H123661   2.017   2.990   2.512
 7906TIP3    H223662   1.965   3.129   2.542
 7907TIP3   OH223663   6.023   5.000   1.693
 7907TIP3    H123664   5.984   5.083   1.719
 7907TIP3    H223665   5.995   4.987   1.603
 7908TIP3   OH223666   3.496   0.039   5.375
 7908TIP3    H123667   3.536   0.118   5.410
 7908TIP3    H223668   3.568  -0.024   5.369
 7909TIP3   OH223669   5.360   4.926   3.246
 7909TIP3    H123670   5.410   4.914   3.327
 7909TIP3    H223671   5.423   4.963   3.184
 7910TIP3   OH223672   8.251   3.423   6.042
 7910TIP3    H123673   8.234   3.473   6.122
 7910TIP3    H223674   8.229   3.483   5.971
 7911TIP3   OH223675   3.447   2.686   0.302
 7911TIP3    H123676   3.421   2.623   0.235
 7911TIP3    H223677   3.463   2.633   0.380
 7912TIP3   OH223678   4.171   2.307   0.767
 7912TIP3    H123679   4.148   2.264   0.849
 7912TIP3    H223680   4.245   2.256   0.734
 7913TIP3   OH223681   2.774   2.306   3.156
 7913TIP3    H123682   2.822   2.378   3.116
 7913TIP3    H223683   2.841   2.241   3.179
 7914TIP3   OH223684   1.753   0.666   5.171
 7914TIP3    H123685   1.838   0.628   5.149
 7914TIP3    H223686   1.745   0.742   5.113
 7915TIP3   OH223687   5.442   0.811   0.275
 7915TIP3    H123688   5.525   0.802   0.228
 7915TIP3    H223689   5.380   0.760   0.223
 7916TIP3   OH223690   6.196   3.096   1.605
 7916TIP3    H123691   6.251   3.144   1.543
 7916TIP3    H223692   6.250   3.088   1.683
 7917TIP3   OH223693   1.051   5.934   3.557
 7917TIP3    H123694   1.097   5.876   3.496
 7917TIP3    H223695   0.982   5.879   3.594
 7918TIP3   OH223696   3.930   0.524   0.777
 7918TIP3    H123697   3.973   0.519   0.862
 7918TIP3    H223698   3.844   0.564   0.796
 7919TIP3   OH223699   6.681   7.056   0.577
 7919TIP3    H123700   6.713   7.145   0.566
 7919TIP3    H223701   6.760   7.004   0.593
 7920TIP3   OH223702   6.442   4.563   3.793
 7920TIP3    H123703   6.487   4.484   3.765
 7920TIP3    H223704   6.507   4.633   3.781
 7921TIP3   OH223705   1.677   7.460   0.502
 7921TIP3    H123706   1.714   7.378   0.469
 7921TIP3    H223707   1.752   7.508   0.538
 7922TIP3   OH223708   1.475   4.769   5.159
 7922TIP3    H123709   1.490   4.683   5.121
 7922TIP3    H223710   1.382   4.771   5.180
 7923TIP3   OH223711   0.699   0.335   1.954
 7923TIP3    H123712   0.731   0.405   2.010
 7923TIP3    H223713   0.604   0.338   1.964
 7924TIP3   OH223714   5.039   1.393   2.000
 7924TIP3    H123715   5.110   1.381   2.063
 7924TIP3    H223716   5.043   1.485   1.975
 7925TIP3   OH223717   8.121   1.829   5.576
 7925TIP3    H123718   8.076   1.867   5.651
 7925TIP3    H223719   8.064   1.758   5.547
 7926TIP3   OH223720   5.681   4.556   2.206
 7926TIP3    H123721   5.686   4.466   2.239
 7926TIP3    H223722   5.596   4.588   2.236
 7927TIP3   OH223723   3.646   6.600   3.745
 7927TIP3    H123724   3.718   6.663   3.745
 7927TIP3    H223725   3.573   6.646   3.787
 7928TIP3   OH223726   2.709   2.808   4.702
 7928TIP3    H123727   2.762   2.831   4.626
 7928TIP3    H223728   2.669   2.891   4.730
 7929TIP3   OH223729   7.092   2.081   2.197
 7929TIP3    H123730   7.169   2.028   2.177
 7929TIP3    H223731   7.077   2.069   2.291
 7930TIP3   OH223732   6.096   2.413   1.305
 7930TIP3    H123733   6.019   2.469   1.315
 7930TIP3    H223734   6.150   2.431   1.382
 7931TIP3   OH223735   3.540   6.886   5.207
 7931TIP3    H123736   3.612   6.913   5.264
 7931TIP3    H223737   3.512   6.967   5.163
 7932TIP3   OH223738   1.986   4.165   3.511
 7932TIP3    H123739   2.078   4.183   3.534
 7932TIP3    H223740   1.967   4.081   3.553
 7933TIP3   OH223741   3.045   5.655   3.841
 7933TIP3    H123742   3.076   5.617   3.759
 7933TIP3    H223743   2.968   5.604   3.864
 7934TIP3   OH223744   2.900   7.645   0.914
 7934TIP3    H123745   2.972   7.583   0.921
 7934TIP3    H223746   2.823   7.597   0.947
 7935TIP3   OH223747   7.090   6.425   3.539
 7935TIP3    H123748   7.024   6.464   3.596
 7935TIP3    H223749   7.104   6.337   3.574
 7936TIP3   OH223750   3.423   6.741   4.964
 7936TIP3    H123751   3.506   6.776   4.996
 7936TIP3    H223752   3.358   6.807   4.990
 7937TIP3   OH223753   7.061   6.978   2.490
 7937TIP3    H123754   6.987   6.945   2.542
 7937TIP3    H223755   7.020   7.035   2.425
 7938TIP3   OH223756   0.912   0.482   1.740
 7938TIP3    H123757   0.945   0.563   1.700
 7938TIP3    H223758   0.826   0.507   1.776
 7939TIP3   OH223759   2.443   4.090   5.276
 7939TIP3    H123760   2.473   4.067   5.188
 7939TIP3    H223761   2.348   4.076   5.273
 7940TIP3   OH223762   0.726   2.489   2.095
 7940TIP3    H123763   0.695   2.405   2.063
 7940TIP3    H223764   0.648   2.532   2.129
 7941TIP3   OH223765   1.372   6.257   2.393
 7941TIP3    H123766   1.321   6.207   2.458
 7941TIP3    H223767   1.362   6.349   2.421
 7942TIP3   OH223768   4.995   1.876   4.117
 7942TIP3    H123769   5.039   1.947   4.164
 7942TIP3    H223770   5.014   1.892   4.025
 7943TIP3   OH223771   3.798   5.874   1.008
 7943TIP3    H123772   3.731   5.880   0.939
 7943TIP3    H223773   3.754   5.908   1.086
 7944TIP3   OH223774   6.053   3.251   0.561
 7944TIP3    H123775   6.119   3.321   0.567
 7944TIP3    H223776   6.017   3.246   0.650
 7945TIP3   OH223777   3.488   5.470   3.437
 7945TIP3    H123778   3.516   5.429   3.355
 7945TIP3    H223779   3.415   5.526   3.412
 7946TIP3   OH223780   8.247   4.676   0.759
 7946TIP3    H123781   8.235   4.613   0.689
 7946TIP3    H223782   8.213   4.633   0.837
 7947TIP3   OH223783   6.773   5.563   5.682
 7947TIP3    H123784   6.815   5.484   5.649
 7947TIP3    H223785   6.681   5.539   5.693
 7948TIP3   OH223786   0.583   1.079   3.595
 7948TIP3    H123787   0.587   1.145   3.664
 7948TIP3    H223788   0.569   0.996   3.641
 7949TIP3   OH223789   3.456   7.694   5.286
 7949TIP3    H123790   3.378   7.644   5.313
 7949TIP3    H223791   3.523   7.627   5.271
 7950TIP3   OH223792   0.161   2.084   3.519
 7950TIP3    H123793   0.184   2.176   3.508
 7950TIP3    H223794   0.246   2.040   3.533
 7951TIP3   OH223795   0.599   4.311   3.461
 7951TIP3    H123796   0.534   4.300   3.391
 7951TIP3    H223797   0.671   4.359   3.420
 7952TIP3   OH223798   7.387   1.843   4.999
 7952TIP3    H123799   7.386   1.932   4.963
 7952TIP3    H223800   7.294   1.823   5.014
 7953TIP3   OH223801   3.248   5.891   4.232
 7953TIP3    H123802   3.312   5.871   4.300
 7953TIP3    H223803   3.283   5.850   4.153
 7954TIP3   OH223804   3.141   7.642   2.033
 7954TIP3    H123805   3.214   7.651   2.094
 7954TIP3    H223806   3.155   7.557   1.991
 7955TIP3   OH223807   7.619   3.473   3.900
 7955TIP3    H123808   7.630   3.566   3.883
 7955TIP3    H223809   7.658   3.429   3.825
 7956TIP3   OH223810   3.534   4.612   0.955
 7956TIP3    H123811   3.518   4.685   0.895
 7956TIP3    H223812   3.544   4.654   1.041
 7957TIP3   OH223813   4.155   2.217   4.386
 7957TIP3    H123814   4.077   2.203   4.331
 7957TIP3    H223815   4.120   2.249   4.469
 7958TIP3   OH223816   2.939   0.989   4.998
 7958TIP3    H123817   2.960   0.983   5.091
 7958TIP3    H223818   2.934   0.898   4.969
 7959TIP3   OH223819   6.504   1.433   3.703
 7959TIP3    H123820   6.414   1.427   3.737
 7959TIP3    H223821   6.560   1.411   3.777
 7960TIP3   OH223822   6.531   7.421   0.817
 7960TIP3    H123823   6.602   7.476   0.850
 7960TIP3    H223824   6.455   7.447   0.870
 7961TIP3   OH223825   6.351   2.959   3.207
 7961TIP3    H123826   6.332   2.946   3.114
 7961TIP3    H223827   6.410   2.888   3.230
 7962TIP3   OH223828   7.954   7.382   3.854
 7962TIP3    H123829   7.892   7.389   3.781
 7962TIP3    H223830   7.926   7.303   3.901
 7963TIP3   OH223831   5.082   7.407   5.039
 7963TIP3    H123832   5.155   7.425   4.979
 7963TIP3    H223833   5.118   7.421   5.126
 7964TIP3   OH223834   7.484   5.748   5.223
 7964TIP3    H123835   7.497   5.762   5.130
 7964TIP3    H223836   7.414   5.810   5.247
 7965TIP3   OH223837   4.734   7.377   2.473
 7965TIP3    H123838   4.710   7.285   2.482
 7965TIP3    H223839   4.773   7.400   2.557
 7966TIP3   OH223840   0.895   4.761   3.114
 7966TIP3    H123841   0.838   4.718   3.050
 7966TIP3    H223842   0.983   4.740   3.085
 7967TIP3   OH223843   2.410   1.248   0.674
 7967TIP3    H123844   2.351   1.316   0.641
 7967TIP3    H223845   2.490   1.258   0.622
 7968TIP3   OH223846   1.575   2.208   3.426
 7968TIP3    H123847   1.653   2.190   3.374
 7968TIP3    H223848   1.509   2.147   3.393
 7969TIP3   OH223849   7.655   0.085   4.303
 7969TIP3    H123850   7.658   0.061   4.395
 7969TIP3    H223851   7.708   0.019   4.259
 7970TIP3   OH223852   6.283   3.872   0.637
 7970TIP3    H123853   6.377   3.888   0.638
 7970TIP3    H223854   6.260   3.865   0.544
 7971TIP3   OH223855   1.028   2.703   4.736
 7971TIP3    H123856   0.981   2.780   4.769
 7971TIP3    H223857   1.070   2.734   4.655
 7972TIP3   OH223858   7.428   2.171   5.704
 7972TIP3    H123859   7.374   2.187   5.626
 7972TIP3    H223860   7.452   2.079   5.698
 7973TIP3   OH223861   4.118   0.566   0.993
 7973TIP3    H123862   4.125   0.521   1.077
 7973TIP3    H223863   4.072   0.647   1.013
 7974TIP3   OH223864   1.761   1.998   4.054
 7974TIP3    H123865   1.674   1.967   4.080
 7974TIP3    H223866   1.757   2.003   3.958
 7975TIP3   OH223867   5.771   3.364   5.580
 7975TIP3    H123868   5.803   3.430   5.642
 7975TIP3    H223869   5.684   3.395   5.555
 7976TIP3   OH223870   1.338   1.316   0.987
 7976TIP3    H123871   1.410   1.372   1.016
 7976TIP3    H223872   1.381   1.238   0.952
 7977TIP3   OH223873   6.909   5.795   5.322
 7977TIP3    H123874   6.924   5.800   5.228
 7977TIP3    H223875   6.942   5.709   5.348
 7978TIP3   OH223876   4.546   5.811   0.825
 7978TIP3    H123877   4.534   5.751   0.752
 7978TIP3    H223878   4.596   5.761   0.890
 7979TIP3   OH223879   5.013   5.999   0.068
 7979TIP3    H123880   4.920   6.019   0.078
 7979TIP3    H223881   5.015   5.909   0.036
 7980TIP3   OH223882   5.797   3.038   1.187
 7980TIP3    H123883   5.836   2.954   1.162
 7980TIP3    H223884   5.793   3.035   1.282
 7981TIP3   OH223885   7.859   6.650   0.556
 7981TIP3    H123886   7.878   6.606   0.639
 7981TIP3    H223887   7.770   6.683   0.566
 7982TIP3   OH223888   4.799   7.798   2.632
 7982TIP3    H123889   4.839   7.800   2.545
 7982TIP3    H223890   4.720   7.745   2.620
 7983TIP3   OH223891   6.872   6.940   2.917
 7983TIP3    H123892   6.964   6.957   2.937
 7983TIP3    H223893   6.862   6.967   2.826
 7984TIP3   OH223894   2.618   3.932   2.093
 7984TIP3    H123895   2.638   4.002   2.154
 7984TIP3    H223896   2.703   3.895   2.070
 7985TIP3   OH223897   6.734   6.896   0.984
 7985TIP3    H123898   6.717   6.990   0.976
 7985TIP3    H223899   6.660   6.863   1.035
 7986TIP3   OH223900   1.731   5.516   2.255
 7986TIP3    H123901   1.822   5.488   2.242
 7986TIP3    H223902   1.691   5.445   2.306
 7987TIP3   OH223903   7.118   4.349   3.629
 7987TIP3    H123904   7.135   4.406   3.705
 7987TIP3    H223905   7.205   4.324   3.599
 7988TIP3   OH223906   5.901   4.090   2.899
 7988TIP3    H123907   5.950   4.129   2.828
 7988TIP3    H223908   5.875   4.004   2.866
 7989TIP3   OH223909   3.210   6.959   5.041
 7989TIP3    H123910   3.174   7.007   5.115
 7989TIP3    H223911   3.134   6.940   4.985
 7990TIP3   OH223912   7.685   2.590   3.319
 7990TIP3    H123913   7.748   2.661   3.333
 7990TIP3    H223914   7.600   2.630   3.338
 7991TIP3   OH223915   8.013   2.870   2.018
 7991TIP3    H123916   8.094   2.824   2.000
 7991TIP3    H223917   7.951   2.801   2.041
 7992TIP3   OH223918   5.269   4.850   4.358
 7992TIP3    H123919   5.230   4.765   4.377
 7992TIP3    H223920   5.321   4.835   4.278
 7993TIP3   OH223921   2.173   0.185   1.315
 7993TIP3    H123922   2.087   0.143   1.316
 7993TIP3    H223923   2.218   0.145   1.240
 7994TIP3   OH223924   0.268   7.555   5.044
 7994TIP3    H123925   0.352   7.592   5.070
 7994TIP3    H223926   0.286   7.509   4.962
 7995TIP3   OH223927   7.683   2.222   2.134
 7995TIP3    H123928   7.639   2.250   2.054
 7995TIP3    H223929   7.669   2.128   2.138
 7996TIP3   OH223930   3.288   0.698   1.782
 7996TIP3    H123931   3.281   0.780   1.831
 7996TIP3    H223932   3.198   0.670   1.768
 7997TIP3   OH223933   6.123   0.483   2.149
 7997TIP3    H123934   6.197   0.524   2.193
 7997TIP3    H223935   6.161   0.436   2.076
 7998TIP3   OH223936   7.510   0.602   2.972
 7998TIP3    H123937   7.493   0.671   3.036
 7998TIP3    H223938   7.514   0.521   3.024
 7999TIP3   OH223939   2.931   5.240   1.510
 7999TIP3    H123940   2.978   5.194   1.441
 7999TIP3    H223941   2.868   5.176   1.543
 8000TIP3   OH223942   6.488   0.723   2.791
 8000TIP3    H123943   6.562   0.773   2.757
 8000TIP3    H223944   6.522   0.634   2.803
 8001TIP3   OH223945   7.233   0.040   3.458
 8001TIP3    H123946   7.198  -0.002   3.537
 8001TIP3    H223947   7.163   0.097   3.428
 8002TIP3   OH223948   1.837   2.694   0.250
 8002TIP3    H123949   1.930   2.687   0.271
 8002TIP3    H223950   1.824   2.632   0.178
 8003TIP3   OH223951   3.726   6.400   5.456
 8003TIP3    H123952   3.695   6.489   5.474
 8003TIP3    H223953   3.653   6.343   5.480
 8004TIP3   OH223954   5.029   4.418   3.502
 8004TIP3    H123955   5.111   4.459   3.473
 8004TIP3    H223956   5.041   4.325   3.483
 8005TIP3   OH223957   5.897   4.430   4.864
 8005TIP3    H123958   5.824   4.489   4.843
 8005TIP3    H223959   5.884   4.408   4.956
 8006TIP3   OH223960   6.143   7.123   1.853
 8006TIP3    H123961   6.118   7.083   1.937
 8006TIP3    H223962   6.063   7.118   1.800
 8007TIP3   OH223963   7.769   1.140   5.014
 8007TIP3    H123964   7.816   1.068   4.973
 8007TIP3    H223965   7.698   1.098   5.062
 8008TIP3   OH223966   5.820   6.931   5.226
 8008TIP3    H123967   5.846   6.839   5.236
 8008TIP3    H223968   5.776   6.935   5.141
 8009TIP3   OH223969   3.998   1.326   5.612
 8009TIP3    H123970   3.938   1.323   5.538
 8009TIP3    H223971   4.078   1.283   5.580
 8010TIP3   OH223972   7.995   0.711   4.709
 8010TIP3    H123973   8.026   0.782   4.765
 8010TIP3    H223974   7.940   0.658   4.766
 8011TIP3   OH223975   4.990   3.461   2.314
 8011TIP3    H123976   4.971   3.511   2.235
 8011TIP3    H223977   4.903   3.440   2.350
 8012TIP3   OH223978   3.916   1.072   1.649
 8012TIP3    H123979   3.841   1.127   1.672
 8012TIP3    H223980   3.877   0.998   1.602
 8013TIP3   OH223981   1.523   1.055   5.529
 8013TIP3    H123982   1.491   1.065   5.439
 8013TIP3    H223983   1.449   1.079   5.584
 8014TIP3   OH223984   2.630   2.541   6.138
 8014TIP3    H123985   2.693   2.476   6.169
 8014TIP3    H223986   2.625   2.606   6.208
 8015TIP3   OH223987   6.143   0.359   4.076
 8015TIP3    H123988   6.178   0.385   4.162
 8015TIP3    H223989   6.056   0.323   4.096
 8016TIP3   OH223990   7.501   0.344   3.060
 8016TIP3    H123991   7.530   0.286   2.990
 8016TIP3    H223992   7.431   0.295   3.104
 8017TIP3   OH223993   5.090   7.561   1.983
 8017TIP3    H123994   5.064   7.628   2.046
 8017TIP3    H223995   5.036   7.485   2.006
 8018TIP3   OH223996   5.411   0.052   5.011
 8018TIP3    H123997   5.329   0.095   5.037
 8018TIP3    H223998   5.479   0.112   5.039
 8019TIP3   OH223999   5.910   0.424   4.962
 8019TIP3    H124000   5.882   0.360   5.027
 8019TIP3    H224001   5.967   0.484   5.011
 8020TIP3   OH224002   7.001   6.529   3.289
 8020TIP3    H124003   7.037   6.482   3.364
 8020TIP3    H224004   7.041   6.616   3.294
 8021TIP3   OH224005   2.468   7.497   1.149
 8021TIP3    H124006   2.410   7.570   1.171
 8021TIP3    H224007   2.410   7.422   1.141
 8022TIP3   OH224008   0.096   2.949   1.061
 8022TIP3    H124009   0.032   2.962   1.130
 8022TIP3    H224010   0.110   3.036   1.023
 8023TIP3   OH224011   5.358   0.233   4.177
 8023TIP3    H124012   5.403   0.176   4.115
 8023TIP3    H224013   5.428   0.272   4.229
 8024TIP3   OH224014   6.062   0.608   0.111
 8024TIP3    H124015   6.098   0.604   0.022
 8024TIP3    H224016   6.065   0.701   0.133
 8025TIP3   OH224017   3.886   3.057   5.518
 8025TIP3    H124018   3.905   3.015   5.601
 8025TIP3    H224019   3.920   3.146   5.528
 8026TIP3   OH224020   2.465   0.213   1.210
 8026TIP3    H124021   2.468   0.117   1.211
 8026TIP3    H224022   2.510   0.239   1.291
 8027TIP3   OH224023   0.708   4.611   5.516
 8027TIP3    H124024   0.637   4.676   5.506
 8027TIP3    H224025   0.765   4.627   5.441
 8028TIP3   OH224026   4.158   2.666   4.979
 8028TIP3    H124027   4.148   2.634   4.889
 8028TIP3    H224028   4.253   2.668   4.993
 8029TIP3   OH224029   2.385   2.771   4.770
 8029TIP3    H124030   2.453   2.784   4.704
 8029TIP3    H224031   2.365   2.678   4.766
 8030TIP3   OH224032   6.945   7.533   3.206
 8030TIP3    H124033   6.911   7.493   3.126
 8030TIP3    H224034   6.872   7.583   3.241
 8031TIP3   OH224035   2.382   3.714   3.065
 8031TIP3    H124036   2.389   3.622   3.039
 8031TIP3    H224037   2.289   3.726   3.083
 8032TIP3   OH224038   7.924   7.797   4.445
 8032TIP3    H124039   7.941   7.761   4.532
 8032TIP3    H224040   7.965   7.883   4.446
 8033TIP3   OH224041   4.504   3.425   6.522
 8033TIP3    H124042   4.439   3.360   6.550
 8033TIP3    H224043   4.577   3.414   6.583
 8034TIP3   OH224044   5.289   0.987   5.475
 8034TIP3    H124045   5.259   1.078   5.478
 8034TIP3    H224046   5.212   0.935   5.501
 8035TIP3   OH224047   5.535   0.787   0.547
 8035TIP3    H124048   5.589   0.720   0.505
 8035TIP3    H224049   5.453   0.786   0.497
 8036TIP3   OH224050   3.504   2.759   0.022
 8036TIP3    H124051   3.428   2.764   0.080
 8036TIP3    H224052   3.524   2.666   0.017
 8037TIP3   OH224053   4.959   4.678   1.827
 8037TIP3    H124054   4.890   4.744   1.834
 8037TIP3    H224055   4.925   4.602   1.875
 8038TIP3   OH224056   2.459   6.391   4.175
 8038TIP3    H124057   2.384   6.346   4.215
 8038TIP3    H224058   2.421   6.457   4.118
 8039TIP3   OH224059   4.621   6.555   1.602
 8039TIP3    H124060   4.546   6.581   1.655
 8039TIP3    H224061   4.630   6.625   1.537
 8040TIP3   OH224062   5.160   3.405   3.822
 8040TIP3    H124063   5.170   3.500   3.821
 8040TIP3    H224064   5.152   3.383   3.915
 8041TIP3   OH224065   7.552   6.346   2.702
 8041TIP3    H124066   7.596   6.281   2.756
 8041TIP3    H224067   7.510   6.406   2.764
 8042TIP3   OH224068   6.176   3.642   3.125
 8042TIP3    H124069   6.190   3.618   3.033
 8042TIP3    H224070   6.083   3.665   3.130
 8043TIP3   OH224071   1.550   5.299   5.224
 8043TIP3    H124072   1.473   5.297   5.281
 8043TIP3    H224073   1.533   5.230   5.159
 8044TIP3   OH224074   1.503   6.087   3.883
 8044TIP3    H124075   1.533   6.137   3.807
 8044TIP3    H224076   1.455   6.013   3.845
 8045TIP3   OH224077   2.190   3.912   3.344
 8045TIP3    H124078   2.123   3.962   3.389
 8045TIP3    H224079   2.148   3.829   3.322
 8046TIP3   OH224080   2.671   3.618   6.372
 8046TIP3    H124081   2.612   3.575   6.435
 8046TIP3    H224082   2.673   3.709   6.400
 8047TIP3   OH224083   5.114   5.200   5.667
 8047TIP3    H124084   5.163   5.269   5.711
 8047TIP3    H224085   5.027   5.238   5.652
 8048TIP3   OH224086   7.335   3.380   3.483
 8048TIP3    H124087   7.304   3.320   3.551
 8048TIP3    H224088   7.353   3.462   3.530
 8049TIP3   OH224089   3.842   1.906   6.013
 8049TIP3    H124090   3.753   1.925   5.985
 8049TIP3    H224091   3.855   1.960   6.091
 8050TIP3   OH224092   0.554   5.737   6.748
 8050TIP3    H124093   0.475   5.771   6.706
 8050TIP3    H224094   0.528   5.722   6.839
 8051TIP3   OH224095   5.246   1.192   5.914
 8051TIP3    H124096   5.278   1.263   5.859
 8051TIP3    H224097   5.312   1.123   5.905
 8052TIP3   OH224098   3.558   3.674   5.262
 8052TIP3    H124099   3.566   3.702   5.353
 8052TIP3    H224100   3.562   3.578   5.266
 8053TIP3   OH224101   4.146   5.348   5.986
 8053TIP3    H124102   4.175   5.438   5.995
 8053TIP3    H224103   4.095   5.347   5.905
 8054TIP3   OH224104   5.541   6.658   6.789
 8054TIP3    H124105   5.527   6.753   6.792
 8054TIP3    H224106   5.571   6.641   6.700
 8055TIP3   OH224107   2.158   7.142   6.189
 8055TIP3    H124108   2.245   7.102   6.198
 8055TIP3    H224109   2.174   7.236   6.200
 8056TIP3   OH224110   4.162   6.908   5.400
 8056TIP3    H124111   4.095   6.886   5.465
 8056TIP3    H224112   4.116   6.963   5.337
 8057TIP3   OH224113   1.250   4.530   4.780
 8057TIP3    H124114   1.166   4.574   4.765
 8057TIP3    H224115   1.253   4.516   4.875
 8058TIP3   OH224116   2.248   7.827   5.247
 8058TIP3    H124117   2.290   7.741   5.241
 8058TIP3    H224118   2.212   7.830   5.336
 8059TIP3   OH224119   3.449   2.872   3.417
 8059TIP3    H124120   3.452   2.851   3.323
 8059TIP3    H224121   3.389   2.807   3.454
 8060TIP3   OH224122   0.632   3.621   1.477
 8060TIP3    H124123   0.697   3.568   1.523
 8060TIP3    H224124   0.616   3.572   1.396
 8061TIP3   OH224125   6.984   0.816   5.920
 8061TIP3    H124126   6.951   0.837   5.832
 8061TIP3    H224127   6.921   0.752   5.954
 8062TIP3   OH224128   6.553   3.730   6.268
 8062TIP3    H124129   6.482   3.771   6.318
 8062TIP3    H224130   6.544   3.637   6.285
 8063TIP3   OH224131   2.325   0.367   3.123
 8063TIP3    H124132   2.356   0.280   3.147
 8063TIP3    H224133   2.233   0.355   3.100
 8064TIP3   OH224134   8.046   5.328   5.633
 8064TIP3    H124135   8.008   5.388   5.697
 8064TIP3    H224136   8.077   5.385   5.562
 8065TIP3   OH224137   5.393   2.510   5.529
 8065TIP3    H124138   5.442   2.542   5.605
 8065TIP3    H224139   5.460   2.486   5.465
 8066TIP3   OH224140   5.397   5.267   6.253
 8066TIP3    H124141   5.410   5.182   6.294
 8066TIP3    H224142   5.311   5.295   6.283
 8067TIP3   OH224143   6.100   1.282   0.242
 8067TIP3    H124144   6.093   1.378   0.242
 8067TIP3    H224145   6.068   1.256   0.329
 8068TIP3   OH224146   0.411   4.012   5.898
 8068TIP3    H124147   0.323   3.982   5.877
 8068TIP3    H224148   0.399   4.102   5.928
 8069TIP3   OH224149   6.977   7.015   6.491
 8069TIP3    H124150   6.994   6.929   6.453
 8069TIP3    H224151   7.054   7.032   6.546
 8070TIP3   OH224152   1.205   1.713   5.489
 8070TIP3    H124153   1.212   1.655   5.414
 8070TIP3    H224154   1.234   1.660   5.563
 8071TIP3   OH224155   3.363   6.912   3.149
 8071TIP3    H124156   3.427   6.982   3.131
 8071TIP3    H224157   3.304   6.950   3.213
 8072TIP3   OH224158   7.680   3.662   2.250
 8072TIP3    H124159   7.677   3.567   2.237
 8072TIP3    H224160   7.764   3.689   2.213
 8073TIP3   OH224161   7.503   7.467   3.157
 8073TIP3    H124162   7.500   7.386   3.105
 8073TIP3    H224163   7.586   7.461   3.205
 8074TIP3   OH224164   0.758   6.271   2.165
 8074TIP3    H124165   0.678   6.220   2.176
 8074TIP3    H224166   0.813   6.247   2.239
 8075TIP3   OH224167   6.204   3.458   0.610
 8075TIP3    H124168   6.273   3.507   0.565
 8075TIP3    H224169   6.141   3.525   0.637
 8076TIP3   OH224170   3.553   3.333   4.119
 8076TIP3    H124171   3.618   3.287   4.172
 8076TIP3    H224172   3.601   3.407   4.082
 8077TIP3   OH224173   3.403   5.325   5.525
 8077TIP3    H124174   3.410   5.421   5.519
 8077TIP3    H224175   3.396   5.307   5.618
 8078TIP3   OH224176   3.799   3.121   1.020
 8078TIP3    H124177   3.815   3.212   1.046
 8078TIP3    H224178   3.704   3.114   1.015
 8079TIP3   OH224179   3.053   0.324   1.773
 8079TIP3    H124180   2.964   0.335   1.804
 8079TIP3    H224181   3.093   0.411   1.784
 8080TIP3   OH224182   3.218   6.751   0.977
 8080TIP3    H124183   3.192   6.799   0.898
 8080TIP3    H224184   3.313   6.742   0.969
 8081TIP3   OH224185   7.218   4.084   6.542
 8081TIP3    H124186   7.257   4.073   6.629
 8081TIP3    H224187   7.248   4.170   6.513
 8082TIP3   OH224188   7.809   5.435   3.750
 8082TIP3    H124189   7.786   5.525   3.775
 8082TIP3    H224190   7.786   5.430   3.657
 8083TIP3   OH224191   7.675   3.354   5.482
 8083TIP3    H124192   7.603   3.398   5.436
 8083TIP3    H224193   7.751   3.409   5.465
 8084TIP3   OH224194   0.717   4.902   6.469
 8084TIP3    H124195   0.700   4.875   6.379
 8084TIP3    H224196   0.634   4.889   6.514
 8085TIP3   OH224197   0.183   7.531   5.323
 8085TIP3    H124198   0.135   7.448   5.331
 8085TIP3    H224199   0.211   7.533   5.232
 8086TIP3   OH224200   2.491   4.415   6.544
 8086TIP3    H124201   2.513   4.322   6.543
 8086TIP3    H224202   2.475   4.438   6.453
 8087TIP3   OH224203   2.275   4.841   6.576
 8087TIP3    H124204   2.266   4.851   6.671
 8087TIP3    H224205   2.350   4.781   6.566
 8088TIP3   OH224206   3.765   6.691   0.829
 8088TIP3    H124207   3.837   6.751   0.852
 8088TIP3    H224208   3.782   6.613   0.881
 8089TIP3   OH224209   2.806   3.690   5.126
 8089TIP3    H124210   2.848   3.761   5.077
 8089TIP3    H224211   2.874   3.660   5.187
 8090TIP3   OH224212   3.036   6.326   5.194
 8090TIP3    H124213   3.104   6.308   5.129
 8090TIP3    H224214   2.955   6.299   5.152
 8091TIP3   OH224215   7.157   0.756   0.813
 8091TIP3    H124216   7.076   0.770   0.765
 8091TIP3    H224217   7.226   0.758   0.746
 8092TIP3   OH224218   4.193   4.914   1.978
 8092TIP3    H124219   4.165   4.919   1.886
 8092TIP3    H224220   4.113   4.927   2.028
 8093TIP3   OH224221   0.822   4.276   5.056
 8093TIP3    H124222   0.793   4.186   5.043
 8093TIP3    H224223   0.851   4.279   5.148
 8094TIP3   OH224224   7.028   3.170   5.881
 8094TIP3    H124225   7.045   3.256   5.919
 8094TIP3    H224226   7.039   3.183   5.787
 8095TIP3   OH224227   7.198   2.706   4.621
 8095TIP3    H124228   7.229   2.640   4.684
 8095TIP3    H224229   7.103   2.701   4.625
 8096TIP3   OH224230   2.338   7.859   0.676
 8096TIP3    H124231   2.311   7.769   0.657
 8096TIP3    H224232   2.433   7.855   0.683
 8097TIP3   OH224233   1.512   2.461   4.309
 8097TIP3    H124234   1.530   2.370   4.332
 8097TIP3    H224235   1.544   2.470   4.219
 8098TIP3   OH224236   7.535   7.650   5.038
 8098TIP3    H124237   7.448   7.682   5.063
 8098TIP3    H224238   7.595   7.704   5.089
 8099TIP3   OH224239   7.193   5.444   5.346
 8099TIP3    H124240   7.105   5.455   5.311
 8099TIP3    H224241   7.250   5.453   5.269
 8100TIP3   OH224242   2.995   2.087   4.542
 8100TIP3    H124243   2.945   2.166   4.563
 8100TIP3    H224244   3.074   2.119   4.500
 8101TIP3   OH224245   5.925   1.954   0.553
 8101TIP3    H124246   6.021   1.954   0.554
 8101TIP3    H224247   5.901   1.958   0.646
 8102TIP3   OH224248   3.358   1.027   2.734
 8102TIP3    H124249   3.381   0.934   2.736
 8102TIP3    H224250   3.362   1.050   2.642
 8103TIP3   OH224251   5.770   5.905   3.491
 8103TIP3    H124252   5.712   5.888   3.416
 8103TIP3    H224253   5.712   5.905   3.567
 8104TIP3   OH224254   3.717   0.874   0.390
 8104TIP3    H124255   3.779   0.874   0.463
 8104TIP3    H224256   3.636   0.841   0.427
 8105TIP3   OH224257   3.167   6.770   3.030
 8105TIP3    H124258   3.122   6.721   3.099
 8105TIP3    H224259   3.235   6.819   3.076
 8106TIP3   OH224260   6.341   5.668   3.763
 8106TIP3    H124261   6.265   5.669   3.822
 8106TIP3    H224262   6.312   5.617   3.688
 8107TIP3   OH224263   4.999   5.804   2.879
 8107TIP3    H124264   4.943   5.830   2.805
 8107TIP3    H224265   4.977   5.867   2.948
 8108TIP3   OH224266   4.519   4.343   1.754
 8108TIP3    H124267   4.511   4.302   1.668
 8108TIP3    H224268   4.446   4.404   1.759
 8109TIP3   OH224269   3.424   2.643   4.629
 8109TIP3    H124270   3.381   2.725   4.656
 8109TIP3    H224271   3.474   2.616   4.707
 8110TIP3   OH224272   7.874   7.052   1.973
 8110TIP3    H124273   7.826   7.007   1.904
 8110TIP3    H224274   7.845   7.010   2.054
 8111TIP3   OH224275   6.114   3.864   0.396
 8111TIP3    H124276   6.034   3.893   0.441
 8111TIP3    H224277   6.133   3.934   0.333
 8112TIP3   OH224278   6.536   2.840   3.904
 8112TIP3    H124279   6.446   2.807   3.912
 8112TIP3    H224280   6.567   2.805   3.821
 8113TIP3   OH224281   7.368   0.938   2.991
 8113TIP3    H124282   7.444   0.962   3.044
 8113TIP3    H224283   7.340   1.020   2.950
 8114TIP3   OH224284   6.016   5.539   5.894
 8114TIP3    H124285   6.094   5.524   5.840
 8114TIP3    H224286   5.944   5.501   5.843
 8115TIP3   OH224287   0.339   3.559   2.788
 8115TIP3    H124288   0.271   3.599   2.733
 8115TIP3    H224289   0.387   3.501   2.730
 8116TIP3   OH224290   6.065   6.195   5.032
 8116TIP3    H124291   6.086   6.186   5.125
 8116TIP3    H224292   5.984   6.247   5.031
 8117TIP3   OH224293   4.470   2.081   6.005
 8117TIP3    H124294   4.536   2.055   5.941
 8117TIP3    H224295   4.472   2.176   6.006
 8118TIP3   OH224296   3.296   6.498   4.325
 8118TIP3    H124297   3.252   6.583   4.315
 8118TIP3    H224298   3.291   6.458   4.238
 8119TIP3   OH224299   3.076   1.992   5.946
 8119TIP3    H124300   3.074   1.896   5.943
 8119TIP3    H224301   3.009   2.020   5.884
 8120TIP3   OH224302   2.868   5.406   5.644
 8120TIP3    H124303   2.922   5.362   5.579
 8120TIP3    H224304   2.785   5.422   5.599
 8121TIP3   OH224305   0.106   0.981   6.235
 8121TIP3    H124306   0.042   0.957   6.168
 8121TIP3    H224307   0.104   0.909   6.297
 8122TIP3   OH224308   3.344   1.324   0.881
 8122TIP3    H124309   3.294   1.245   0.863
 8122TIP3    H224310   3.394   1.341   0.800
 8123TIP3   OH224311   0.744   6.422   6.040
 8123TIP3    H124312   0.717   6.512   6.020
 8123TIP3    H224313   0.797   6.395   5.965
 8124TIP3   OH224314   3.902   7.320   5.046
 8124TIP3    H124315   3.927   7.230   5.023
 8124TIP3    H224316   3.814   7.311   5.083
 8125TIP3   OH224317   4.613   4.214   6.319
 8125TIP3    H124318   4.580   4.176   6.401
 8125TIP3    H224319   4.696   4.255   6.343
 8126TIP3   OH224320   6.910   4.330   1.739
 8126TIP3    H124321   6.828   4.378   1.724
 8126TIP3    H224322   6.929   4.345   1.831
 8127TIP3   OH224323   3.725   0.690   0.847
 8127TIP3    H124324   3.701   0.717   0.936
 8127TIP3    H224325   3.688   0.759   0.791
 8128TIP3   OH224326   2.923   6.591   0.549
 8128TIP3    H124327   2.947   6.620   0.461
 8128TIP3    H224328   2.885   6.504   0.536
 8129TIP3   OH224329   3.525   0.872   5.053
 8129TIP3    H124330   3.610   0.860   5.097
 8129TIP3    H224331   3.516   0.795   4.997
 8130TIP3   OH224332   2.533   3.800   0.242
 8130TIP3    H124333   2.547   3.839   0.328
 8130TIP3    H224334   2.560   3.709   0.253
 8131TIP3   OH224335   0.785   2.880   6.080
 8131TIP3    H124336   0.826   2.928   6.153
 8131TIP3    H224337   0.699   2.855   6.114
 8132TIP3   OH224338   2.352   2.899   0.109
 8132TIP3    H124339   2.377   2.987   0.080
 8132TIP3    H224340   2.273   2.879   0.059
 8133TIP3   OH224341   2.103   6.154   5.365
 8133TIP3    H124342   2.190   6.187   5.384
 8133TIP3    H224343   2.046   6.230   5.373
 8134TIP3   OH224344   5.334   6.455   1.756
 8134TIP3    H124345   5.403   6.400   1.718
 8134TIP3    H224346   5.347   6.541   1.716
 8135TIP3   OH224347   8.276   1.452   2.619
 8135TIP3    H124348   8.314   1.501   2.692
 8135TIP3    H224349   8.273   1.362   2.651
 8136TIP3   OH224350   0.817   0.051   6.576
 8136TIP3    H124351   0.739   0.098   6.606
 8136TIP3    H224352   0.876   0.119   6.545
 8137TIP3   OH224353   8.201   3.610   2.683
 8137TIP3    H124354   8.227   3.551   2.753
 8137TIP3    H224355   8.161   3.684   2.727
 8138TIP3   OH224356   2.528   4.598   4.489
 8138TIP3    H124357   2.539   4.660   4.561
 8138TIP3    H224358   2.499   4.517   4.532
 8139TIP3   OH224359   3.339   2.912   0.209
 8139TIP3    H124360   3.387   2.838   0.246
 8139TIP3    H224361   3.388   2.989   0.238
 8140TIP3   OH224362   0.050   5.710   3.402
 8140TIP3    H124363   0.132   5.683   3.361
 8140TIP3    H224364   0.020   5.632   3.449
 8141TIP3   OH224365   0.894   4.409   1.195
 8141TIP3    H124366   0.934   4.409   1.108
 8141TIP3    H224367   0.969   4.410   1.255
 8142TIP3   OH224368   3.976   0.891   4.214
 8142TIP3    H124369   4.026   0.969   4.238
 8142TIP3    H224370   4.023   0.854   4.139
 8143TIP3   OH224371   2.682   2.775   1.975
 8143TIP3    H124372   2.753   2.833   2.002
 8143TIP3    H224373   2.702   2.754   1.883
 8144TIP3   OH224374   0.976   0.056   5.660
 8144TIP3    H124375   1.048   0.038   5.600
 8144TIP3    H224376   0.919  -0.020   5.653
 8145TIP3   OH224377   6.023   2.442   5.023
 8145TIP3    H124378   5.971   2.521   5.041
 8145TIP3    H224379   6.021   2.394   5.106
 8146TIP3   OH224380   1.344   3.897   0.062
 8146TIP3    H124381   1.438   3.909   0.077
 8146TIP3    H224382   1.306   3.898   0.150
 8147TIP3   OH224383   4.871   4.240   4.249
 8147TIP3    H124384   4.779   4.257   4.230
 8147TIP3    H224385   4.870   4.192   4.331
 8148TIP3   OH224386   1.281   7.055   3.216
 8148TIP3    H124387   1.336   7.000   3.160
 8148TIP3    H224388   1.228   7.106   3.155
 8149TIP3   OH224389   0.494   5.171   3.327
 8149TIP3    H124390   0.555   5.137   3.261
 8149TIP3    H224391   0.413   5.186   3.279
 8150TIP3   OH224392   5.872   2.428   6.552
 8150TIP3    H124393   5.785   2.427   6.592
 8150TIP3    H224394   5.905   2.339   6.563
 8151TIP3   OH224395   6.391   1.213   3.524
 8151TIP3    H124396   6.407   1.200   3.618
 8151TIP3    H224397   6.478   1.207   3.485
 8152TIP3   OH224398   1.837   1.741   0.195
 8152TIP3    H124399   1.899   1.814   0.198
 8152TIP3    H224400   1.836   1.707   0.285
 8153TIP3   OH224401   7.494   6.464   3.309
 8153TIP3    H124402   7.534   6.500   3.229
 8153TIP3    H224403   7.559   6.481   3.377
 8154TIP3   OH224404   6.586   2.619   1.620
 8154TIP3    H124405   6.673   2.588   1.594
 8154TIP3    H224406   6.578   2.593   1.712
 8155TIP3   OH224407   6.612   2.027   5.999
 8155TIP3    H124408   6.555   2.090   5.957
 8155TIP3    H224409   6.697   2.071   6.005
 8156TIP3   OH224410   2.784   5.557   3.854
 8156TIP3    H124411   2.742   5.542   3.770
 8156TIP3    H224412   2.814   5.471   3.882
 8157TIP3   OH224413   3.828   4.311   5.866
 8157TIP3    H124414   3.825   4.327   5.772
 8157TIP3    H224415   3.752   4.256   5.884
 8158TIP3   OH224416   3.328   1.805   2.505
 8158TIP3    H124417   3.256   1.831   2.447
 8158TIP3    H224418   3.286   1.755   2.575
 8159TIP3   OH224419   4.643   0.124   4.924
 8159TIP3    H124420   4.597   0.159   5.001
 8159TIP3    H224421   4.736   0.130   4.948
 8160TIP3   OH224422   2.559   6.587   2.291
 8160TIP3    H124423   2.494   6.522   2.265
 8160TIP3    H224424   2.628   6.537   2.334
 8161TIP3   OH224425   6.242   4.486   3.477
 8161TIP3    H124426   6.161   4.516   3.520
 8161TIP3    H224427   6.212   4.441   3.398
 8162TIP3   OH224428   5.298   0.927   2.303
 8162TIP3    H124429   5.272   0.860   2.367
 8162TIP3    H224430   5.306   1.007   2.354
 8163TIP3   OH224431   7.376   0.096   4.492
 8163TIP3    H124432   7.440   0.060   4.429
 8163TIP3    H224433   7.342   0.019   4.538
 8164TIP3   OH224434   7.967   5.028   0.082
 8164TIP3    H124435   7.922   4.970   0.021
 8164TIP3    H224436   8.044   4.979   0.109
 8165TIP3   OH224437   0.868   1.246   2.769
 8165TIP3    H124438   0.871   1.202   2.853
 8165TIP3    H224439   0.792   1.304   2.774
 8166TIP3   OH224440   0.743   6.660   1.156
 8166TIP3    H124441   0.673   6.721   1.180
 8166TIP3    H224442   0.794   6.708   1.091
 8167TIP3   OH224443   8.157   0.552   5.358
 8167TIP3    H124444   8.236   0.554   5.304
 8167TIP3    H224445   8.176   0.611   5.431
 8168TIP3   OH224446   5.034   1.043   4.683
 8168TIP3    H124447   5.009   1.041   4.591
 8168TIP3    H224448   5.029   0.951   4.711
 8169TIP3   OH224449   3.628   2.254   1.077
 8169TIP3    H124450   3.638   2.320   1.146
 8169TIP3    H224451   3.584   2.181   1.120
 8170TIP3   OH224452   4.808   5.997   3.284
 8170TIP3    H124453   4.760   5.918   3.258
 8170TIP3    H224454   4.765   6.068   3.237
 8171TIP3   OH224455   0.138   2.524   0.934
 8171TIP3    H124456   0.190   2.480   1.001
 8171TIP3    H224457   0.048   2.518   0.966
 8172TIP3   OH224458   7.637   5.926   6.293
 8172TIP3    H124459   7.674   5.953   6.376
 8172TIP3    H224460   7.619   5.832   6.304
 8173TIP3   OH224461   7.532   0.969   3.469
 8173TIP3    H124462   7.527   1.043   3.408
 8173TIP3    H224463   7.451   0.920   3.453
 8174TIP3   OH224464   7.073   0.739   1.093
 8174TIP3    H124465   7.127   0.706   1.165
 8174TIP3    H224466   7.133   0.744   1.018
 8175TIP3   OH224467   5.785   5.726   6.640
 8175TIP3    H124468   5.717   5.665   6.669
 8175TIP3    H224469   5.742   5.779   6.573
 8176TIP3   OH224470   7.110   4.455   6.732
 8176TIP3    H124471   7.145   4.428   6.647
 8176TIP3    H224472   7.071   4.541   6.716
 8177TIP3   OH224473   2.464   0.441   3.997
 8177TIP3    H124474   2.449   0.349   3.974
 8177TIP3    H224475   2.452   0.488   3.915
 8178TIP3   OH224476   3.338   6.560   2.621
 8178TIP3    H124477   3.252   6.570   2.581
 8178TIP3    H224478   3.388   6.508   2.558
 8179TIP3   OH224479   3.405   0.460   0.097
 8179TIP3    H124480   3.430   0.543   0.137
 8179TIP3    H224481   3.366   0.484   0.013
 8180TIP3   OH224482   7.758   6.943   0.405
 8180TIP3    H124483   7.851   6.939   0.427
 8180TIP3    H224484   7.714   6.965   0.488
 8181TIP3   OH224485   5.246   1.896   2.872
 8181TIP3    H124486   5.260   1.807   2.839
 8181TIP3    H224487   5.300   1.951   2.816
 8182TIP3   OH224488   1.935   0.421   0.419
 8182TIP3    H124489   1.987   0.376   0.484
 8182TIP3    H224490   1.860   0.364   0.403
 8183TIP3   OH224491   0.316   2.513   1.172
 8183TIP3    H124492   0.242   2.520   1.232
 8183TIP3    H224493   0.370   2.590   1.191
 8184TIP3   OH224494   4.601   3.171   6.350
 8184TIP3    H124495   4.683   3.218   6.334
 8184TIP3    H224496   4.535   3.223   6.306
 8185TIP3   OH224497   4.083   1.033   5.697
 8185TIP3    H124498   4.052   1.047   5.787
 8185TIP3    H224499   4.049   0.946   5.674
 8186TIP3   OH224500   4.841   6.303   0.993
 8186TIP3    H124501   4.880   6.287   1.079
 8186TIP3    H224502   4.862   6.225   0.943
 8187TIP3   OH224503   6.030   1.575   1.241
 8187TIP3    H124504   5.990   1.498   1.280
 8187TIP3    H224505   5.964   1.610   1.182
 8188TIP3   OH224506   2.387   6.345   3.394
 8188TIP3    H124507   2.442   6.268   3.408
 8188TIP3    H224508   2.402   6.369   3.302
 8189TIP3   OH224509   1.043   7.280   5.241
 8189TIP3    H124510   0.985   7.250   5.171
 8189TIP3    H224511   0.984   7.298   5.314
 8190TIP3   OH224512   6.611   0.936   1.879
 8190TIP3    H124513   6.626   0.859   1.933
 8190TIP3    H224514   6.550   0.907   1.811
 8191TIP3   OH224515   5.161   2.982   0.219
 8191TIP3    H124516   5.105   3.031   0.158
 8191TIP3    H224517   5.120   2.896   0.225
 8192TIP3   OH224518   6.869   2.391   5.451
 8192TIP3    H124519   6.830   2.475   5.424
 8192TIP3    H224520   6.963   2.408   5.452
 8193TIP3   OH224521   0.069   4.833   4.798
 8193TIP3    H124522   0.124   4.851   4.722
 8193TIP3    H224523   0.131   4.815   4.869
 8194TIP3   OH224524   0.874   5.702   6.444
 8194TIP3    H124525   0.818   5.779   6.455
 8194TIP3    H224526   0.961   5.738   6.427
 8195TIP3   OH224527   2.490   2.588   0.084
 8195TIP3    H124528   2.567   2.587   0.027
 8195TIP3    H224529   2.474   2.681   0.101
 8196TIP3   OH224530   2.476   3.303   3.846
 8196TIP3    H124531   2.468   3.318   3.940
 8196TIP3    H224532   2.435   3.218   3.832
 8197TIP3   OH224533   7.133   6.754   6.704
 8197TIP3    H124534   7.214   6.803   6.720
 8197TIP3    H224535   7.162   6.663   6.698
 8198TIP3   OH224536   0.851   5.405   1.437
 8198TIP3    H124537   0.824   5.330   1.385
 8198TIP3    H224538   0.915   5.450   1.382
 8199TIP3   OH224539   2.177   4.584   4.266
 8199TIP3    H124540   2.227   4.514   4.222
 8199TIP3    H224541   2.149   4.544   4.348
 8200TIP3   OH224542   1.912   6.517   2.434
 8200TIP3    H124543   1.920   6.438   2.488
 8200TIP3    H224544   1.965   6.583   2.480
 8201TIP3   OH224545   1.549   6.291   1.722
 8201TIP3    H124546   1.523   6.334   1.804
 8201TIP3    H224547   1.619   6.231   1.748
 8202TIP3   OH224548   5.884   1.084   5.509
 8202TIP3    H124549   5.943   1.025   5.462
 8202TIP3    H224550   5.857   1.034   5.586
 8203TIP3   OH224551   1.194   4.458   6.438
 8203TIP3    H124552   1.184   4.369   6.471
 8203TIP3    H224553   1.265   4.452   6.374
 8204TIP3   OH224554   5.777   6.166   1.199
 8204TIP3    H124555   5.823   6.249   1.211
 8204TIP3    H224556   5.846   6.101   1.191
 8205TIP3   OH224557   3.573   2.818   2.273
 8205TIP3    H124558   3.658   2.796   2.310
 8205TIP3    H224559   3.586   2.815   2.178
 8206TIP3   OH224560   3.990   7.408   3.024
 8206TIP3    H124561   3.962   7.323   2.989
 8206TIP3    H224562   3.967   7.471   2.956
 8207TIP3   OH224563   0.357   3.420   4.424
 8207TIP3    H124564   0.264   3.412   4.446
 8207TIP3    H224565   0.385   3.500   4.468
 8208TIP3   OH224566   8.166   1.150   6.153
 8208TIP3    H124567   8.197   1.068   6.114
 8208TIP3    H224568   8.230   1.170   6.221
 8209TIP3   OH224569   7.596   3.580   0.549
 8209TIP3    H124570   7.539   3.652   0.524
 8209TIP3    H224571   7.538   3.518   0.594
 8210TIP3   OH224572   1.761   0.562   1.424
 8210TIP3    H124573   1.707   0.487   1.449
 8210TIP3    H224574   1.818   0.576   1.500
 8211TIP3   OH224575   3.216   5.825   5.878
 8211TIP3    H124576   3.250   5.885   5.812
 8211TIP3    H224577   3.140   5.784   5.837
 8212TIP3   OH224578   4.957   5.327   2.823
 8212TIP3    H124579   4.993   5.388   2.888
 8212TIP3    H224580   4.864   5.350   2.817
 8213TIP3   OH224581   6.176   7.292   0.425
 8213TIP3    H124582   6.104   7.336   0.380
 8213TIP3    H224583   6.232   7.363   0.457
 8214TIP3   OH224584   6.989   0.000   4.066
 8214TIP3    H124585   6.914  -0.016   4.008
 8214TIP3    H224586   7.015   0.090   4.048
 8215TIP3   OH224587   8.074   5.292   3.693
 8215TIP3    H124588   8.110   5.250   3.772
 8215TIP3    H224589   7.979   5.285   3.704
 8216TIP3   OH224590   5.424   6.666   5.332
 8216TIP3    H124591   5.395   6.691   5.244
 8216TIP3    H224592   5.389   6.578   5.344
 8217TIP3   OH224593   3.826   1.126   3.983
 8217TIP3    H124594   3.752   1.181   3.959
 8217TIP3    H224595   3.809   1.102   4.074
 8218TIP3   OH224596   1.995   5.678   3.393
 8218TIP3    H124597   1.959   5.760   3.358
 8218TIP3    H224598   1.919   5.629   3.423
 8219TIP3   OH224599   6.180   2.682   1.070
 8219TIP3    H124600   6.256   2.694   1.014
 8219TIP3    H224601   6.210   2.626   1.141
 8220TIP3   OH224602   0.842   5.088   1.823
 8220TIP3    H124603   0.857   4.994   1.831
 8220TIP3    H224604   0.917   5.120   1.772
 8221TIP3   OH224605   6.187   4.521   6.080
 8221TIP3    H124606   6.219   4.434   6.104
 8221TIP3    H224607   6.259   4.579   6.103
 8222TIP3   OH224608   0.098   3.544   2.183
 8222TIP3    H124609   0.069   3.453   2.190
 8222TIP3    H224610   0.091   3.578   2.272
 8223TIP3   OH224611   1.460   1.589   4.882
 8223TIP3    H124612   1.535   1.635   4.845
 8223TIP3    H224613   1.388   1.608   4.822
 8224TIP3   OH224614   8.242   6.453   2.464
 8224TIP3    H124615   8.149   6.447   2.482
 8224TIP3    H224616   8.276   6.514   2.529
 8225TIP3   OH224617   1.304   1.570   4.662
 8225TIP3    H124618   1.296   1.495   4.603
 8225TIP3    H224619   1.219   1.614   4.657
 8226TIP3   OH224620   2.675   2.666   0.363
 8226TIP3    H124621   2.580   2.677   0.357
 8226TIP3    H224622   2.687   2.595   0.426
 8227TIP3   OH224623   8.050   1.916   1.661
 8227TIP3    H124624   8.051   1.963   1.578
 8227TIP3    H224625   7.958   1.919   1.689
 8228TIP3   OH224626   0.425   0.394   5.913
 8228TIP3    H124627   0.505   0.365   5.956
 8228TIP3    H224628   0.436   0.367   5.821
 8229TIP3   OH224629   0.198   6.412   5.825
 8229TIP3    H124630   0.160   6.389   5.740
 8229TIP3    H224631   0.195   6.508   5.827
 8230TIP3   OH224632   4.960   6.713   4.951
 8230TIP3    H124633   4.905   6.634   4.951
 8230TIP3    H224634   4.970   6.735   5.044
 8231TIP3   OH224635   1.799   0.483   4.694
 8231TIP3    H124636   1.764   0.408   4.647
 8231TIP3    H224637   1.753   0.483   4.777
 8232TIP3   OH224638   2.384   2.631   3.806
 8232TIP3    H124639   2.388   2.622   3.901
 8232TIP3    H224640   2.308   2.687   3.791
 8233TIP3   OH224641   2.588   5.070   6.737
 8233TIP3    H124642   2.609   4.976   6.740
 8233TIP3    H224643   2.505   5.074   6.690
 8234TIP3   OH224644   2.754   2.272   2.258
 8234TIP3    H124645   2.785   2.282   2.168
 8234TIP3    H224646   2.806   2.200   2.294
 8235TIP3   OH224647   0.384   2.362   5.676
 8235TIP3    H124648   0.424   2.439   5.635
 8235TIP3    H224649   0.427   2.287   5.635
 8236TIP3   OH224650   5.378   1.052   3.241
 8236TIP3    H124651   5.459   1.070   3.289
 8236TIP3    H224652   5.316   1.022   3.309
 8237TIP3   OH224653   0.579   1.270   4.202
 8237TIP3    H124654   0.493   1.232   4.216
 8237TIP3    H224655   0.637   1.219   4.258
 8238TIP3   OH224656   7.542   5.337   2.631
 8238TIP3    H124657   7.516   5.251   2.663
 8238TIP3    H224658   7.519   5.336   2.538
 8239TIP3   OH224659   5.762   4.026   1.629
 8239TIP3    H124660   5.710   4.043   1.709
 8239TIP3    H224661   5.715   4.073   1.560
 8240TIP3   OH224662   6.183   4.383   0.779
 8240TIP3    H124663   6.091   4.375   0.804
 8240TIP3    H224664   6.230   4.331   0.845
 8241TIP3   OH224665   4.605   5.510   6.235
 8241TIP3    H124666   4.523   5.463   6.222
 8241TIP3    H224667   4.673   5.444   6.223
 8242TIP3   OH224668   0.416   0.370   1.987
 8242TIP3    H124669   0.356   0.419   1.932
 8242TIP3    H224670   0.390   0.390   2.076
 8243TIP3   OH224671   4.347   5.399   1.427
 8243TIP3    H124672   4.359   5.493   1.414
 8243TIP3    H224673   4.430   5.368   1.463
 8244TIP3   OH224674   1.476   2.421   1.739
 8244TIP3    H124675   1.442   2.387   1.822
 8244TIP3    H224676   1.402   2.467   1.700
 8245TIP3   OH224677   8.308   6.491   1.924
 8245TIP3    H124678   8.235   6.492   1.862
 8245TIP3    H224679   8.269   6.518   2.007
 8246TIP3   OH224680   0.686   6.119   5.473
 8246TIP3    H124681   0.743   6.165   5.534
 8246TIP3    H224682   0.687   6.028   5.502
 8247TIP3   OH224683   1.051   4.827   2.301
 8247TIP3    H124684   1.144   4.829   2.277
 8247TIP3    H224685   1.049   4.782   2.385
 8248TIP3   OH224686   4.740   2.143   0.840
 8248TIP3    H124687   4.722   2.113   0.929
 8248TIP3    H224688   4.680   2.217   0.827
 8249TIP3   OH224689   6.899   7.075   5.033
 8249TIP3    H124690   6.930   7.159   5.067
 8249TIP3    H224691   6.978   7.029   5.007
 8250TIP3   OH224692   6.730   7.854   4.214
 8250TIP3    H124693   6.707   7.819   4.128
 8250TIP3    H224694   6.655   7.909   4.238
 8251TIP3   OH224695   2.484   1.454   4.408
 8251TIP3    H124696   2.475   1.505   4.488
 8251TIP3    H224697   2.576   1.462   4.385
 8252TIP3   OH224698   4.333   3.673   0.504
 8252TIP3    H124699   4.251   3.719   0.517
 8252TIP3    H224700   4.341   3.615   0.579
 8253TIP3   OH224701   1.463   6.595   6.093
 8253TIP3    H124702   1.458   6.618   6.001
 8253TIP3    H224703   1.441   6.502   6.096
 8254TIP3   OH224704   7.197   7.194   2.989
 8254TIP3    H124705   7.181   7.256   2.918
 8254TIP3    H224706   7.255   7.242   3.049
 8255TIP3   OH224707   0.760   5.925   6.583
 8255TIP3    H124708   0.691   5.876   6.626
 8255TIP3    H224709   0.834   5.923   6.644
 8256TIP3   OH224710   3.417   0.862   0.108
 8256TIP3    H124711   3.340   0.893   0.059
 8256TIP3    H224712   3.455   0.942   0.144
 8257TIP3   OH224713   6.930   6.634   4.317
 8257TIP3    H124714   6.845   6.592   4.330
 8257TIP3    H224715   6.932   6.656   4.224
 8258TIP3   OH224716   3.013   3.587   4.856
 8258TIP3    H124717   3.013   3.679   4.882
 8258TIP3    H224718   3.039   3.539   4.935
 8259TIP3   OH224719   3.613   6.650   5.519
 8259TIP3    H124720   3.562   6.657   5.438
 8259TIP3    H224721   3.615   6.739   5.554
 8260TIP3   OH224722   1.484   2.476   1.393
 8260TIP3    H124723   1.415   2.479   1.460
 8260TIP3    H224724   1.545   2.410   1.424
 8261TIP3   OH224725   4.425   5.690   1.407
 8261TIP3    H124726   4.481   5.733   1.472
 8261TIP3    H224727   4.449   5.732   1.324
 8262TIP3   OH224728   6.450   4.970   0.258
 8262TIP3    H124729   6.516   4.901   0.268
 8262TIP3    H224730   6.443   5.009   0.345
 8263TIP3   OH224731   3.588   3.503   4.602
 8263TIP3    H124732   3.596   3.469   4.691
 8263TIP3    H224733   3.606   3.596   4.610
 8264TIP3   OH224734   3.410   7.141   5.232
 8264TIP3    H124735   3.341   7.187   5.184
 8264TIP3    H224736   3.371   7.123   5.318
 8265TIP3   OH224737   3.663   2.433   5.578
 8265TIP3    H124738   3.598   2.363   5.580
 8265TIP3    H224739   3.747   2.389   5.573
 8266TIP3   OH224740   2.830   1.538   5.912
 8266TIP3    H124741   2.843   1.471   5.845
 8266TIP3    H224742   2.760   1.503   5.967
 8267TIP3   OH224743   7.995   0.792   1.037
 8267TIP3    H124744   7.912   0.840   1.036
 8267TIP3    H224745   7.991   0.738   1.116
 8268TIP3   OH224746   3.810   7.502   2.376
 8268TIP3    H124747   3.851   7.565   2.435
 8268TIP3    H224748   3.716   7.514   2.389
 8269TIP3   OH224749   2.382   5.482   0.778
 8269TIP3    H124750   2.295   5.490   0.740
 8269TIP3    H224751   2.439   5.527   0.716
 8270TIP3   OH224752   4.228   5.567   4.509
 8270TIP3    H124753   4.217   5.602   4.420
 8270TIP3    H224754   4.322   5.561   4.520
 8271TIP3   OH224755   1.301   0.376   5.955
 8271TIP3    H124756   1.249   0.297   5.971
 8271TIP3    H224757   1.335   0.400   6.041
 8272TIP3   OH224758   2.663   0.298   5.788
 8272TIP3    H124759   2.666   0.391   5.812
 8272TIP3    H224760   2.753   0.278   5.762
 8273TIP3   OH224761   6.418   1.375   1.323
 8273TIP3    H124762   6.384   1.325   1.398
 8273TIP3    H224763   6.513   1.375   1.336
 8274TIP3   OH224764   7.154   7.431   3.765
 8274TIP3    H124765   7.067   7.448   3.729
 8274TIP3    H224766   7.182   7.350   3.723
 8275TIP3   OH224767   1.328   0.848   4.892
 8275TIP3    H124768   1.239   0.812   4.891
 8275TIP3    H224769   1.385   0.771   4.893
 8276TIP3   OH224770   3.211   2.044   5.374
 8276TIP3    H124771   3.227   2.134   5.401
 8276TIP3    H224772   3.232   2.042   5.281
 8277TIP3   OH224773   2.516   0.313   6.404
 8277TIP3    H124774   2.544   0.263   6.327
 8277TIP3    H224775   2.594   0.364   6.428
 8278TIP3   OH224776   7.593   5.415   2.906
 8278TIP3    H124777   7.572   5.416   2.813
 8278TIP3    H224778   7.509   5.403   2.950
 8279TIP3   OH224779   5.152   4.646   6.196
 8279TIP3    H124780   5.194   4.714   6.143
 8279TIP3    H224781   5.097   4.695   6.258
 8280TIP3   OH224782   4.703   6.884   2.443
 8280TIP3    H124783   4.689   6.869   2.349
 8280TIP3    H224784   4.781   6.939   2.447
 8281TIP3   OH224785   3.195   7.694   1.543
 8281TIP3    H124786   3.207   7.625   1.608
 8281TIP3    H224787   3.101   7.697   1.529
 8282TIP3   OH224788   4.555   3.909   4.529
 8282TIP3    H124789   4.624   3.848   4.553
 8282TIP3    H224790   4.556   3.910   4.434
 8283TIP3   OH224791   6.345   4.627   1.444
 8283TIP3    H124792   6.272   4.585   1.490
 8283TIP3    H224793   6.367   4.703   1.498
 8284TIP3   OH224794   2.858   7.403   2.540
 8284TIP3    H124795   2.934   7.429   2.593
 8284TIP3    H224796   2.885   7.421   2.450
 8285TIP3   OH224797   4.598   0.338   0.986
 8285TIP3    H124798   4.619   0.409   1.046
 8285TIP3    H224799   4.669   0.274   0.997
 8286TIP3   OH224800   2.804   5.115   6.533
 8286TIP3    H124801   2.828   5.194   6.485
 8286TIP3    H224802   2.742   5.145   6.599
 8287TIP3   OH224803   2.864   5.333   0.910
 8287TIP3    H124804   2.853   5.406   0.971
 8287TIP3    H224805   2.930   5.363   0.848
 8288TIP3   OH224806   6.701   3.727   3.270
 8288TIP3    H124807   6.659   3.662   3.326
 8288TIP3    H224808   6.781   3.752   3.316
 8289TIP3   OH224809   4.732   4.489   1.785
 8289TIP3    H124810   4.657   4.436   1.758
 8289TIP3    H224811   4.713   4.512   1.876
 8290TIP3   OH224812   7.968   6.046   5.439
 8290TIP3    H124813   7.912   6.054   5.362
 8290TIP3    H224814   8.054   6.076   5.409
 8291TIP3   OH224815   0.723   5.031   5.930
 8291TIP3    H124816   0.640   4.995   5.899
 8291TIP3    H224817   0.768   5.061   5.852
 8292TIP3   OH224818   3.061   6.702   6.385
 8292TIP3    H124819   3.067   6.677   6.477
 8292TIP3    H224820   3.115   6.638   6.338
 8293TIP3   OH224821   4.929   1.453   3.254
 8293TIP3    H124822   4.876   1.449   3.334
 8293TIP3    H224823   4.910   1.371   3.209
 8294TIP3   OH224824   1.815   3.516   2.571
 8294TIP3    H124825   1.885   3.471   2.524
 8294TIP3    H224826   1.855   3.546   2.652
 8295TIP3   OH224827   8.288   3.464   2.466
 8295TIP3    H124828   8.261   3.503   2.549
 8295TIP3    H224829   8.354   3.400   2.490
 8296TIP3   OH224830   0.681   0.902   0.031
 8296TIP3    H124831   0.766   0.881   0.071
 8296TIP3    H224832   0.633   0.819   0.033
 8297TIP3   OH224833   2.172   3.936   2.425
 8297TIP3    H124834   2.257   3.894   2.416
 8297TIP3    H224835   2.116   3.868   2.462
 8298TIP3   OH224836   2.599   3.548   5.369
 8298TIP3    H124837   2.590   3.641   5.350
 8298TIP3    H224838   2.550   3.535   5.450
 8299TIP3   OH224839   0.406   4.775   1.556
 8299TIP3    H124840   0.490   4.806   1.591
 8299TIP3    H224841   0.404   4.808   1.467
 8300TIP3   OH224842   2.796   7.534   3.334
 8300TIP3    H124843   2.740   7.612   3.326
 8300TIP3    H224844   2.884   7.568   3.349
 8301TIP3   OH224845   5.572   3.510   6.628
 8301TIP3    H124846   5.602   3.424   6.658
 8301TIP3    H224847   5.565   3.562   6.707
 8302TIP3   OH224848   4.740   5.517   2.021
 8302TIP3    H124849   4.779   5.518   2.108
 8302TIP3    H224850   4.814   5.504   1.962
 8303TIP3   OH224851   0.124   0.818   5.894
 8303TIP3    H124852   0.192   0.757   5.920
 8303TIP3    H224853   0.166   0.878   5.832
 8304TIP3   OH224854   7.462   5.410   0.832
 8304TIP3    H124855   7.480   5.328   0.879
 8304TIP3    H224856   7.397   5.455   0.886
 8305TIP3   OH224857   5.978   1.361   2.767
 8305TIP3    H124858   6.059   1.370   2.818
 8305TIP3    H224859   5.993   1.284   2.713
 8306TIP3   OH224860   6.347   1.476   6.337
 8306TIP3    H124861   6.360   1.382   6.348
 8306TIP3    H224862   6.312   1.505   6.421
 8307TIP3   OH224863   6.648   3.564   2.828
 8307TIP3    H124864   6.696   3.595   2.905
 8307TIP3    H224865   6.580   3.507   2.864
 8308TIP3   OH224866   1.342   4.034   5.722
 8308TIP3    H124867   1.401   3.962   5.744
 8308TIP3    H224868   1.353   4.097   5.793
 8309TIP3   OH224869   7.377   3.500   2.759
 8309TIP3    H124870   7.373   3.594   2.740
 8309TIP3    H224871   7.470   3.479   2.761
 8310TIP3   OH224872   1.947   2.278   0.779
 8310TIP3    H124873   2.000   2.263   0.700
 8310TIP3    H224874   1.904   2.361   0.763
 8311TIP3   OH224875   4.817   4.714   1.061
 8311TIP3    H124876   4.856   4.757   0.985
 8311TIP3    H224877   4.876   4.733   1.133
 8312TIP3   OH224878   5.394   0.597   3.670
 8312TIP3    H124879   5.351   0.675   3.704
 8312TIP3    H224880   5.334   0.525   3.692
 8313TIP3   OH224881   3.459   0.051   2.664
 8313TIP3    H124882   3.449   0.133   2.616
 8313TIP3    H224883   3.483   0.078   2.753
 8314TIP3   OH224884   5.727   2.320   4.904
 8314TIP3    H124885   5.649   2.303   4.851
 8314TIP3    H224886   5.795   2.341   4.840
 8315TIP3   OH224887   0.019   1.162   3.121
 8315TIP3    H124888   0.088   1.119   3.171
 8315TIP3    H224889   0.020   1.117   3.036
 8316TIP3   OH224890   5.398   1.433   6.648
 8316TIP3    H124891   5.441   1.463   6.728
 8316TIP3    H224892   5.318   1.389   6.678
 8317TIP3   OH224893   0.092   2.697   6.669
 8317TIP3    H124894   0.068   2.787   6.689
 8317TIP3    H224895   0.083   2.651   6.753
 8318TIP3   OH224896   1.531   0.203   6.368
 8318TIP3    H124897   1.585   0.273   6.404
 8318TIP3    H224898   1.454   0.248   6.334
 8319TIP3   OH224899   8.199   3.207   5.037
 8319TIP3    H124900   8.238   3.273   5.093
 8319TIP3    H224901   8.202   3.126   5.088
 8320TIP3   OH224902   3.982   2.306   3.463
 8320TIP3    H124903   3.889   2.285   3.476
 8320TIP3    H224904   4.002   2.274   3.376
 8321TIP3   OH224905   6.737   2.014   4.085
 8321TIP3    H124906   6.737   2.084   4.150
 8321TIP3    H224907   6.673   2.041   4.020
 8322TIP3   OH224908   6.860   5.239   2.790
 8322TIP3    H124909   6.801   5.168   2.763
 8322TIP3    H224910   6.805   5.317   2.787
 8323TIP3   OH224911   0.664   0.060   1.065
 8323TIP3    H124912   0.689   0.011   0.987
 8323TIP3    H224913   0.672  -0.004   1.136
 8324TIP3   OH224914   3.167   4.602   2.276
 8324TIP3    H124915   3.213   4.518   2.282
 8324TIP3    H224916   3.224   4.657   2.222
 8325TIP3   OH224917   7.502   5.687   2.349
 8325TIP3    H124918   7.424   5.741   2.359
 8325TIP3    H224919   7.477   5.601   2.382
 8326TIP3   OH224920   4.508   1.710   6.698
 8326TIP3    H124921   4.574   1.750   6.641
 8326TIP3    H224922   4.426   1.722   6.652
 8327TIP3   OH224923   1.055   7.172   1.567
 8327TIP3    H124924   1.016   7.239   1.623
 8327TIP3    H224925   1.061   7.095   1.624
 8328TIP3   OH224926   3.237   6.589   5.977
 8328TIP3    H124927   3.257   6.621   6.065
 8328TIP3    H224928   3.292   6.641   5.920
 8329TIP3   OH224929   6.372   3.884   2.732
 8329TIP3    H124930   6.322   3.920   2.659
 8329TIP3    H224931   6.445   3.838   2.690
 8330TIP3   OH224932   4.590   7.328   5.806
 8330TIP3    H124933   4.683   7.309   5.805
 8330TIP3    H224934   4.582   7.414   5.764
 8331TIP3   OH224935   1.407   6.980   6.478
 8331TIP3    H124936   1.500   6.959   6.481
 8331TIP3    H224937   1.364   6.896   6.461
 8332TIP3   OH224938   5.528   7.163   1.438
 8332TIP3    H124939   5.496   7.183   1.350
 8332TIP3    H224940   5.531   7.248   1.483
 8333TIP3   OH224941   0.985   0.184   4.203
 8333TIP3    H124942   0.913   0.239   4.235
 8333TIP3    H224943   0.945   0.129   4.135
 8334TIP3   OH224944   5.935   3.159   0.315
 8334TIP3    H124945   5.859   3.141   0.370
 8334TIP3    H224946   6.006   3.174   0.376
 8335TIP3   OH224947   4.535   2.470   3.624
 8335TIP3    H124948   4.596   2.542   3.640
 8335TIP3    H224949   4.449   2.511   3.628
 8336TIP3   OH224950   7.040   1.179   1.935
 8336TIP3    H124951   7.025   1.090   1.967
 8336TIP3    H224952   7.104   1.170   1.865
 8337TIP3   OH224953   5.215   0.435   5.230
 8337TIP3    H124954   5.183   0.522   5.204
 8337TIP3    H224955   5.212   0.436   5.325
 8338TIP3   OH224956   7.497   3.309   1.939
 8338TIP3    H124957   7.590   3.288   1.926
 8338TIP3    H224958   7.497   3.376   2.007
 8339TIP3   OH224959   4.729   2.292   1.940
 8339TIP3    H124960   4.665   2.228   1.908
 8339TIP3    H224961   4.715   2.369   1.885
 8340TIP3   OH224962   5.434   3.364   6.430
 8340TIP3    H124963   5.436   3.448   6.475
 8340TIP3    H224964   5.521   3.326   6.447
 8341TIP3   OH224965   1.175   2.467   2.645
 8341TIP3    H124966   1.205   2.555   2.623
 8341TIP3    H224967   1.081   2.476   2.658
 8342TIP3   OH224968   2.737   5.568   3.000
 8342TIP3    H124969   2.808   5.542   2.941
 8342TIP3    H224970   2.702   5.648   2.962
 8343TIP3   OH224971   1.037   5.307   1.632
 8343TIP3    H124972   0.980   5.358   1.573
 8343TIP3    H224973   1.034   5.218   1.597
 8344TIP3   OH224974   4.397   3.864   3.185
 8344TIP3    H124975   4.316   3.833   3.226
 8344TIP3    H224976   4.465   3.807   3.220
 8345TIP3   OH224977   1.495   2.766   6.502
 8345TIP3    H124978   1.509   2.683   6.456
 8345TIP3    H224979   1.422   2.807   6.455
 8346TIP3   OH224980   1.336   4.226   4.564
 8346TIP3    H124981   1.378   4.310   4.580
 8346TIP3    H224982   1.245   4.247   4.546
 8347TIP3   OH224983   2.775   6.905   0.794
 8347TIP3    H124984   2.680   6.889   0.791
 8347TIP3    H224985   2.809   6.837   0.852
 8348TIP3   OH224986   6.412   5.119   5.888
 8348TIP3    H124987   6.380   5.208   5.871
 8348TIP3    H224988   6.334   5.070   5.916
 8349TIP3   OH224989   7.792   1.035   3.743
 8349TIP3    H124990   7.853   0.989   3.685
 8349TIP3    H224991   7.779   1.120   3.702
 8350TIP3   OH224992   8.108   5.730   2.782
 8350TIP3    H124993   8.042   5.791   2.813
 8350TIP3    H224994   8.059   5.652   2.757
 8351TIP3   OH224995   7.138   4.580   0.686
 8351TIP3    H124996   7.191   4.656   0.664
 8351TIP3    H224997   7.190   4.505   0.657
 8352TIP3   OH224998   6.019   1.001   4.880
 8352TIP3    H124999   6.106   1.039   4.867
 8352TIP3    H225000   5.978   1.007   4.794
 8353TIP3   OH225001   6.924   4.870   3.774
 8353TIP3    H125002   6.995   4.899   3.830
 8353TIP3    H225003   6.967   4.841   3.693
 8354TIP3   OH225004   7.224   4.693   1.993
 8354TIP3    H125005   7.260   4.652   2.071
 8354TIP3    H225006   7.159   4.631   1.961
 8355TIP3   OH225007   6.488  -0.029   2.219
 8355TIP3    H125008   6.505   0.009   2.133
 8355TIP3    H225009   6.553   0.012   2.276
 8356TIP3   OH225010   0.360   3.614   3.681
 8356TIP3    H125011   0.445   3.577   3.659
 8356TIP3    H225012   0.377   3.668   3.759
 8357TIP3   OH225013   7.973   5.473   6.433
 8357TIP3    H125014   8.025   5.551   6.452
 8357TIP3    H225015   7.884   5.495   6.460
 8358TIP3   OH225016   0.079   5.171   3.801
 8358TIP3    H125017  -0.010   5.135   3.808
 8358TIP3    H225018   0.135   5.102   3.836
 8359TIP3   OH225019   1.692   0.103   2.721
 8359TIP3    H125020   1.649   0.126   2.639
 8359TIP3    H225021   1.744   0.181   2.743
 8360TIP3   OH225022   0.431   6.031   6.374
 8360TIP3    H125023   0.464   6.117   6.349
 8360TIP3    H225024   0.484   5.969   6.325
 8361TIP3   OH225025   7.115   6.577   1.193
 8361TIP3    H125026   7.026   6.606   1.172
 8361TIP3    H225027   7.167   6.657   1.190
 8362TIP3   OH225028   3.034   3.402   5.075
 8362TIP3    H125029   2.966   3.399   5.142
 8362TIP3    H225030   3.101   3.340   5.104
 8363TIP3   OH225031   4.656   1.339   6.056
 8363TIP3    H125032   4.588   1.385   6.005
 8363TIP3    H225033   4.616   1.255   6.078
 8364TIP3   OH225034   7.569   1.387   4.980
 8364TIP3    H125035   7.564   1.372   4.885
 8364TIP3    H225036   7.597   1.478   4.989
 8365TIP3   OH225037   0.839   4.316   5.531
 8365TIP3    H125038   0.900   4.307   5.603
 8365TIP3    H225039   0.827   4.411   5.522
 8366TIP3   OH225040   6.852   0.202   0.315
 8366TIP3    H125041   6.874   0.140   0.245
 8366TIP3    H225042   6.918   0.187   0.382
 8367TIP3   OH225043   3.372   5.313   3.669
 8367TIP3    H125044   3.301   5.285   3.612
 8367TIP3    H225045   3.436   5.353   3.610
 8368TIP3   OH225046   0.652   7.445   2.886
 8368TIP3    H125047   0.579   7.474   2.831
 8368TIP3    H225048   0.646   7.500   2.964
 8369TIP3   OH225049   8.296   0.800   0.968
 8369TIP3    H125050   8.203   0.821   0.975
 8369TIP3    H225051   8.314   0.806   0.874
 8370TIP3   OH225052   7.587   1.057   5.512
 8370TIP3    H125053   7.524   1.046   5.583
 8370TIP3    H225054   7.613   0.968   5.489
 8371TIP3   OH225055   5.348   0.930   5.951
 8371TIP3    H125056   5.357   0.974   6.036
 8371TIP3    H225057   5.414   0.860   5.953
 8372TIP3   OH225058   6.397   0.198   5.891
 8372TIP3    H125059   6.344   0.201   5.812
 8372TIP3    H225060   6.483   0.231   5.864
 8373TIP3   OH225061   0.401   7.711   4.571
 8373TIP3    H125062   0.326   7.688   4.516
 8373TIP3    H225063   0.461   7.637   4.561
 8374TIP3   OH225064   3.626   6.050   1.131
 8374TIP3    H125065   3.605   6.012   1.217
 8374TIP3    H225066   3.660   6.137   1.151
 8375TIP3   OH225067   4.555   6.291   1.521
 8375TIP3    H125068   4.492   6.256   1.583
 8375TIP3    H225069   4.584   6.374   1.560
 8376TIP3   OH225070   5.215   6.493   1.987
 8376TIP3    H125071   5.256   6.483   1.901
 8376TIP3    H225072   5.127   6.458   1.976
 8377TIP3   OH225073   1.481   7.685   2.022
 8377TIP3    H125074   1.548   7.747   1.993
 8377TIP3    H225075   1.407   7.740   2.048
 8378TIP3   OH225076   3.701   1.564   2.079
 8378TIP3    H125077   3.615   1.536   2.111
 8378TIP3    H225078   3.698   1.659   2.081
 8379TIP3   OH225079   2.293   5.874   2.257
 8379TIP3    H125080   2.301   5.926   2.177
 8379TIP3    H225081   2.293   5.938   2.328
 8380TIP3   OH225082   0.185   0.857   2.214
 8380TIP3    H125083   0.109   0.878   2.268
 8380TIP3    H225084   0.199   0.763   2.228
 8381TIP3   OH225085   4.460   6.514   6.165
 8381TIP3    H125086   4.429   6.425   6.148
 8381TIP3    H225087   4.495   6.543   6.080
 8382TIP3   OH225088   5.779   7.591   5.281
 8382TIP3    H125089   5.864   7.554   5.300
 8382TIP3    H225090   5.797   7.663   5.220
 8383TIP3   OH225091   7.296   6.981   2.675
 8383TIP3    H125092   7.229   6.976   2.607
 8383TIP3    H225093   7.379   6.987   2.628
 8384TIP3   OH225094   1.867   3.470   3.318
 8384TIP3    H125095   1.841   3.502   3.231
 8384TIP3    H225096   1.786   3.434   3.355
 8385TIP3   OH225097   2.595   2.321   0.254
 8385TIP3    H125098   2.636   2.394   0.210
 8385TIP3    H225099   2.617   2.244   0.201
 8386TIP3   OH225100   5.353   6.750   5.032
 8386TIP3    H125101   5.293   6.677   5.044
 8386TIP3    H225102   5.297   6.823   5.005
 8387TIP3   OH225103   1.214   1.162   0.386
 8387TIP3    H125104   1.243   1.156   0.295
 8387TIP3    H225105   1.128   1.119   0.387
 8388TIP3   OH225106   0.638   3.113   3.933
 8388TIP3    H125107   0.647   3.145   3.843
 8388TIP3    H225108   0.572   3.043   3.927
 8389TIP3   OH225109   4.095   5.777   4.708
 8389TIP3    H125110   4.005   5.788   4.740
 8389TIP3    H225111   4.085   5.734   4.623
 8390TIP3   OH225112   3.953   3.760   3.871
 8390TIP3    H125113   3.940   3.669   3.844
 8390TIP3    H225114   4.015   3.756   3.944
 8391TIP3   OH225115   8.185   7.046   4.759
 8391TIP3    H125116   8.172   7.015   4.849
 8391TIP3    H225117   8.125   7.121   4.751
 8392TIP3   OH225118   4.570   4.989   0.123
 8392TIP3    H125119   4.653   4.980   0.169
 8392TIP3    H225120   4.540   4.899   0.111
 8393TIP3   OH225121   4.505   7.745   6.121
 8393TIP3    H125122   4.521   7.652   6.109
 8393TIP3    H225123   4.587   7.779   6.158
 8394TIP3   OH225124   2.135   2.730   0.211
 8394TIP3    H125125   2.087   2.813   0.220
 8394TIP3    H225126   2.138   2.715   0.117
 8395TIP3   OH225127   1.073   5.729   5.426
 8395TIP3    H125128   1.114   5.754   5.343
 8395TIP3    H225129   1.045   5.812   5.464
 8396TIP3   OH225130   6.071   2.372   4.382
 8396TIP3    H125131   6.136   2.436   4.353
 8396TIP3    H225132   6.119   2.314   4.441
 8397TIP3   OH225133   0.736   4.432   3.031
 8397TIP3    H125134   0.741   4.440   2.936
 8397TIP3    H225135   0.825   4.410   3.059
 8398TIP3   OH225136   3.575   1.665   3.912
 8398TIP3    H125137   3.519   1.717   3.855
 8398TIP3    H225138   3.649   1.722   3.933
 8399TIP3   OH225139   7.545   2.181   5.128
 8399TIP3    H125140   7.547   2.238   5.205
 8399TIP3    H225141   7.626   2.201   5.081
 8400TIP3   OH225142   0.900   4.192   3.317
 8400TIP3    H125143   0.899   4.179   3.411
 8400TIP3    H225144   0.847   4.271   3.303
 8401TIP3   OH225145   4.681   6.308   0.364
 8401TIP3    H125146   4.687   6.258   0.446
 8401TIP3    H225147   4.725   6.390   0.383
 8402TIP3   OH225148   6.101   2.356   0.780
 8402TIP3    H125149   6.168   2.341   0.847
 8402TIP3    H225150   6.145   2.411   0.714
 8403TIP3   OH225151   1.446   3.383   1.168
 8403TIP3    H125152   1.403   3.303   1.198
 8403TIP3    H225153   1.465   3.432   1.249
 8404TIP3   OH225154   4.865   0.301   5.368
 8404TIP3    H125155   4.851   0.228   5.428
 8404TIP3    H225156   4.948   0.339   5.396
 8405TIP3   OH225157   6.519   3.743   4.326
 8405TIP3    H125158   6.498   3.828   4.288
 8405TIP3    H225159   6.526   3.684   4.251
 8406TIP3   OH225160   2.207   7.020   0.921
 8406TIP3    H125161   2.250   6.935   0.908
 8406TIP3    H225162   2.195   7.026   1.015
 8407TIP3   OH225163   5.162   3.190   2.576
 8407TIP3    H125164   5.147   3.284   2.567
 8407TIP3    H225165   5.175   3.176   2.670
 8408TIP3   OH225166   2.075   5.621   4.754
 8408TIP3    H125167   2.069   5.709   4.717
 8408TIP3    H225168   2.156   5.584   4.718
 8409TIP3   OH225169   0.091   5.715   0.289
 8409TIP3    H125170   0.015   5.699   0.232
 8409TIP3    H225171   0.091   5.641   0.350
 8410TIP3   OH225172   7.975   7.772   6.097
 8410TIP3    H125173   7.971   7.679   6.116
 8410TIP3    H225174   8.056   7.802   6.139
 8411TIP3   OH225175   0.102   4.780   0.149
 8411TIP3    H125176   0.125   4.850   0.088
 8411TIP3    H225177   0.109   4.700   0.096
 8412TIP3   OH225178   7.515   0.566   6.276
 8412TIP3    H125179   7.451   0.515   6.225
 8412TIP3    H225180   7.531   0.644   6.224
 8413TIP3   OH225181   0.940   3.273   1.154
 8413TIP3    H125182   0.923   3.297   1.246
 8413TIP3    H225183   1.009   3.207   1.159
 8414TIP3   OH225184   1.679   3.828   3.691
 8414TIP3    H125185   1.697   3.917   3.721
 8414TIP3    H225186   1.733   3.818   3.612
 8415TIP3   OH225187   5.592   1.609   0.524
 8415TIP3    H125188   5.617   1.598   0.615
 8415TIP3    H225189   5.496   1.615   0.526
 8416TIP3   OH225190   4.619   7.731   2.143
 8416TIP3    H125191   4.669   7.667   2.195
 8416TIP3    H225192   4.538   7.743   2.191
 8417TIP3   OH225193   7.551   3.346   3.128
 8417TIP3    H125194   7.630   3.293   3.122
 8417TIP3    H225195   7.577   3.432   3.093
 8418TIP3   OH225196   7.083   6.514   4.887
 8418TIP3    H125197   7.149   6.493   4.821
 8418TIP3    H225198   7.061   6.606   4.870
 8419TIP3   OH225199   8.015   0.115   3.777
 8419TIP3    H125200   7.924   0.117   3.745
 8419TIP3    H225201   8.063   0.171   3.716
 8420TIP3   OH225202   3.763   6.509   2.025
 8420TIP3    H125203   3.681   6.551   1.997
 8420TIP3    H225204   3.829   6.543   1.964
 8421TIP3   OH225205   5.353   7.456   3.995
 8421TIP3    H125206   5.300   7.378   4.011
 8421TIP3    H225207   5.308   7.501   3.923
 8422TIP3   OH225208   8.126   3.496   4.201
 8422TIP3    H125209   8.092   3.484   4.290
 8422TIP3    H225210   8.104   3.586   4.178
 8423TIP3   OH225211   5.931   1.021   1.222
 8423TIP3    H125212   5.946   1.106   1.265
 8423TIP3    H225213   5.836   1.006   1.232
 8424TIP3   OH225214   7.312   2.324   0.625
 8424TIP3    H125215   7.327   2.268   0.549
 8424TIP3    H225216   7.237   2.285   0.669
 8425TIP3   OH225217   5.340   2.139   5.034
 8425TIP3    H125218   5.292   2.060   5.059
 8425TIP3    H225219   5.404   2.152   5.105
 8426TIP3   OH225220   2.778   6.055   5.798
 8426TIP3    H125221   2.776   6.064   5.703
 8426TIP3    H225222   2.804   6.141   5.830
 8427TIP3   OH225223   3.180   5.539   2.299
 8427TIP3    H125224   3.141   5.486   2.229
 8427TIP3    H225225   3.128   5.519   2.376
 8428TIP3   OH225226   0.393   6.544   2.565
 8428TIP3    H125227   0.467   6.600   2.588
 8428TIP3    H225228   0.343   6.595   2.502
 8429TIP3   OH225229   3.501   6.730   0.950
 8429TIP3    H125230   3.548   6.712   0.869
 8429TIP3    H225231   3.548   6.679   1.017
 8430TIP3   OH225232   1.210   7.486   4.036
 8430TIP3    H125233   1.196   7.434   3.957
 8430TIP3    H225234   1.233   7.421   4.103
 8431TIP3   OH225235   0.791   2.294   5.562
 8431TIP3    H125236   0.823   2.345   5.636
 8431TIP3    H225237   0.858   2.226   5.549
 8432TIP3   OH225238   7.715   6.057   6.512
 8432TIP3    H125239   7.773   6.114   6.461
 8432TIP3    H225240   7.774   5.990   6.548
 8433TIP3   OH225241   6.957   6.319   3.109
 8433TIP3    H125242   6.936   6.368   3.189
 8433TIP3    H225243   6.961   6.386   3.041
 8434TIP3   OH225244   5.022   2.532   2.056
 8434TIP3    H125245   5.110   2.554   2.024
 8434TIP3    H225246   4.975   2.615   2.054
 8435TIP3   OH225247   2.916   1.104   3.857
 8435TIP3    H125248   2.868   1.051   3.794
 8435TIP3    H225249   2.937   1.043   3.928
 8436TIP3   OH225250   6.196   5.185   3.955
 8436TIP3    H125251   6.125   5.156   4.013
 8436TIP3    H225252   6.275   5.157   4.000
 8437TIP3   OH225253   2.967   7.457   2.861
 8437TIP3    H125254   2.991   7.542   2.826
 8437TIP3    H225255   3.038   7.435   2.921
 8438TIP3   OH225256   0.597   3.072   4.234
 8438TIP3    H125257   0.687   3.101   4.226
 8438TIP3    H225258   0.558   3.089   4.148
 8439TIP3   OH225259   5.500   2.343   0.828
 8439TIP3    H125260   5.416   2.297   0.820
 8439TIP3    H225261   5.564   2.273   0.843
 8440TIP3   OH225262   3.684   0.190   5.787
 8440TIP3    H125263   3.655   0.240   5.863
 8440TIP3    H225264   3.773   0.221   5.770
 8441TIP3   OH225265   3.053   0.889   6.290
 8441TIP3    H125266   2.990   0.932   6.232
 8441TIP3    H225267   3.027   0.797   6.289
 8442TIP3   OH225268   2.545   4.635   4.224
 8442TIP3    H125269   2.553   4.608   4.315
 8442TIP3    H225270   2.591   4.568   4.174
 8443TIP3   OH225271   4.479   5.928   1.983
 8443TIP3    H125272   4.532   5.967   1.913
 8443TIP3    H225273   4.504   5.836   1.984
 8444TIP3   OH225274   4.949   2.217   4.474
 8444TIP3    H125275   4.892   2.143   4.494
 8444TIP3    H225276   5.032   2.196   4.518
 8445TIP3   OH225277   7.201   5.723   2.089
 8445TIP3    H125278   7.242   5.655   2.144
 8445TIP3    H225279   7.264   5.795   2.090
 8446TIP3   OH225280   6.082   3.199   3.344
 8446TIP3    H125281   6.118   3.174   3.429
 8446TIP3    H225282   6.148   3.256   3.305
 8447TIP3   OH225283   0.580   0.161   6.724
 8447TIP3    H125284   0.544   0.175   6.811
 8447TIP3    H225285   0.521   0.209   6.665
 8448TIP3   OH225286   0.566   5.586   4.727
 8448TIP3    H125287   0.586   5.657   4.789
 8448TIP3    H225288   0.651   5.548   4.706
 8449TIP3   OH225289   2.796   6.373   0.460
 8449TIP3    H125290   2.809   6.279   0.447
 8449TIP3    H225291   2.743   6.401   0.385
 8450TIP3   OH225292   4.308   6.544   2.336
 8450TIP3    H125293   4.255   6.591   2.271
 8450TIP3    H225294   4.373   6.608   2.365
 8451TIP3   OH225295   6.017   4.931   5.675
 8451TIP3    H125296   5.948   4.980   5.720
 8451TIP3    H225297   6.056   4.878   5.744
 8452TIP3   OH225298   4.502   1.392   6.551
 8452TIP3    H125299   4.485   1.368   6.642
 8452TIP3    H225300   4.416   1.411   6.515
 8453TIP3   OH225301   0.049   5.425   1.366
 8453TIP3    H125302   0.005   5.483   1.304
 8453TIP3    H225303   0.044   5.472   1.450
 8454TIP3   OH225304   5.552   2.327   3.413
 8454TIP3    H125305   5.465   2.311   3.450
 8454TIP3    H225306   5.543   2.409   3.364
 8455TIP3   OH225307   3.024   4.344   6.553
 8455TIP3    H125308   3.093   4.284   6.583
 8455TIP3    H225309   3.072   4.419   6.519
 8456TIP3   OH225310   2.753   3.859   1.419
 8456TIP3    H125311   2.738   3.804   1.342
 8456TIP3    H225312   2.738   3.948   1.387
 8457TIP3   OH225313   6.373   6.341   3.737
 8457TIP3    H125314   6.289   6.302   3.758
 8457TIP3    H225315   6.436   6.292   3.790
 8458TIP3   OH225316   2.596   5.026   3.004
 8458TIP3    H125317   2.673   4.970   3.004
 8458TIP3    H225318   2.522   4.966   2.998
 8459TIP3   OH225319   0.643   2.874   1.150
 8459TIP3    H125320   0.564   2.888   1.098
 8459TIP3    H225321   0.614   2.821   1.225
 8460TIP3   OH225322   6.180   3.418   5.716
 8460TIP3    H125323   6.181   3.511   5.738
 8460TIP3    H225324   6.273   3.395   5.704
 8461TIP3   OH225325   7.822   5.318   2.620
 8461TIP3    H125326   7.736   5.345   2.650
 8461TIP3    H225327   7.836   5.233   2.661
 8462TIP3   OH225328   1.881   6.341   4.616
 8462TIP3    H125329   1.879   6.411   4.551
 8462TIP3    H225330   1.836   6.378   4.692
 8463TIP3   OH225331   7.234   2.837   5.039
 8463TIP3    H125332   7.215   2.857   4.947
 8463TIP3    H225333   7.320   2.795   5.037
 8464TIP3   OH225334   8.214   6.684   1.497
 8464TIP3    H125335   8.143   6.671   1.559
 8464TIP3    H225336   8.282   6.729   1.548
 8465TIP3   OH225337   7.958   4.823   3.993
 8465TIP3    H125338   7.897   4.827   4.066
 8465TIP3    H225339   7.993   4.734   3.997
 8466TIP3   OH225340   8.058   7.708   6.709
 8466TIP3    H125341   8.056   7.803   6.720
 8466TIP3    H225342   8.090   7.695   6.619
 8467TIP3   OH225343   7.410   5.893   4.969
 8467TIP3    H125344   7.391   5.964   4.907
 8467TIP3    H225345   7.470   5.836   4.921
 8468TIP3   OH225346   2.260   4.493   4.923
 8468TIP3    H125347   2.252   4.483   4.828
 8468TIP3    H225348   2.170   4.506   4.954
 8469TIP3   OH225349   6.990   4.644   2.215
 8469TIP3    H125350   7.082   4.633   2.240
 8469TIP3    H225351   6.946   4.568   2.254
 8470TIP3   OH225352   4.883   6.635   2.510
 8470TIP3    H125353   4.845   6.709   2.462
 8470TIP3    H225354   4.977   6.644   2.498
 8471TIP3   OH225355   1.276   6.033   0.581
 8471TIP3    H125356   1.232   6.092   0.642
 8471TIP3    H225357   1.219   6.034   0.503
 8472TIP3   OH225358   4.700   6.868   1.181
 8472TIP3    H125359   4.628   6.875   1.118
 8472TIP3    H225360   4.730   6.959   1.192
 8473TIP3   OH225361   4.667   0.292   5.744
 8473TIP3    H125362   4.712   0.209   5.754
 8473TIP3    H225363   4.731   0.358   5.770
 8474TIP3   OH225364   0.775   5.205   1.267
 8474TIP3    H125365   0.835   5.160   1.207
 8474TIP3    H225366   0.689   5.194   1.227
 8475TIP3   OH225367   2.650   6.145   2.762
 8475TIP3    H125368   2.554   6.139   2.767
 8475TIP3    H225369   2.675   6.189   2.843
 8476TIP3   OH225370   5.273   7.752   4.905
 8476TIP3    H125371   5.345   7.730   4.846
 8476TIP3    H225372   5.301   7.720   4.990
 8477TIP3   OH225373   6.610   2.603   5.804
 8477TIP3    H125374   6.628   2.697   5.813
 8477TIP3    H225375   6.622   2.568   5.893
 8478TIP3   OH225376   4.863   7.602   4.243
 8478TIP3    H125377   4.873   7.577   4.151
 8478TIP3    H225378   4.777   7.643   4.247
 8479TIP3   OH225379   4.315   1.996   0.457
 8479TIP3    H125380   4.318   1.959   0.369
 8479TIP3    H225381   4.375   2.070   0.455
 8480TIP3   OH225382   3.858   4.076   4.417
 8480TIP3    H125383   3.905   4.095   4.335
 8480TIP3    H225384   3.840   4.162   4.454
 8481TIP3   OH225385   1.038   5.639   2.746
 8481TIP3    H125386   1.024   5.732   2.728
 8481TIP3    H225387   0.980   5.594   2.685
 8482TIP3   OH225388   6.253   1.964   4.177
 8482TIP3    H125389   6.222   1.876   4.197
 8482TIP3    H225390   6.206   2.020   4.238
 8483TIP3   OH225391   6.838   7.746   3.786
 8483TIP3    H125392   6.755   7.776   3.748
 8483TIP3    H225393   6.869   7.820   3.838
 8484TIP3   OH225394   1.872   6.013   4.420
 8484TIP3    H125395   1.851   6.103   4.393
 8484TIP3    H225396   1.793   5.981   4.462
 8485TIP3   OH225397   8.260   2.513   2.951
 8485TIP3    H125398   8.345   2.489   2.915
 8485TIP3    H225399   8.204   2.524   2.874
 8486TIP3   OH225400   6.782   1.090   1.729
 8486TIP3    H125401   6.851   1.029   1.703
 8486TIP3    H225402   6.718   1.035   1.774
 8487TIP3   OH225403   2.763   4.860   4.216
 8487TIP3    H125404   2.804   4.776   4.238
 8487TIP3    H225405   2.681   4.861   4.264
 8488TIP3   OH225406   3.927   4.015   6.450
 8488TIP3    H125407   3.929   3.995   6.356
 8488TIP3    H225408   3.872   3.946   6.487
 8489TIP3   OH225409   5.555   6.893   0.071
 8489TIP3    H125410   5.605   6.897   0.153
 8489TIP3    H225411   5.493   6.822   0.084
 8490TIP3   OH225412   4.578   5.636   3.737
 8490TIP3    H125413   4.556   5.547   3.708
 8490TIP3    H225414   4.673   5.641   3.729
 8491TIP3   OH225415   0.789   2.766   0.844
 8491TIP3    H125416   0.837   2.828   0.789
 8491TIP3    H225417   0.734   2.821   0.900
 8492TIP3   OH225418   0.980   6.647   0.502
 8492TIP3    H125419   0.925   6.570   0.489
 8492TIP3    H225420   0.971   6.698   0.422
 8493TIP3   OH225421   5.872   7.378   3.720
 8493TIP3    H125422   5.798   7.422   3.762
 8493TIP3    H225423   5.833   7.303   3.675
 8494TIP3   OH225424   3.794   1.221   2.297
 8494TIP3    H125425   3.770   1.310   2.325
 8494TIP3    H225426   3.869   1.199   2.353
 8495TIP3   OH225427   0.256   4.283   3.372
 8495TIP3    H125428   0.335   4.298   3.319
 8495TIP3    H225429   0.255   4.188   3.386
 8496TIP3   OH225430   7.261   3.755   0.786
 8496TIP3    H125431   7.199   3.773   0.857
 8496TIP3    H225432   7.233   3.670   0.751
 8497TIP3   OH225433   3.610   0.370   3.450
 8497TIP3    H125434   3.578   0.431   3.516
 8497TIP3    H225435   3.649   0.427   3.382
 8498TIP3   OH225436   7.213   4.083   0.166
 8498TIP3    H125437   7.292   4.135   0.173
 8498TIP3    H225438   7.226   4.011   0.228
 8499TIP3   OH225439   3.632   4.014   1.819
 8499TIP3    H125440   3.578   4.090   1.841
 8499TIP3    H225441   3.680   3.994   1.899
 8500TIP3   OH225442   6.680   2.768   3.681
 8500TIP3    H125443   6.679   2.845   3.625
 8500TIP3    H225444   6.769   2.764   3.715
 8501TIP3   OH225445   1.491   7.774   5.650
 8501TIP3    H125446   1.564   7.761   5.590
 8501TIP3    H225447   1.413   7.765   5.594
 8502TIP3   OH225448   5.332   0.225   1.862
 8502TIP3    H125449   5.360   0.295   1.802
 8502TIP3    H225450   5.375   0.245   1.945
 8503TIP3   OH225451   7.032   2.720   3.517
 8503TIP3    H125452   6.984   2.664   3.578
 8503TIP3    H225453   7.017   2.681   3.431
 8504TIP3   OH225454   6.619   4.161   5.019
 8504TIP3    H125455   6.705   4.172   5.060
 8504TIP3    H225456   6.597   4.247   4.985
 8505TIP3   OH225457   4.212   6.001   1.145
 8505TIP3    H125458   4.181   5.911   1.138
 8505TIP3    H225459   4.162   6.038   1.218
 8506TIP3   OH225460   7.141   5.358   5.769
 8506TIP3    H125461   7.087   5.362   5.690
 8506TIP3    H225462   7.103   5.287   5.820
 8507TIP3   OH225463   1.681   3.134   0.638
 8507TIP3    H125464   1.642   3.196   0.576
 8507TIP3    H225465   1.627   3.144   0.717
 8508TIP3   OH225466   3.171   5.068   2.351
 8508TIP3    H125467   3.131   5.154   2.361
 8508TIP3    H225468   3.171   5.052   2.257
 8509TIP3   OH225469   1.443   1.015   6.458
 8509TIP3    H125470   1.426   1.085   6.395
 8509TIP3    H225471   1.451   1.060   6.542
 8510TIP3   OH225472   3.139   6.973   5.675
 8510TIP3    H125473   3.197   6.974   5.751
 8510TIP3    H225474   3.051   6.962   5.712
 8511TIP3   OH225475   3.508   1.687   5.911
 8511TIP3    H125476   3.484   1.651   5.996
 8511TIP3    H225477   3.594   1.728   5.926
 8512TIP3   OH225478   0.266   4.904   3.014
 8512TIP3    H125479   0.361   4.889   3.024
 8512TIP3    H225480   0.259   4.993   2.979
 8513TIP3   OH225481   1.113   5.859   6.366
 8513TIP3    H125482   1.151   5.808   6.294
 8513TIP3    H225483   1.173   5.933   6.378
 8514TIP3   OH225484   1.014   3.993   1.139
 8514TIP3    H125485   1.037   3.901   1.148
 8514TIP3    H225486   1.091   4.033   1.100
 8515TIP3   OH225487   7.805   3.110   1.590
 8515TIP3    H125488   7.867   3.060   1.538
 8515TIP3    H225489   7.733   3.049   1.607
 8516TIP3   OH225490   6.768   4.736   3.200
 8516TIP3    H125491   6.848   4.689   3.179
 8516TIP3    H225492   6.768   4.811   3.140
 8517TIP3   OH225493   7.807   3.821   5.774
 8517TIP3    H125494   7.898   3.839   5.751
 8517TIP3    H225495   7.784   3.744   5.721
 8518TIP3   OH225496   8.176   2.956   1.261
 8518TIP3    H125497   8.087   2.941   1.290
 8518TIP3    H225498   8.197   3.044   1.289
 8519TIP3   OH225499   1.693   2.871   0.882
 8519TIP3    H125500   1.678   2.861   0.788
 8519TIP3    H225501   1.721   2.784   0.911
 8520TIP3   OH225502   7.350   3.756   1.149
 8520TIP3    H125503   7.287   3.712   1.206
 8520TIP3    H225504   7.298   3.783   1.073
 8521TIP3   OH225505   4.786   5.449   4.629
 8521TIP3    H125506   4.855   5.387   4.650
 8521TIP3    H225507   4.821   5.501   4.557
 8522TIP3   OH225508   3.089   2.314   2.946
 8522TIP3    H125509   3.063   2.336   2.856
 8522TIP3    H225510   3.041   2.234   2.966
 8523TIP3   OH225511   0.766   5.468   2.162
 8523TIP3    H125512   0.831   5.517   2.111
 8523TIP3    H225513   0.801   5.379   2.165
 8524TIP3   OH225514   1.533   5.133   5.883
 8524TIP3    H125515   1.560   5.111   5.972
 8524TIP3    H225516   1.442   5.102   5.878
 8525TIP3   OH225517   6.723   3.734   1.627
 8525TIP3    H125518   6.662   3.666   1.601
 8525TIP3    H225519   6.743   3.716   1.718
 8526TIP3   OH225520   4.345   5.529   3.310
 8526TIP3    H125521   4.432   5.550   3.277
 8526TIP3    H225522   4.296   5.503   3.232
 8527TIP3   OH225523   5.202   3.592   5.688
 8527TIP3    H125524   5.230   3.550   5.607
 8527TIP3    H225525   5.209   3.686   5.670
 8528TIP3   OH225526   1.655   1.674   3.606
 8528TIP3    H125527   1.635   1.665   3.699
 8528TIP3    H225528   1.723   1.608   3.590
 8529TIP3   OH225529   1.007   0.019   0.896
 8529TIP3    H125530   0.956   0.058   0.825
 8529TIP3    H225531   1.094   0.056   0.886
 8530TIP3   OH225532   3.984   3.087   5.180
 8530TIP3    H125533   3.890   3.085   5.198
 8530TIP3    H225534   4.014   2.998   5.197
 8531TIP3   OH225535   4.829   1.064   0.438
 8531TIP3    H125536   4.881   1.123   0.384
 8531TIP3    H225537   4.750   1.115   0.459
 8532TIP3   OH225538   6.521   5.752   5.626
 8532TIP3    H125539   6.551   5.714   5.544
 8532TIP3    H225540   6.548   5.690   5.693
 8533TIP3   OH225541   3.434   4.665   3.681
 8533TIP3    H125542   3.374   4.638   3.751
 8533TIP3    H225543   3.476   4.745   3.715
 8534TIP3   OH225544   1.792   1.452   5.048
 8534TIP3    H125545   1.790   1.463   4.953
 8534TIP3    H225546   1.730   1.517   5.081
 8535TIP3   OH225547   6.053   3.621   6.608
 8535TIP3    H125548   6.081   3.638   6.518
 8535TIP3    H225549   6.115   3.555   6.640
 8536TIP3   OH225550   6.380   5.001   0.662
 8536TIP3    H125551   6.471   5.030   0.668
 8536TIP3    H225552   6.385   4.914   0.622
 8537TIP3   OH225553   2.824   4.485   3.624
 8537TIP3    H125554   2.898   4.505   3.566
 8537TIP3    H225555   2.827   4.390   3.636
 8538TIP3   OH225556   4.766   6.112   0.069
 8538TIP3    H125557   4.757   6.104  -0.026
 8538TIP3    H225558   4.693   6.061   0.104
 8539TIP3   OH225559   2.768   0.511   0.957
 8539TIP3    H125560   2.821   0.475   1.029
 8539TIP3    H225561   2.721   0.436   0.923
 8540TIP3   OH225562   7.099   0.448   0.434
 8540TIP3    H125563   7.145   0.470   0.353
 8540TIP3    H225564   7.167   0.447   0.501
 8541TIP3   OH225565   3.896   4.150   5.167
 8541TIP3    H125566   3.925   4.059   5.161
 8541TIP3    H225567   3.830   4.150   5.237
 8542TIP3   OH225568   2.552   1.762   3.913
 8542TIP3    H125569   2.632   1.709   3.921
 8542TIP3    H225570   2.481   1.700   3.929
 8543TIP3   OH225571   0.643   7.193   0.185
 8543TIP3    H125572   0.649   7.141   0.265
 8543TIP3    H225573   0.579   7.146   0.131
 8544TIP3   OH225574   1.993   5.685   2.614
 8544TIP3    H125575   1.966   5.594   2.607
 8544TIP3    H225576   2.066   5.693   2.553
 8545TIP3   OH225577   2.462   5.342   2.528
 8545TIP3    H125578   2.547   5.301   2.512
 8545TIP3    H225579   2.479   5.406   2.597
 8546TIP3   OH225580   0.232   1.379   5.032
 8546TIP3    H125581   0.282   1.453   5.067
 8546TIP3    H225582   0.257   1.305   5.086
 8547TIP3   OH225583   1.550   6.194   6.395
 8547TIP3    H125584   1.484   6.134   6.359
 8547TIP3    H225585   1.552   6.173   6.488
 8548TIP3   OH225586   5.131   1.362   1.299
 8548TIP3    H125587   5.156   1.317   1.380
 8548TIP3    H225588   5.142   1.455   1.319
 8549TIP3   OH225589   6.689   0.295   6.086
 8549TIP3    H125590   6.628   0.360   6.121
 8549TIP3    H225591   6.639   0.214   6.082
 8550TIP3   OH225592   5.172   5.660   1.598
 8550TIP3    H125593   5.209   5.608   1.669
 8550TIP3    H225594   5.146   5.596   1.532
 8551TIP3   OH225595   1.100   6.325   3.115
 8551TIP3    H125596   1.164   6.396   3.123
 8551TIP3    H225597   1.076   6.303   3.205
 8552TIP3   OH225598   4.968   5.684   4.781
 8552TIP3    H125599   4.919   5.649   4.706
 8552TIP3    H225600   4.908   5.673   4.855
 8553TIP3   OH225601   1.682   6.644   3.478
 8553TIP3    H125602   1.734   6.611   3.552
 8553TIP3    H225603   1.684   6.572   3.414
 8554TIP3   OH225604   0.452   4.097   2.875
 8554TIP3    H125605   0.422   4.186   2.894
 8554TIP3    H225606   0.457   4.093   2.780
 8555TIP3   OH225607   2.261   6.026   4.714
 8555TIP3    H125608   2.172   6.061   4.720
 8555TIP3    H225609   2.250   5.939   4.676
 8556TIP3   OH225610   6.487   0.404   5.338
 8556TIP3    H125611   6.474   0.360   5.255
 8556TIP3    H225612   6.538   0.483   5.316
 8557TIP3   OH225613   0.197   4.927   4.577
 8557TIP3    H125614   0.141   4.965   4.508
 8557TIP3    H225615   0.280   4.972   4.567
 8558TIP3   OH225616   5.913   4.323   0.427
 8558TIP3    H125617   5.931   4.236   0.462
 8558TIP3    H225618   5.882   4.307   0.338
 8559TIP3   OH225619   7.875   6.679   2.375
 8559TIP3    H125620   7.940   6.610   2.361
 8559TIP3    H225621   7.816   6.643   2.442
 8560TIP3   OH225622   5.053   0.767   4.646
 8560TIP3    H125623   5.118   0.697   4.651
 8560TIP3    H225624   4.972   0.723   4.620
 8561TIP3   OH225625   0.917   2.383   2.715
 8561TIP3    H125626   0.912   2.416   2.804
 8561TIP3    H225627   0.825   2.377   2.686
 8562TIP3   OH225628   6.370   6.738   2.131
 8562TIP3    H125629   6.446   6.746   2.190
 8562TIP3    H225630   6.387   6.803   2.063
 8563TIP3   OH225631   6.729   2.935   4.697
 8563TIP3    H125632   6.722   3.031   4.703
 8563TIP3    H225633   6.639   2.906   4.683
 8564TIP3   OH225634   8.177   6.517   2.157
 8564TIP3    H125635   8.192   6.591   2.215
 8564TIP3    H225636   8.137   6.450   2.212
 8565TIP3   OH225637   5.350   0.080   1.004
 8565TIP3    H125638   5.334   0.102   1.096
 8565TIP3    H225639   5.443   0.099   0.991
 8566TIP3   OH225640   5.806   4.965   6.498
 8566TIP3    H125641   5.743   4.989   6.565
 8566TIP3    H225642   5.779   5.014   6.420
 8567TIP3   OH225643   8.126   5.244   5.053
 8567TIP3    H125644   8.148   5.334   5.077
 8567TIP3    H225645   8.158   5.192   5.127
 8568TIP3   OH225646   2.217   4.379   6.583
 8568TIP3    H125647   2.311   4.399   6.587
 8568TIP3    H225648   2.181   4.444   6.523
 8569TIP3   OH225649   0.829   1.457   4.534
 8569TIP3    H125650   0.878   1.482   4.612
 8569TIP3    H225651   0.896   1.433   4.470
 8570TIP3   OH225652   1.942   4.163   2.060
 8570TIP3    H125653   2.014   4.183   2.000
 8570TIP3    H225654   1.961   4.215   2.138
 8571TIP3   OH225655   5.405   1.694   5.222
 8571TIP3    H125656   5.412   1.620   5.282
 8571TIP3    H225657   5.315   1.692   5.191
 8572TIP3   OH225658   6.710   4.832   4.367
 8572TIP3    H125659   6.779   4.817   4.431
 8572TIP3    H225660   6.745   4.899   4.309
 8573TIP3   OH225661   1.992   3.069   5.744
 8573TIP3    H125662   1.897   3.069   5.751
 8573TIP3    H225663   2.019   2.982   5.776
 8574TIP3   OH225664   4.337   1.419   2.172
 8574TIP3    H125665   4.426   1.446   2.150
 8574TIP3    H225666   4.281   1.474   2.117
 8575TIP3   OH225667   5.402   7.052   5.516
 8575TIP3    H125668   5.368   7.033   5.428
 8575TIP3    H225669   5.325   7.078   5.566
 8576TIP3   OH225670   5.448   5.466   4.622
 8576TIP3    H125671   5.415   5.390   4.572
 8576TIP3    H225672   5.484   5.428   4.702
 8577TIP3   OH225673   8.239   1.757   3.934
 8577TIP3    H125674   8.188   1.677   3.920
 8577TIP3    H225675   8.263   1.754   4.027
 8578TIP3   OH225676   0.905   1.345   4.831
 8578TIP3    H125677   0.996   1.374   4.834
 8578TIP3    H225678   0.910   1.250   4.821
 8579TIP3   OH225679   4.914   6.683   6.455
 8579TIP3    H125680   4.987   6.632   6.490
 8579TIP3    H225681   4.948   6.724   6.376
 8580TIP3   OH225682   3.878   2.780   5.437
 8580TIP3    H125683   3.953   2.768   5.378
 8580TIP3    H225684   3.887   2.870   5.469
 8581TIP3   OH225685   2.923   2.277   4.972
 8581TIP3    H125686   2.839   2.281   5.017
 8581TIP3    H225687   2.954   2.187   4.986
 8582TIP3   OH225688   1.505   5.740   4.666
 8582TIP3    H125689   1.434   5.800   4.687
 8582TIP3    H225690   1.579   5.769   4.720
 8583TIP3   OH225691   1.026   7.733   1.588
 8583TIP3    H125692   0.970   7.722   1.665
 8583TIP3    H225693   1.049   7.826   1.588
 8584TIP3   OH225694   5.677   1.203   5.394
 8584TIP3    H125695   5.672   1.239   5.482
 8584TIP3    H225696   5.767   1.173   5.385
 8585TIP3   OH225697   2.395   5.504   6.352
 8585TIP3    H125698   2.440   5.522   6.270
 8585TIP3    H225699   2.304   5.532   6.337
 8586TIP3   OH225700   5.829   4.157   0.893
 8586TIP3    H125701   5.743   4.195   0.874
 8586TIP3    H225702   5.885   4.233   0.910
 8587TIP3   OH225703   0.526   1.715   5.352
 8587TIP3    H125704   0.503   1.807   5.364
 8587TIP3    H225705   0.543   1.683   5.441
 8588TIP3   OH225706   4.147   6.664   2.545
 8588TIP3    H125707   4.238   6.683   2.522
 8588TIP3    H225708   4.096   6.722   2.489
 8589TIP3   OH225709   3.646   5.424   6.286
 8589TIP3    H125710   3.595   5.343   6.293
 8589TIP3    H225711   3.645   5.461   6.374
 8590TIP3   OH225712   2.779   7.461   5.290
 8590TIP3    H125713   2.710   7.480   5.227
 8590TIP3    H225714   2.732   7.428   5.367
 8591TIP3   OH225715   3.144   3.188   3.388
 8591TIP3    H125716   3.093   3.248   3.333
 8591TIP3    H225717   3.173   3.119   3.329
 8592TIP3   OH225718   1.998   3.600   5.978
 8592TIP3    H125719   1.932   3.655   6.021
 8592TIP3    H225720   1.974   3.603   5.885
 8593TIP3   OH225721   4.288   6.334   4.350
 8593TIP3    H125722   4.279   6.324   4.444
 8593TIP3    H225723   4.313   6.426   4.338
 8594TIP3   OH225724   6.768   6.783   5.570
 8594TIP3    H125725   6.830   6.780   5.644
 8594TIP3    H225726   6.782   6.700   5.525
 8595TIP3   OH225727   6.923   4.844   2.024
 8595TIP3    H125728   6.972   4.778   2.074
 8595TIP3    H225729   6.953   4.832   1.934
 8596TIP3   OH225730   5.140   7.286   0.938
 8596TIP3    H125731   5.056   7.296   0.892
 8596TIP3    H225732   5.204   7.327   0.880
 8597TIP3   OH225733   5.625   7.076   2.735
 8597TIP3    H125734   5.706   7.032   2.709
 8597TIP3    H225735   5.557   7.009   2.728
 8598TIP3   OH225736   5.387   1.186   1.685
 8598TIP3    H125737   5.369   1.202   1.777
 8598TIP3    H225738   5.447   1.111   1.685
 8599TIP3   OH225739   6.652   2.280   4.718
 8599TIP3    H125740   6.695   2.306   4.637
 8599TIP3    H225741   6.577   2.339   4.726
 8600TIP3   OH225742   6.287   6.826   5.625
 8600TIP3    H125743   6.231   6.785   5.559
 8600TIP3    H225744   6.336   6.753   5.663
 8601TIP3   OH225745   1.946   0.922   3.624
 8601TIP3    H125746   1.947   1.016   3.605
 8601TIP3    H225747   1.895   0.914   3.704
 8602TIP3   OH225748   5.379   4.127   0.113
 8602TIP3    H125749   5.327   4.088   0.184
 8602TIP3    H225750   5.316   4.139   0.042
 8603TIP3   OH225751   0.219   2.020   5.810
 8603TIP3    H125752   0.144   1.965   5.835
 8603TIP3    H225753   0.290   1.993   5.868
 8604TIP3   OH225754   5.175   6.285   5.871
 8604TIP3    H125755   5.080   6.274   5.869
 8604TIP3    H225756   5.209   6.201   5.900
 8605TIP3   OH225757   1.098   5.073   5.031
 8605TIP3    H125758   1.099   5.010   4.958
 8605TIP3    H225759   1.183   5.116   5.026
 8606TIP3   OH225760   6.490   5.885   0.287
 8606TIP3    H125761   6.416   5.884   0.226
 8606TIP3    H225762   6.470   5.816   0.350
 8607TIP3   OH225763   4.959   7.196   6.203
 8607TIP3    H125764   5.017   7.146   6.145
 8607TIP3    H225765   4.960   7.147   6.285
 8608TIP3   OH225766   7.731   0.948   2.106
 8608TIP3    H125767   7.792   0.874   2.108
 8608TIP3    H225768   7.783   1.022   2.136
 8609TIP3   OH225769   6.208   2.037   0.898
 8609TIP3    H125770   6.196   2.103   0.966
 8609TIP3    H225771   6.238   2.087   0.821
 8610TIP3   OH225772   6.539   6.983   4.013
 8610TIP3    H125773   6.545   7.067   3.967
 8610TIP3    H225774   6.455   6.947   3.987
 8611TIP3   OH225775   4.344   1.057   6.146
 8611TIP3    H125776   4.351   1.097   6.233
 8611TIP3    H225777   4.279   1.110   6.100
 8612TIP3   OH225778   3.955   3.456   3.817
 8612TIP3    H125779   4.022   3.486   3.756
 8612TIP3    H225780   3.941   3.364   3.795
 8613TIP3   OH225781   6.184   4.325   3.260
 8613TIP3    H125782   6.232   4.243   3.273
 8613TIP3    H225783   6.107   4.299   3.208
 8614TIP3   OH225784   0.797   0.796   6.509
 8614TIP3    H125785   0.871   0.737   6.520
 8614TIP3    H225786   0.823   0.876   6.553
 8615TIP3   OH225787   3.764   1.570   5.794
 8615TIP3    H125788   3.701   1.498   5.786
 8615TIP3    H225789   3.792   1.587   5.705
 8616TIP3   OH225790   4.349   7.062   1.585
 8616TIP3    H125791   4.283   7.123   1.553
 8616TIP3    H225792   4.347   6.990   1.523
 8617TIP3   OH225793   5.817   1.000   1.494
 8617TIP3    H125794   5.785   1.084   1.525
 8617TIP3    H225795   5.753   0.973   1.428
 8618TIP3   OH225796   5.029   1.849   3.839
 8618TIP3    H125797   5.084   1.790   3.787
 8618TIP3    H225798   5.017   1.925   3.782
 8619TIP3   OH225799   2.289   7.276   0.028
 8619TIP3    H125800   2.289   7.369   0.051
 8619TIP3    H225801   2.247   7.232   0.101
 8620TIP3   OH225802   1.652   7.793   0.496
 8620TIP3    H125803   1.714   7.850   0.541
 8620TIP3    H225804   1.616   7.737   0.565
 8621TIP3   OH225805   2.924   0.644   6.274
 8621TIP3    H125806   2.863   0.615   6.342
 8621TIP3    H225807   2.942   0.565   6.222
 8622TIP3   OH225808   5.806   1.098   3.765
 8622TIP3    H125809   5.852   1.120   3.684
 8622TIP3    H225810   5.714   1.117   3.747
 8623TIP3   OH225811   5.408   2.038   3.624
 8623TIP3    H125812   5.344   2.107   3.639
 8623TIP3    H225813   5.418   2.034   3.529
 8624TIP3   OH225814   3.169   4.390   3.634
 8624TIP3    H125815   3.207   4.330   3.699
 8624TIP3    H225816   3.175   4.476   3.676
 8625TIP3   OH225817   3.524   0.723   6.387
 8625TIP3    H125818   3.512   0.817   6.375
 8625TIP3    H225819   3.619   0.710   6.384
 8626TIP3   OH225820   2.267   2.846   3.609
 8626TIP3    H125821   2.215   2.924   3.629
 8626TIP3    H225822   2.257   2.834   3.514
 8627TIP3   OH225823   7.441   2.775   0.591
 8627TIP3    H125824   7.460   2.794   0.682
 8627TIP3    H225825   7.503   2.829   0.541
 8628TIP3   OH225826   4.353   7.690   5.134
 8628TIP3    H125827   4.275   7.656   5.089
 8628TIP3    H225828   4.335   7.674   5.227
 8629TIP3   OH225829   2.090   3.764   3.055
 8629TIP3    H125830   2.112   3.854   3.079
 8629TIP3    H225831   1.995   3.763   3.052
 8630TIP3   OH225832   8.133   1.123   6.525
 8630TIP3    H125833   8.054   1.074   6.548
 8630TIP3    H225834   8.115   1.212   6.556
 8631TIP3   OH225835   7.738   4.612   4.370
 8631TIP3    H125836   7.814   4.629   4.426
 8631TIP3    H225837   7.692   4.696   4.365
 8632TIP3   OH225838   1.789   4.723   3.294
 8632TIP3    H125839   1.796   4.686   3.382
 8632TIP3    H225840   1.865   4.781   3.286
 8633TIP3   OH225841   6.519   4.414   1.300
 8633TIP3    H125842   6.547   4.498   1.336
 8633TIP3    H225843   6.579   4.350   1.338
 8634TIP3   OH225844   2.804   2.660   5.027
 8634TIP3    H125845   2.771   2.623   4.945
 8634TIP3    H225846   2.791   2.755   5.017
 8635TIP3   OH225847   7.076   6.213   6.705
 8635TIP3    H125848   7.006   6.240   6.646
 8635TIP3    H225849   7.087   6.119   6.688
 8636TIP3   OH225850   4.525   1.619   4.794
 8636TIP3    H125851   4.493   1.585   4.878
 8636TIP3    H225852   4.499   1.553   4.730
 8637TIP3   OH225853   3.033   6.769   2.739
 8637TIP3    H125854   3.072   6.732   2.817
 8637TIP3    H225855   3.009   6.858   2.764
 8638TIP3   OH225856   6.242   3.775   3.365
 8638TIP3    H125857   6.304   3.721   3.413
 8638TIP3    H225858   6.216   3.721   3.290
 8639TIP3   OH225859   7.727   4.275   5.210
 8639TIP3    H125860   7.683   4.302   5.291
 8639TIP3    H225861   7.656   4.260   5.148
 8640TIP3   OH225862   4.099   6.118   4.741
 8640TIP3    H125863   4.034   6.089   4.677
 8640TIP3    H225864   4.048   6.159   4.811
 8641TIP3   OH225865   5.398   4.844   5.216
 8641TIP3    H125866   5.352   4.766   5.185
 8641TIP3    H225867   5.328   4.902   5.248
 8642TIP3   OH225868   2.538   1.079   5.962
 8642TIP3    H125869   2.468   1.095   6.025
 8642TIP3    H225870   2.618   1.101   6.009
 8643TIP3   OH225871   4.222   4.437   1.533
 8643TIP3    H125872   4.242   4.369   1.596
 8643TIP3    H225873   4.248   4.519   1.576
 8644TIP3   OH225874   2.941   7.301   6.398
 8644TIP3    H125875   2.909   7.270   6.313
 8644TIP3    H225876   2.885   7.257   6.462
 8645TIP3   OH225877   5.189   4.669   4.651
 8645TIP3    H125878   5.112   4.725   4.644
 8645TIP3    H225879   5.154   4.580   4.652
 8646TIP3   OH225880   3.700   5.300   0.175
 8646TIP3    H125881   3.672   5.311   0.084
 8646TIP3    H225882   3.682   5.385   0.215
 8647TIP3   OH225883   0.784   1.978   2.223
 8647TIP3    H125884   0.864   1.936   2.191
 8647TIP3    H225885   0.760   2.040   2.154
 8648TIP3   OH225886   6.249   0.431   0.972
 8648TIP3    H125887   6.302   0.378   1.032
 8648TIP3    H225888   6.237   0.514   1.018
 8649TIP3   OH225889   7.819   4.308   2.848
 8649TIP3    H125890   7.744   4.359   2.877
 8649TIP3    H225891   7.888   4.373   2.834
 8650TIP3   OH225892   4.434   7.354   2.544
 8650TIP3    H125893   4.453   7.296   2.618
 8650TIP3    H225894   4.521   7.377   2.510
 8651TIP3   OH225895   5.550   1.212   3.394
 8651TIP3    H125896   5.519   1.203   3.484
 8651TIP3    H225897   5.644   1.224   3.401
 8652TIP3   OH225898   7.032   4.371   4.879
 8652TIP3    H125899   7.114   4.351   4.924
 8652TIP3    H225900   6.973   4.399   4.949
 8653TIP3   OH225901   3.583   6.913   3.777
 8653TIP3    H125902   3.488   6.907   3.763
 8653TIP3    H225903   3.621   6.877   3.697
 8654TIP3   OH225904   6.011   4.959   1.434
 8654TIP3    H125905   5.979   5.039   1.392
 8654TIP3    H225906   6.106   4.964   1.426
 8655TIP3   OH225907   7.359   0.728   3.808
 8655TIP3    H125908   7.448   0.752   3.782
 8655TIP3    H225909   7.370   0.676   3.887
 8656TIP3   OH225910   7.859   6.499   1.920
 8656TIP3    H125911   7.787   6.480   1.860
 8656TIP3    H225912   7.902   6.414   1.933
 8657TIP3   OH225913   6.073   6.758   1.882
 8657TIP3    H125914   6.099   6.729   1.970
 8657TIP3    H225915   6.145   6.730   1.825
 8658TIP3   OH225916   4.564   4.427   2.333
 8658TIP3    H125917   4.627   4.365   2.298
 8658TIP3    H225918   4.530   4.385   2.412
 8659TIP3   OH225919   2.343   7.464   0.821
 8659TIP3    H125920   2.300   7.438   0.903
 8659TIP3    H225921   2.275   7.511   0.772
 8660TIP3   OH225922   3.720   2.867   1.297
 8660TIP3    H125923   3.810   2.854   1.267
 8660TIP3    H225924   3.724   2.946   1.351
 8661TIP3   OH225925   6.582   4.015   1.637
 8661TIP3    H125926   6.588   3.961   1.716
 8661TIP3    H225927   6.536   3.961   1.574
 8662TIP3   OH225928   7.898   5.855   5.642
 8662TIP3    H125929   7.862   5.809   5.566
 8662TIP3    H225930   7.934   5.936   5.607
 8663TIP3   OH225931   1.206   2.122   4.762
 8663TIP3    H125932   1.239   2.169   4.685
 8663TIP3    H225933   1.228   2.178   4.836
 8664TIP3   OH225934   0.907   3.077   2.304
 8664TIP3    H125935   0.854   3.069   2.383
 8664TIP3    H225936   0.868   3.150   2.256
 8665TIP3   OH225937   2.498   3.225   5.976
 8665TIP3    H125938   2.424   3.175   5.941
 8665TIP3    H225939   2.518   3.181   6.059
 8666TIP3   OH225940   5.930   1.452   6.327
 8666TIP3    H125941   5.996   1.469   6.259
 8666TIP3    H225942   5.965   1.378   6.377
 8667TIP3   OH225943   5.456   1.134   4.850
 8667TIP3    H125944   5.481   1.185   4.928
 8667TIP3    H225945   5.523   1.067   4.842
 8668TIP3   OH225946   2.698   7.646   3.654
 8668TIP3    H125947   2.609   7.673   3.631
 8668TIP3    H225948   2.686   7.577   3.719
 8669TIP3   OH225949   3.156   2.872   6.486
 8669TIP3    H125950   3.133   2.936   6.419
 8669TIP3    H225951   3.240   2.901   6.520
 8670TIP3   OH225952   0.124   2.789   2.640
 8670TIP3    H125953   0.100   2.824   2.725
 8670TIP3    H225954   0.062   2.830   2.579
 8671TIP3   OH225955   8.153   7.515   2.773
 8671TIP3    H125956   8.091   7.587   2.773
 8671TIP3    H225957   8.099   7.436   2.781
 8672TIP3   OH225958   2.800   6.702   5.146
 8672TIP3    H125959   2.832   6.634   5.087
 8672TIP3    H225960   2.709   6.677   5.163
 8673TIP3   OH225961   5.855   3.790   0.552
 8673TIP3    H125962   5.812   3.816   0.470
 8673TIP3    H225963   5.786   3.747   0.602
 8674TIP3   OH225964   1.956   4.944   3.286
 8674TIP3    H125965   1.945   5.003   3.361
 8674TIP3    H225966   2.050   4.941   3.271
 8675TIP3   OH225967   6.454   6.773   4.709
 8675TIP3    H125968   6.402   6.851   4.730
 8675TIP3    H225969   6.530   6.780   4.766
 8676TIP3   OH225970   1.084   3.103   5.231
 8676TIP3    H125971   1.164   3.155   5.220
 8676TIP3    H225972   1.015   3.156   5.190
 8677TIP3   OH225973   2.770   3.056   5.374
 8677TIP3    H125974   2.797   3.148   5.377
 8677TIP3    H225975   2.831   3.012   5.433
 8678TIP3   OH225976   6.090   0.732   4.914
 8678TIP3    H125977   6.103   0.694   5.001
 8678TIP3    H225978   6.125   0.821   4.921
 8679TIP3   OH225979   1.292   0.408   1.488
 8679TIP3    H125980   1.269   0.324   1.527
 8679TIP3    H225981   1.237   0.414   1.409
 8680TIP3   OH225982   1.647   4.955   5.661
 8680TIP3    H125983   1.603   5.016   5.720
 8680TIP3    H225984   1.579   4.931   5.597
 8681TIP3   OH225985   5.798   1.528   1.778
 8681TIP3    H125986   5.719   1.556   1.732
 8681TIP3    H225987   5.861   1.599   1.763
 8682TIP3   OH225988   2.249   7.253   4.210
 8682TIP3    H125989   2.331   7.289   4.243
 8682TIP3    H225990   2.246   7.280   4.118
 8683TIP3   OH225991   0.340   0.463   0.436
 8683TIP3    H125992   0.328   0.431   0.525
 8683TIP3    H225993   0.261   0.513   0.417
 8684TIP3   OH225994   7.262   7.268   2.214
 8684TIP3    H125995   7.193   7.308   2.160
 8684TIP3    H225996   7.264   7.177   2.186
 8685TIP3   OH225997   6.951   2.931   1.326
 8685TIP3    H125998   7.019   2.994   1.350
 8685TIP3    H225999   6.895   2.978   1.265
 8686TIP3   OH226000   6.211   5.416   2.355
 8686TIP3    H126001   6.264   5.469   2.414
 8686TIP3    H226002   6.179   5.477   2.289
 8687TIP3   OH226003   1.301   3.108   1.773
 8687TIP3    H126004   1.289   3.122   1.680
 8687TIP3    H226005   1.393   3.083   1.782
 8688TIP3   OH226006   1.706   3.055   5.774
 8688TIP3    H126007   1.676   2.966   5.793
 8688TIP3    H226008   1.655   3.111   5.833
 8689TIP3   OH226009   0.841   1.318   2.268
 8689TIP3    H126010   0.774   1.305   2.201
 8689TIP3    H226011   0.806   1.388   2.324
 8690TIP3   OH226012   0.896   4.113   3.580
 8690TIP3    H126013   0.897   4.018   3.573
 8690TIP3    H226014   0.894   4.130   3.674
 8691TIP3   OH226015   3.537   2.237   3.611
 8691TIP3    H126016   3.513   2.215   3.521
 8691TIP3    H226017   3.625   2.201   3.623
 8692TIP3   OH226018   0.880   4.487   3.736
 8692TIP3    H126019   0.961   4.447   3.704
 8692TIP3    H226020   0.907   4.573   3.768
 8693TIP3   OH226021   5.561   6.278   5.925
 8693TIP3    H126022   5.640   6.311   5.967
 8693TIP3    H226023   5.495   6.346   5.940
 8694TIP3   OH226024   2.047   1.566   3.963
 8694TIP3    H126025   1.962   1.600   3.935
 8694TIP3    H226026   2.026   1.482   4.004
 8695TIP3   OH226027   1.309   4.050   3.206
 8695TIP3    H126028   1.268   4.066   3.290
 8695TIP3    H226029   1.310   4.135   3.163
 8696TIP3   OH226030   1.973   4.024   0.236
 8696TIP3    H126031   1.884   4.057   0.225
 8696TIP3    H226032   2.024   4.068   0.168
 8697TIP3   OH226033   4.135   4.673   3.905
 8697TIP3    H126034   4.141   4.741   3.838
 8697TIP3    H226035   4.195   4.605   3.875
 8698TIP3   OH226036   5.596   5.825   1.434
 8698TIP3    H126037   5.523   5.778   1.474
 8698TIP3    H226038   5.633   5.877   1.505
 8699TIP3   OH226039   5.899   3.870   2.732
 8699TIP3    H126040   5.902   3.827   2.647
 8699TIP3    H226041   5.945   3.811   2.792
 8700TIP3   OH226042   2.288   1.544   1.194
 8700TIP3    H126043   2.363   1.562   1.138
 8700TIP3    H226044   2.304   1.456   1.228
 8701TIP3   OH226045   7.328   5.726   5.579
 8701TIP3    H126046   7.419   5.724   5.609
 8701TIP3    H226047   7.278   5.755   5.656
 8702TIP3   OH226048   7.433   5.443   1.766
 8702TIP3    H126049   7.433   5.409   1.677
 8702TIP3    H226050   7.430   5.365   1.822
 8703TIP3   OH226051   7.993   5.988   3.046
 8703TIP3    H126052   8.049   5.963   3.120
 8703TIP3    H226053   7.930   6.049   3.084
 8704TIP3   OH226054   7.044   6.820   3.844
 8704TIP3    H126055   7.123   6.815   3.898
 8704TIP3    H226056   7.071   6.787   3.759
 8705TIP3   OH226057   2.446   0.672   1.443
 8705TIP3    H126058   2.385   0.602   1.467
 8705TIP3    H226059   2.532   0.634   1.458
 8706TIP3   OH226060   2.971   6.314   3.194
 8706TIP3    H126061   2.948   6.344   3.282
 8706TIP3    H226062   2.937   6.225   3.189
 8707TIP3   OH226063   6.506   4.180   0.844
 8707TIP3    H126064   6.411   4.177   0.857
 8707TIP3    H226065   6.542   4.205   0.929
 8708TIP3   OH226066   2.439   4.138   4.892
 8708TIP3    H126067   2.364   4.091   4.857
 8708TIP3    H226068   2.471   4.084   4.964
 8709TIP3   OH226069   3.034   4.220   2.434
 8709TIP3    H126070   3.088   4.157   2.386
 8709TIP3    H226071   3.097   4.272   2.484
 8710TIP3   OH226072   3.249   6.019   5.198
 8710TIP3    H126073   3.287   6.097   5.157
 8710TIP3    H226074   3.160   6.015   5.163
 8711TIP3   OH226075   0.462   2.695   1.342
 8711TIP3    H126076   0.466   2.723   1.433
 8711TIP3    H226077   0.430   2.772   1.295
 8712TIP3   OH226078  -0.020   7.722   4.712
 8712TIP3    H126079   0.071   7.752   4.701
 8712TIP3    H226080  -0.063   7.794   4.757
 8713TIP3   OH226081   4.765   4.499   5.573
 8713TIP3    H126082   4.828   4.440   5.614
 8713TIP3    H226083   4.735   4.452   5.495
 8714TIP3   OH226084   4.843   1.903   3.417
 8714TIP3    H126085   4.936   1.885   3.429
 8714TIP3    H226086   4.817   1.948   3.498
 8715TIP3   OH226087   4.308   3.299   6.651
 8715TIP3    H126088   4.219   3.320   6.621
 8715TIP3    H226089   4.310   3.330   6.742
 8716TIP3   OH226090   2.593   6.353   4.924
 8716TIP3    H126091   2.539   6.430   4.904
 8716TIP3    H226092   2.557   6.284   4.869
 8717TIP3   OH226093   3.768   0.390   6.673
 8717TIP3    H126094   3.711   0.463   6.696
 8717TIP3    H226095   3.833   0.428   6.613
 8718TIP3   OH226096   0.545   1.742   2.929
 8718TIP3    H126097   0.505   1.725   2.844
 8718TIP3    H226098   0.626   1.691   2.927
 8719TIP3   OH226099   2.843   4.143   4.056
 8719TIP3    H126100   2.912   4.108   3.998
 8719TIP3    H226101   2.777   4.074   4.057
 8720TIP3   OH226102   2.521   0.004   3.813
 8720TIP3    H126103   2.541  -0.072   3.868
 8720TIP3    H226104   2.605   0.048   3.802
 8721TIP3   OH226105   6.165   6.765   2.906
 8721TIP3    H126106   6.200   6.690   2.953
 8721TIP3    H226107   6.136   6.730   2.822
 8722TIP3   OH226108   6.412   2.118   5.750
 8722TIP3    H126109   6.435   2.204   5.714
 8722TIP3    H226110   6.444   2.056   5.685
 8723TIP3   OH226111   5.414   2.948   2.609
 8723TIP3    H126112   5.355   2.888   2.565
 8723TIP3    H226113   5.359   2.992   2.674
 8724TIP3   OH226114   0.819   6.535   2.768
 8724TIP3    H126115   0.846   6.516   2.858
 8724TIP3    H226116   0.831   6.451   2.722
 8725TIP3   OH226117   3.495   2.224   2.511
 8725TIP3    H126118   3.476   2.303   2.461
 8725TIP3    H226119   3.410   2.195   2.544
 8726TIP3   OH226120   0.171   4.335   3.656
 8726TIP3    H126121   0.244   4.366   3.711
 8726TIP3    H226122   0.206   4.337   3.567
 8727TIP3   OH226123   5.276   1.627   6.505
 8727TIP3    H126124   5.320   1.630   6.420
 8727TIP3    H226125   5.318   1.556   6.552
 8728TIP3   OH226126   5.159   4.915   6.660
 8728TIP3    H126127   5.188   4.831   6.693
 8728TIP3    H226128   5.133   4.898   6.569
 8729TIP3   OH226129   0.526   6.782   3.169
 8729TIP3    H126130   0.564   6.855   3.217
 8729TIP3    H226131   0.436   6.776   3.201
 8730TIP3   OH226132   3.661   3.044   2.680
 8730TIP3    H126133   3.729   2.998   2.630
 8730TIP3    H226134   3.610   3.091   2.613
 8731TIP3   OH226135   2.079   5.836   4.519
 8731TIP3    H126136   2.142   5.799   4.457
 8731TIP3    H226137   2.035   5.905   4.469
 8732TIP3   OH226138   0.598   0.171   3.535
 8732TIP3    H126139   0.582   0.264   3.519
 8732TIP3    H226140   0.678   0.151   3.487
 8733TIP3   OH226141   6.081   2.662   0.568
 8733TIP3    H126142   6.119   2.593   0.514
 8733TIP3    H226143   6.156   2.701   0.613
 8734TIP3   OH226144   6.934   7.241   2.636
 8734TIP3    H126145   6.945   7.267   2.727
 8734TIP3    H226146   7.015   7.269   2.593
 8735TIP3   OH226147   5.508   0.678   3.367
 8735TIP3    H126148   5.566   0.753   3.381
 8735TIP3    H226149   5.534   0.615   3.433
 8736TIP3   OH226150   2.027   0.235  -0.006
 8736TIP3    H126151   2.099   0.238   0.057
 8736TIP3    H226152   1.949   0.220   0.048
 8737TIP3   OH226153   5.747   5.763   5.205
 8737TIP3    H126154   5.729   5.675   5.172
 8737TIP3    H226155   5.669   5.786   5.256
 8738TIP3   OH226156   5.497   0.541   3.135
 8738TIP3    H126157   5.486   0.595   3.213
 8738TIP3    H226158   5.582   0.499   3.147
 8739TIP3   OH226159   6.622   3.992   3.902
 8739TIP3    H126160   6.625   4.018   3.810
 8739TIP3    H226161   6.708   3.953   3.919
 8740TIP3   OH226162   6.629   1.586   3.981
 8740TIP3    H126163   6.712   1.548   3.951
 8740TIP3    H226164   6.648   1.617   4.070
 8741TIP3   OH226165   5.664   7.095   1.870
 8741TIP3    H126166   5.585   7.040   1.871
 8741TIP3    H226167   5.680   7.116   1.962
 8742TIP3   OH226168   3.940   3.053   6.213
 8742TIP3    H126169   3.917   2.962   6.193
 8742TIP3    H226170   3.894   3.104   6.146
 8743TIP3   OH226171   4.477   5.798   4.478
 8743TIP3    H126172   4.455   5.831   4.391
 8743TIP3    H226173   4.394   5.800   4.526
 8744TIP3   OH226174   5.040   6.252   2.131
 8744TIP3    H126175   4.992   6.206   2.200
 8744TIP3    H226176   5.096   6.184   2.093
 8745TIP3   OH226177   1.299   0.126   5.386
 8745TIP3    H126178   1.371   0.094   5.331
 8745TIP3    H226179   1.264   0.201   5.338
 8746TIP3   OH226180   3.411   2.088   2.085
 8746TIP3    H126181   3.317   2.097   2.103
 8746TIP3    H226182   3.440   2.178   2.069
 8747TIP3   OH226183   8.236   6.597   1.054
 8747TIP3    H126184   8.144   6.588   1.027
 8747TIP3    H226185   8.254   6.691   1.046
 8748TIP3   OH226186   7.473   1.359   6.709
 8748TIP3    H126187   7.413   1.300   6.755
 8748TIP3    H226188   7.425   1.442   6.702
 8749TIP3   OH226189   4.559   7.202   1.284
 8749TIP3    H126190   4.649   7.195   1.251
 8749TIP3    H226191   4.558   7.284   1.333
 8750TIP3   OH226192   3.742   2.275   0.029
 8750TIP3    H126193   3.680   2.204   0.013
 8750TIP3    H226194   3.788   2.248   0.109
 8751TIP3   OH226195   0.988   1.489   4.101
 8751TIP3    H126196   0.979   1.394   4.115
 8751TIP3    H226197   0.958   1.528   4.184
 8752TIP3   OH226198   4.763   1.323   2.028
 8752TIP3    H126199   4.761   1.242   1.976
 8752TIP3    H226200   4.855   1.347   2.032
 8753TIP3   OH226201   7.269   5.753   3.127
 8753TIP3    H126202   7.174   5.767   3.135
 8753TIP3    H226203   7.285   5.752   3.033
 8754TIP3   OH226204   5.131   1.966   1.832
 8754TIP3    H126205   5.042   1.980   1.798
 8754TIP3    H226206   5.135   2.019   1.911
 8755TIP3   OH226207   0.764   5.466   6.466
 8755TIP3    H126208   0.806   5.429   6.544
 8755TIP3    H226209   0.808   5.551   6.454
 8756TIP3   OH226210   1.279   7.422   4.794
 8756TIP3    H126211   1.239   7.508   4.803
 8756TIP3    H226212   1.234   7.382   4.720
 8757TIP3   OH226213   5.330   4.050   4.261
 8757TIP3    H126214   5.397   3.987   4.235
 8757TIP3    H226215   5.287   4.076   4.180
 8758TIP3   OH226216   0.089   3.762   4.023
 8758TIP3    H126217   0.008   3.783   4.071
 8758TIP3    H226218   0.118   3.680   4.062
 8759TIP3   OH226219   6.410   3.106   4.485
 8759TIP3    H126220   6.423   3.025   4.535
 8759TIP3    H226221   6.442   3.085   4.397
 8760TIP3   OH226222   1.178   0.711   3.577
 8760TIP3    H126223   1.271   0.719   3.596
 8760TIP3    H226224   1.146   0.648   3.642
 8761TIP3   OH226225   7.846   5.542   3.196
 8761TIP3    H126226   7.860   5.517   3.105
 8761TIP3    H226227   7.840   5.637   3.195
 8762TIP3   OH226228   4.758   3.062   6.731
 8762TIP3    H126229   4.836   3.051   6.677
 8762TIP3    H226230   4.691   3.011   6.686
 8763TIP3   OH226231   1.028   6.839   5.324
 8763TIP3    H126232   0.996   6.891   5.397
 8763TIP3    H226233   0.950   6.816   5.274
 8764TIP3   OH226234   3.277   0.279   5.192
 8764TIP3    H126235   3.278   0.357   5.248
 8764TIP3    H226236   3.283   0.206   5.253
 8765TIP3   OH226237   6.140   1.547   4.018
 8765TIP3    H126238   6.138   1.487   3.943
 8765TIP3    H226239   6.048   1.568   4.035
 8766TIP3   OH226240   6.391   6.288   5.475
 8766TIP3    H126241   6.401   6.317   5.384
 8766TIP3    H226242   6.399   6.193   5.471
 8767TIP3   OH226243   3.204   5.417   2.918
 8767TIP3    H126244   3.197   5.323   2.932
 8767TIP3    H226245   3.232   5.452   3.003
 8768TIP3   OH226246   0.396   6.610   3.915
 8768TIP3    H126247   0.364   6.590   4.003
 8768TIP3    H226248   0.436   6.697   3.924
 8769TIP3   OH226249   5.574   3.951   5.191
 8769TIP3    H126250   5.561   4.041   5.161
 8769TIP3    H226251   5.650   3.920   5.141
 8770TIP3   OH226252   7.657   6.185   2.885
 8770TIP3    H126253   7.621   6.214   2.969
 8770TIP3    H226254   7.670   6.091   2.894
 8771TIP3   OH226255   0.704   2.614   0.073
 8771TIP3    H126256   0.797   2.606   0.094
 8771TIP3    H226257   0.671   2.683   0.130
 8772TIP3   OH226258   6.877   6.712   6.678
 8772TIP3    H126259   6.855   6.740   6.767
 8772TIP3    H226260   6.971   6.725   6.671
 8773TIP3   OH226261   5.924   6.780   4.018
 8773TIP3    H126262   5.868   6.771   4.095
 8773TIP3    H226263   5.862   6.784   3.944
 8774TIP3   OH226264   3.694   5.620   4.912
 8774TIP3    H126265   3.761   5.553   4.924
 8774TIP3    H226266   3.654   5.600   4.828
 8775TIP3   OH226267   4.288   2.359   0.396
 8775TIP3    H126268   4.302   2.360   0.490
 8775TIP3    H226269   4.353   2.298   0.362
 8776TIP3   OH226270   0.398   0.338   2.531
 8776TIP3    H126271   0.386   0.433   2.524
 8776TIP3    H226272   0.478   0.320   2.483
 8777TIP3   OH226273   0.696   3.609   6.326
 8777TIP3    H126274   0.645   3.565   6.394
 8777TIP3    H226275   0.769   3.650   6.373
 8778TIP3   OH226276   3.149   6.954   0.350
 8778TIP3    H126277   3.134   7.022   0.283
 8778TIP3    H226278   3.084   6.973   0.418
 8779TIP3   OH226279   3.987   6.919   1.999
 8779TIP3    H126280   4.053   6.988   1.995
 8779TIP3    H226281   4.020   6.851   1.940
 8780TIP3   OH226282   4.432   7.374   1.057
 8780TIP3    H126283   4.417   7.283   1.081
 8780TIP3    H226284   4.378   7.424   1.118
 8781TIP3   OH226285   2.817   2.195   2.015
 8781TIP3    H126286   2.854   2.171   1.929
 8781TIP3    H226287   2.732   2.153   2.017
 8782TIP3   OH226288   3.126   6.879   6.115
 8782TIP3    H126289   3.199   6.876   6.053
 8782TIP3    H226290   3.167   6.892   6.201
 8783TIP3   OH226291   5.274   6.085   2.768
 8783TIP3    H126292   5.286   6.044   2.682
 8783TIP3    H226293   5.248   6.175   2.748
 8784TIP3   OH226294   6.474   4.806   5.193
 8784TIP3    H126295   6.540   4.838   5.255
 8784TIP3    H226296   6.444   4.884   5.147
 8785TIP3   OH226297   4.018   4.317   6.705
 8785TIP3    H126298   3.962   4.273   6.769
 8785TIP3    H226299   3.957   4.356   6.643
 8786TIP3   OH226300   0.454   2.596   5.563
 8786TIP3    H126301   0.546   2.611   5.584
 8786TIP3    H226302   0.440   2.645   5.482
 8787TIP3   OH226303   5.459   3.762   0.336
 8787TIP3    H126304   5.366   3.755   0.312
 8787TIP3    H226305   5.460   3.747   0.430
 8788TIP3   OH226306   7.322   0.039   1.738
 8788TIP3    H126307   7.337   0.006   1.649
 8788TIP3    H226308   7.252   0.104   1.729
 8789TIP3   OH226309   5.984   7.729   3.946
 8789TIP3    H126310   5.903   7.678   3.941
 8789TIP3    H226311   6.014   7.735   3.856
 8790TIP3   OH226312   4.303   1.948   3.936
 8790TIP3    H126313   4.275   1.875   3.880
 8790TIP3    H226314   4.339   2.012   3.876
 8791TIP3   OH226315   6.794   0.229   3.091
 8791TIP3    H126316   6.745   0.179   3.155
 8791TIP3    H226317   6.743   0.309   3.078
 8792TIP3   OH226318   7.532   6.807   4.009
 8792TIP3    H126319   7.592   6.791   3.936
 8792TIP3    H226320   7.584   6.787   4.087
 8793TIP3   OH226321   7.264   5.721   1.423
 8793TIP3    H126322   7.250   5.723   1.518
 8793TIP3    H226323   7.182   5.754   1.386
 8794TIP3   OH226324   0.012   4.158   5.128
 8794TIP3    H126325   0.002   4.211   5.207
 8794TIP3    H226326   0.018   4.068   5.160
 8795TIP3   OH226327   3.222   1.187   6.352
 8795TIP3    H126328   3.241   1.280   6.344
 8795TIP3    H226329   3.243   1.150   6.266
 8796TIP3   OH226330   0.144   1.132   0.092
 8796TIP3    H126331   0.151   1.169   0.004
 8796TIP3    H226332   0.232   1.102   0.112
 8797TIP3   OH226333   3.876   7.069   4.944
 8797TIP3    H126334   3.881   7.001   5.012
 8797TIP3    H226335   3.817   7.032   4.878
 8798TIP3   OH226336   8.283   0.007   3.129
 8798TIP3    H126337   8.335  -0.065   3.164
 8798TIP3    H226338   8.221  -0.035   3.069
 8799TIP3   OH226339   0.901   5.513   1.913
 8799TIP3    H126340   0.951   5.441   1.952
 8799TIP3    H226341   0.952   5.538   1.836
 8800TIP3   OH226342   4.370   3.301   3.053
 8800TIP3    H126343   4.295   3.326   2.999
 8800TIP3    H226344   4.346   3.214   3.087
 8801TIP3   OH226345   1.280   3.071   3.506
 8801TIP3    H126346   1.305   2.994   3.454
 8801TIP3    H226347   1.269   3.036   3.595
 8802TIP3   OH226348   4.164   7.729   1.708
 8802TIP3    H126349   4.204   7.815   1.716
 8802TIP3    H226350   4.072   7.742   1.731
 8803TIP3   OH226351   0.802   0.080   5.388
 8803TIP3    H126352   0.868   0.038   5.444
 8803TIP3    H226353   0.774   0.157   5.438
 8804TIP3   OH226354   5.395   3.029   6.687
 8804TIP3    H126355   5.312   3.056   6.649
 8804TIP3    H226356   5.379   3.024   6.781
 8805TIP3   OH226357   2.522   7.332   0.405
 8805TIP3    H126358   2.492   7.423   0.407
 8805TIP3    H226359   2.590   7.330   0.338
 8806TIP3   OH226360   6.200   1.402   1.856
 8806TIP3    H126361   6.164   1.393   1.767
 8806TIP3    H226362   6.268   1.469   1.847
 8807TIP3   OH226363   7.462   0.353   4.383
 8807TIP3    H126364   7.474   0.322   4.293
 8807TIP3    H226365   7.490   0.280   4.438
 8808TIP3   OH226366   1.545   5.799   6.180
 8808TIP3    H126367   1.600   5.816   6.104
 8808TIP3    H226368   1.591   5.841   6.253
 8809TIP3   OH226369   5.637   6.301   0.904
 8809TIP3    H126370   5.639   6.208   0.883
 8809TIP3    H226371   5.553   6.332   0.868
 8810TIP3   OH226372   6.969   5.802   3.983
 8810TIP3    H126373   6.906   5.730   3.992
 8810TIP3    H226374   7.039   5.765   3.929
 8811TIP3   OH226375   5.194   0.052   6.495
 8811TIP3    H126376   5.125   0.021   6.437
 8811TIP3    H226377   5.275   0.030   6.449
 8812TIP3   OH226378   7.978   5.049   5.300
 8812TIP3    H126379   7.982   4.981   5.367
 8812TIP3    H226380   8.056   5.103   5.316
 8813TIP3   OH226381   0.207   0.549   6.618
 8813TIP3    H126382   0.293   0.574   6.654
 8813TIP3    H226383   0.212   0.574   6.526
 8814TIP3   OH226384   6.330   3.642   4.683
 8814TIP3    H126385   6.371   3.594   4.611
 8814TIP3    H226386   6.366   3.602   4.762
 8815TIP3   OH226387   5.444   1.951   5.327
 8815TIP3    H126388   5.360   1.996   5.331
 8815TIP3    H226389   5.426   1.871   5.278
 8816TIP3   OH226390   7.379   5.263   6.350
 8816TIP3    H126391   7.473   5.271   6.365
 8816TIP3    H226392   7.343   5.348   6.377
 8817TIP3   OH226393   1.382   6.076   4.605
 8817TIP3    H126394   1.326   5.999   4.612
 8817TIP3    H226395   1.323   6.145   4.573
 8818TIP3   OH226396   4.736   4.003   0.106
 8818TIP3    H126397   4.735   3.919   0.153
 8818TIP3    H226398   4.674   4.058   0.153
 8819TIP3   OH226399   6.090   2.185   6.670
 8819TIP3    H126400   6.022   2.118   6.666
 8819TIP3    H226401   6.086   2.219   6.759
 8820TIP3   OH226402   5.727   0.191   0.517
 8820TIP3    H126403   5.803   0.155   0.471
 8820TIP3    H226404   5.693   0.119   0.569
 8821TIP3   OH226405   5.852   5.742   6.009
 8821TIP3    H126406   5.821   5.694   6.086
 8821TIP3    H226407   5.927   5.692   5.977
 8822TIP3   OH226408   4.736   2.045   3.621
 8822TIP3    H126409   4.716   2.125   3.571
 8822TIP3    H226410   4.792   2.075   3.693
 8823TIP3   OH226411   6.490   3.039   2.415
 8823TIP3    H126412   6.539   2.963   2.447
 8823TIP3    H226413   6.438   3.005   2.342
 8824TIP3   OH226414   0.042   0.274   0.658
 8824TIP3    H126415   0.112   0.334   0.683
 8824TIP3    H226416   0.058   0.195   0.709
 8825TIP3   OH226417   1.015   6.480   4.604
 8825TIP3    H126418   0.931   6.469   4.649
 8825TIP3    H226419   1.062   6.544   4.657
 8826TIP3   OH226420   4.264   3.766   4.411
 8826TIP3    H126421   4.347   3.772   4.364
 8826TIP3    H226422   4.212   3.838   4.377
 8827TIP3   OH226423   7.433   3.447   5.048
 8827TIP3    H126424   7.435   3.362   5.092
 8827TIP3    H226425   7.518   3.454   5.005
 8828TIP3   OH226426   1.811   6.449   1.867
 8828TIP3    H126427   1.819   6.355   1.853
 8828TIP3    H226428   1.720   6.470   1.845
 8829TIP3   OH226429   5.941   6.169   0.600
 8829TIP3    H126430   5.857   6.202   0.569
 8829TIP3    H226431   5.919   6.110   0.672
 8830TIP3   OH226432   0.661   7.639   5.766
 8830TIP3    H126433   0.629   7.729   5.771
 8830TIP3    H226434   0.626   7.597   5.845
 8831TIP3   OH226435   7.286   0.706   5.586
 8831TIP3    H126436   7.380   0.692   5.572
 8831TIP3    H226437   7.276   0.801   5.591
 8832TIP3   OH226438   6.806   4.588   5.653
 8832TIP3    H126439   6.788   4.645   5.728
 8832TIP3    H226440   6.719   4.561   5.623
 8833TIP3   OH226441   5.300   4.855   6.088
 8833TIP3    H126442   5.361   4.823   6.022
 8833TIP3    H226443   5.277   4.943   6.059
 8834TIP3   OH226444   8.059   3.234   3.930
 8834TIP3    H126445   7.996   3.274   3.990
 8834TIP3    H226446   8.114   3.307   3.902
 8835TIP3   OH226447   7.969   0.782   3.663
 8835TIP3    H126448   7.915   0.804   3.587
 8835TIP3    H226449   8.058   0.804   3.635
 8836TIP3   OH226450   3.944   5.985   4.517
 8836TIP3    H126451   3.908   5.936   4.591
 8836TIP3    H226452   4.010   5.926   4.479
 8837TIP3   OH226453   3.504   2.726   1.241
 8837TIP3    H126454   3.519   2.708   1.148
 8837TIP3    H226455   3.584   2.771   1.270
 8838TIP3   OH226456   7.889   4.159   4.938
 8838TIP3    H126457   7.906   4.198   5.024
 8838TIP3    H226458   7.974   4.162   4.894
 8839TIP3   OH226459   5.577   5.639   2.202
 8839TIP3    H126460   5.650   5.699   2.213
 8839TIP3    H226461   5.535   5.666   2.120
 8840TIP3   OH226462   3.247   2.485   0.822
 8840TIP3    H126463   3.286   2.450   0.742
 8840TIP3    H226464   3.260   2.416   0.887
 8841TIP3   OH226465   5.468   0.541   2.502
 8841TIP3    H126466   5.536   0.508   2.561
 8841TIP3    H226467   5.387   0.533   2.552
 8842TIP3   OH226468   6.887   0.706   1.814
 8842TIP3    H126469   6.815   0.643   1.820
 8842TIP3    H226470   6.887   0.734   1.723
 8843TIP3   OH226471   4.619   3.889   0.332
 8843TIP3    H126472   4.668   3.948   0.390
 8843TIP3    H226473   4.527   3.915   0.345
 8844TIP3   OH226474   5.870   0.367   6.175
 8844TIP3    H126475   5.944   0.427   6.183
 8844TIP3    H226476   5.904   0.293   6.125
 8845TIP3   OH226477   4.014   2.371   6.318
 8845TIP3    H126478   4.102   2.385   6.281
 8845TIP3    H226479   3.956   2.420   6.260
 8846TIP3   OH226480   3.206   3.419   6.288
 8846TIP3    H126481   3.220   3.358   6.360
 8846TIP3    H226482   3.237   3.372   6.211
 8847TIP3   OH226483   1.001   5.049   5.605
 8847TIP3    H126484   1.013   5.142   5.627
 8847TIP3    H226485   0.978   5.050   5.512
 8848TIP3   OH226486   6.958   2.859   0.453
 8848TIP3    H126487   6.999   2.859   0.539
 8848TIP3    H226488   6.874   2.902   0.466
 8849TIP3   OH226489  -0.017   0.911   0.019
 8849TIP3    H126490  -0.015   0.845   0.088
 8849TIP3    H226491   0.054   0.971   0.041
 8850TIP3   OH226492   6.593   7.627   5.203
 8850TIP3    H126493   6.634   7.540   5.203
 8850TIP3    H226494   6.539   7.628   5.125
 8851TIP3   OH226495   0.630   4.986   5.209
 8851TIP3    H126496   0.555   4.984   5.267
 8851TIP3    H226497   0.593   4.985   5.121
 8852TIP3   OH226498   2.079   5.346   1.475
 8852TIP3    H126499   2.004   5.316   1.526
 8852TIP3    H226500   2.138   5.270   1.474
 8853TIP3   OH226501  -0.047   4.046   1.047
 8853TIP3    H126502  -0.036   4.095   0.965
 8853TIP3    H226503  -0.005   4.100   1.114
 8854TIP3   OH226504   4.080   2.791   3.922
 8854TIP3    H126505   4.171   2.801   3.950
 8854TIP3    H226506   4.028   2.821   3.997
 8855TIP3   OH226507   3.189   7.136   1.303
 8855TIP3    H126508   3.109   7.183   1.327
 8855TIP3    H226509   3.212   7.086   1.382
 8856TIP3   OH226510   2.528   5.587   1.918
 8856TIP3    H126511   2.512   5.614   2.008
 8856TIP3    H226512   2.455   5.624   1.868
 8857TIP3   OH226513   0.882   6.954   1.214
 8857TIP3    H126514   0.970   6.937   1.181
 8857TIP3    H226515   0.826   6.951   1.137
 8858TIP3   OH226516   4.263   2.848   1.065
 8858TIP3    H126517   4.258   2.838   0.970
 8858TIP3    H226518   4.296   2.764   1.096
 8859TIP3   OH226519   1.728   5.915   6.531
 8859TIP3    H126520   1.768   5.908   6.445
 8859TIP3    H226521   1.656   5.853   6.530
 8860TIP3   OH226522   0.728   1.613   2.054
 8860TIP3    H126523   0.736   1.654   1.968
 8860TIP3    H226524   0.636   1.623   2.077
 8861TIP3   OH226525   3.726   4.105   3.296
 8861TIP3    H126526   3.682   4.185   3.326
 8861TIP3    H226527   3.691   4.092   3.208
 8862TIP3   OH226528   3.562   4.927   2.632
 8862TIP3    H126529   3.515   4.988   2.689
 8862TIP3    H226530   3.529   4.947   2.544
 8863TIP3   OH226531   1.646   6.114   3.067
 8863TIP3    H126532   1.661   6.019   3.071
 8863TIP3    H226533   1.623   6.138   3.156
 8864TIP3   OH226534   4.591   3.701   0.663
 8864TIP3    H126535   4.622   3.691   0.573
 8864TIP3    H226536   4.519   3.765   0.657
 8865TIP3   OH226537   4.820   1.748   3.184
 8865TIP3    H126538   4.886   1.682   3.206
 8865TIP3    H226539   4.824   1.811   3.256
 8866TIP3   OH226540   6.748   4.690   5.105
 8866TIP3    H126541   6.798   4.714   5.183
 8866TIP3    H226542   6.718   4.774   5.070
 8867TIP3   OH226543   2.464   1.390   3.130
 8867TIP3    H126544   2.403   1.383   3.056
 8867TIP3    H226545   2.515   1.309   3.127
 8868TIP3   OH226546   7.262   3.548   1.589
 8868TIP3    H126547   7.225   3.631   1.618
 8868TIP3    H226548   7.355   3.566   1.575
 8869TIP3   OH226549   4.093   2.985   1.915
 8869TIP3    H126550   4.060   2.931   1.987
 8869TIP3    H226551   4.156   3.044   1.957
 8870TIP3   OH226552   2.690   1.043   5.291
 8870TIP3    H126553   2.641   1.069   5.369
 8870TIP3    H226554   2.665   1.106   5.224
 8871TIP3   OH226555   5.236   0.152   5.218
 8871TIP3    H126556   5.148   0.117   5.216
 8871TIP3    H226557   5.224   0.247   5.229
 8872TIP3   OH226558   6.673   3.247   2.473
 8872TIP3    H126559   6.602   3.185   2.454
 8872TIP3    H226560   6.684   3.242   2.568
 8873TIP3   OH226561   4.668   3.969   2.009
 8873TIP3    H126562   4.609   3.929   1.945
 8873TIP3    H226563   4.610   4.018   2.068
 8874TIP3   OH226564   3.633   2.292   6.622
 8874TIP3    H126565   3.690   2.342   6.563
 8874TIP3    H226566   3.555   2.272   6.570
 8875TIP3   OH226567   1.186   5.682   1.959
 8875TIP3    H126568   1.251   5.679   1.890
 8875TIP3    H226569   1.187   5.773   1.989
 8876TIP3   OH226570   4.214   6.878   0.714
 8876TIP3    H126571   4.305   6.890   0.741
 8876TIP3    H226572   4.215   6.795   0.666
 8877TIP3   OH226573   1.515   1.703   5.627
 8877TIP3    H126574   1.591   1.647   5.646
 8877TIP3    H226575   1.550   1.771   5.569
 8878TIP3   OH226576   6.227   3.290   2.169
 8878TIP3    H126577   6.253   3.199   2.183
 8878TIP3    H226578   6.134   3.292   2.193
 8879TIP3   OH226579   3.754   7.349   4.340
 8879TIP3    H126580   3.771   7.343   4.246
 8879TIP3    H226581   3.842   7.355   4.379
 8880TIP3   OH226582   2.963   3.615   6.404
 8880TIP3    H126583   2.871   3.600   6.381
 8880TIP3    H226584   3.012   3.556   6.345
 8881TIP3   OH226585   5.637   6.685   2.987
 8881TIP3    H126586   5.559   6.631   2.994
 8881TIP3    H226587   5.710   6.623   2.993
 8882TIP3   OH226588   5.177   1.227   4.079
 8882TIP3    H126589   5.105   1.165   4.084
 8882TIP3    H226590   5.138   1.306   4.041
 8883TIP3   OH226591   6.636   4.618   1.849
 8883TIP3    H126592   6.651   4.541   1.794
 8883TIP3    H226593   6.668   4.593   1.936
 8884TIP3   OH226594   7.017   1.648   5.255
 8884TIP3    H126595   6.927   1.667   5.282
 8884TIP3    H226596   7.068   1.720   5.292
 8885TIP3   OH226597   0.208   6.333   2.612
 8885TIP3    H126598   0.242   6.422   2.612
 8885TIP3    H226599   0.253   6.290   2.685
 8886TIP3   OH226600   2.764   5.968   1.868
 8886TIP3    H126601   2.696   5.934   1.925
 8886TIP3    H226602   2.735   6.056   1.845
 8887TIP3   OH226603   8.273   7.050   3.980
 8887TIP3    H126604   8.329   7.112   3.933
 8887TIP3    H226605   8.273   6.972   3.924
 8888TIP3   OH226606   3.100   6.449   4.539
 8888TIP3    H126607   3.164   6.420   4.604
 8888TIP3    H226608   3.146   6.442   4.455
 8889TIP3   OH226609   6.298   6.273   6.147
 8889TIP3    H126610   6.255   6.192   6.171
 8889TIP3    H226611   6.371   6.281   6.209
 8890TIP3   OH226612   8.236   5.146   3.049
 8890TIP3    H126613   8.256   5.093   2.972
 8890TIP3    H226614   8.149   5.118   3.076
 8891TIP3   OH226615   4.286   2.991   4.379
 8891TIP3    H126616   4.269   2.904   4.344
 8891TIP3    H226617   4.200   3.022   4.407
 8892TIP3   OH226618   6.677   0.316   3.418
 8892TIP3    H126619   6.586   0.346   3.420
 8892TIP3    H226620   6.708   0.327   3.508
 8893TIP3   OH226621   5.544   6.111   4.189
 8893TIP3    H126622   5.523   6.182   4.248
 8893TIP3    H226623   5.636   6.092   4.205
 8894TIP3   OH226624   7.099   1.122   4.472
 8894TIP3    H126625   7.006   1.127   4.493
 8894TIP3    H226626   7.102   1.120   4.376
 8895TIP3   OH226627   0.362   5.395   5.665
 8895TIP3    H126628   0.338   5.308   5.631
 8895TIP3    H226629   0.281   5.446   5.660
 8896TIP3   OH226630   0.460   0.278   3.207
 8896TIP3    H126631   0.520   0.353   3.201
 8896TIP3    H226632   0.493   0.216   3.142
 8897TIP3   OH226633   2.656   6.994   1.926
 8897TIP3    H126634   2.645   6.899   1.922
 8897TIP3    H226635   2.627   7.018   2.014
 8898TIP3   OH226636   0.287   5.556   1.205
 8898TIP3    H126637   0.303   5.647   1.231
 8898TIP3    H226638   0.216   5.526   1.263
 8899TIP3   OH226639   4.487   3.470   4.436
 8899TIP3    H126640   4.490   3.471   4.340
 8899TIP3    H226641   4.507   3.379   4.460
 8900TIP3   OH226642   2.390   0.262   0.160
 8900TIP3    H126643   2.452   0.203   0.117
 8900TIP3    H226644   2.406   0.251   0.254
 8901TIP3   OH226645   0.923   7.745   2.802
 8901TIP3    H126646   0.983   7.720   2.873
 8901TIP3    H226647   0.858   7.801   2.845
 8902TIP3   OH226648   3.155   1.257   2.342
 8902TIP3    H126649   3.172   1.167   2.368
 8902TIP3    H226650   3.062   1.270   2.359
 8903TIP3   OH226651   1.452   0.739   3.165
 8903TIP3    H126652   1.359   0.759   3.154
 8903TIP3    H226653   1.481   0.797   3.236
 8904TIP3   OH226654   2.275   3.121   3.816
 8904TIP3    H126655   2.213   3.107   3.745
 8904TIP3    H226656   2.232   3.184   3.874
 8905TIP3   OH226657   1.257   3.423   6.756
 8905TIP3    H126658   1.324   3.487   6.777
 8905TIP3    H226659   1.226   3.391   6.841
 8906TIP3   OH226660   6.464   7.276   4.502
 8906TIP3    H126661   6.410   7.305   4.429
 8906TIP3    H226662   6.530   7.219   4.462
 8907TIP3   OH226663   2.619   3.029   4.849
 8907TIP3    H126664   2.705   3.058   4.878
 8907TIP3    H226665   2.570   3.017   4.930
 8908TIP3   OH226666   5.283   1.318   0.455
 8908TIP3    H126667   5.312   1.400   0.496
 8908TIP3    H226668   5.228   1.276   0.521
 8909TIP3   OH226669   6.510   0.456   2.854
 8909TIP3    H126670   6.551   0.403   2.923
 8909TIP3    H226671   6.486   0.393   2.786
 8910TIP3   OH226672   0.715   7.693   4.216
 8910TIP3    H126673   0.697   7.785   4.194
 8910TIP3    H226674   0.634   7.647   4.197
 8911TIP3   OH226675   5.504   3.501   5.680
 8911TIP3    H126676   5.493   3.495   5.774
 8911TIP3    H226677   5.426   3.460   5.643
 8912TIP3   OH226678   1.806   2.457   5.971
 8912TIP3    H126679   1.851   2.481   6.051
 8912TIP3    H226680   1.813   2.362   5.966
 8913TIP3   OH226681   2.290   7.170   2.661
 8913TIP3    H126682   2.304   7.235   2.730
 8913TIP3    H226683   2.205   7.193   2.624
 8914TIP3   OH226684   1.004   4.428   3.111
 8914TIP3    H126685   1.028   4.355   3.053
 8914TIP3    H226686   1.068   4.496   3.091
 8915TIP3   OH226687   2.639   5.288   5.068
 8915TIP3    H126688   2.563   5.335   5.102
 8915TIP3    H226689   2.680   5.249   5.145
 8916TIP3   OH226690   6.291   6.089   0.810
 8916TIP3    H126691   6.223   6.039   0.766
 8916TIP3    H226692   6.265   6.089   0.902
 8917TIP3   OH226693   7.221   5.938   6.402
 8917TIP3    H126694   7.270   5.954   6.322
 8917TIP3    H226695   7.139   5.898   6.373
 8918TIP3   OH226696   7.382   5.077   5.484
 8918TIP3    H126697   7.427   5.055   5.565
 8918TIP3    H226698   7.374   4.994   5.437
 8919TIP3   OH226699   8.067   5.870   1.934
 8919TIP3    H126700   7.985   5.891   1.889
 8919TIP3    H226701   8.039   5.822   2.012
 8920TIP3   OH226702   1.278   2.225   3.604
 8920TIP3    H126703   1.253   2.160   3.671
 8920TIP3    H226704   1.361   2.192   3.569
 8921TIP3   OH226705   5.988   3.614   5.346
 8921TIP3    H126706   5.982   3.680   5.277
 8921TIP3    H226707   5.952   3.657   5.424
 8922TIP3   OH226708   2.899   6.878   4.093
 8922TIP3    H126709   2.901   6.972   4.113
 8922TIP3    H226710   2.973   6.842   4.142
 8923TIP3   OH226711   0.731   6.900   3.010
 8923TIP3    H126712   0.656   6.841   3.018
 8923TIP3    H226713   0.722   6.939   2.923
 8924TIP3   OH226714   2.638   7.241   2.616
 8924TIP3    H126715   2.713   7.299   2.601
 8924TIP3    H226716   2.563   7.289   2.583
 8925TIP3   OH226717   8.291   1.489   1.470
 8925TIP3    H126718   8.227   1.492   1.542
 8925TIP3    H226719   8.346   1.414   1.491
 8926TIP3   OH226720   6.491   3.374   5.644
 8926TIP3    H126721   6.537   3.291   5.658
 8926TIP3    H226722   6.513   3.399   5.555
 8927TIP3   OH226723   4.966   4.371   0.572
 8927TIP3    H126724   4.896   4.340   0.630
 8927TIP3    H226725   5.046   4.361   0.625
 8928TIP3   OH226726   2.686   4.249   2.001
 8928TIP3    H126727   2.748   4.212   2.064
 8928TIP3    H226728   2.721   4.336   1.983
 8929TIP3   OH226729   6.644   2.729   4.400
 8929TIP3    H126730   6.550   2.710   4.397
 8929TIP3    H226731   6.649   2.824   4.406
 8930TIP3   OH226732   1.722   4.882   1.477
 8930TIP3    H126733   1.727   4.924   1.563
 8930TIP3    H226734   1.629   4.866   1.463
 8931TIP3   OH226735   4.761   3.457   4.272
 8931TIP3    H126736   4.689   3.462   4.209
 8931TIP3    H226737   4.798   3.370   4.259
 8932TIP3   OH226738   4.377   2.487   0.651
 8932TIP3    H126739   4.404   2.420   0.713
 8932TIP3    H226740   4.451   2.548   0.647
 8933TIP3   OH226741   6.303   4.686   5.620
 8933TIP3    H126742   6.386   4.657   5.582
 8933TIP3    H226743   6.305   4.781   5.612
 8934TIP3   OH226744   6.247   4.291   1.287
 8934TIP3    H126745   6.337   4.312   1.262
 8934TIP3    H226746   6.241   4.313   1.380
 8935TIP3   OH226747   7.190   3.809   1.663
 8935TIP3    H126748   7.114   3.859   1.633
 8935TIP3    H226749   7.186   3.814   1.759
 8936TIP3   OH226750   0.600   2.792   0.562
 8936TIP3    H126751   0.637   2.868   0.607
 8936TIP3    H226752   0.624   2.717   0.616
 8937TIP3   OH226753   0.167   6.423   4.894
 8937TIP3    H126754   0.079   6.393   4.919
 8937TIP3    H226755   0.226   6.356   4.928
 8938TIP3   OH226756   7.429   0.880   1.392
 8938TIP3    H126757   7.466   0.949   1.338
 8938TIP3    H226758   7.500   0.817   1.403
 8939TIP3   OH226759   5.463   2.640   0.867
 8939TIP3    H126760   5.481   2.635   0.961
 8939TIP3    H226761   5.452   2.549   0.840
 8940TIP3   OH226762   1.603   2.803   5.829
 8940TIP3    H126763   1.589   2.779   5.737
 8940TIP3    H226764   1.531   2.761   5.876
 8941TIP3   OH226765   3.029   1.614   5.140
 8941TIP3    H126766   3.017   1.551   5.211
 8941TIP3    H226767   3.101   1.669   5.169
 8942TIP3   OH226768   2.921   1.886   2.652
 8942TIP3    H126769   2.855   1.871   2.584
 8942TIP3    H226770   2.989   1.938   2.608
 8943TIP3   OH226771   2.571   6.619   5.313
 8943TIP3    H126772   2.533   6.642   5.398
 8943TIP3    H226773   2.618   6.537   5.330
 8944TIP3   OH226774   3.596   4.434   1.238
 8944TIP3    H126775   3.678   4.387   1.250
 8944TIP3    H226776   3.535   4.368   1.205
 8945TIP3   OH226777   3.898   1.592   6.054
 8945TIP3    H126778   3.880   1.564   5.964
 8945TIP3    H226779   3.977   1.645   6.047
 8946TIP3   OH226780   0.604   5.028   0.604
 8946TIP3    H126781   0.540   5.044   0.536
 8946TIP3    H226782   0.569   4.954   0.654
 8947TIP3   OH226783   5.681   5.406   1.400
 8947TIP3    H126784   5.752   5.343   1.395
 8947TIP3    H226785   5.689   5.459   1.321
 8948TIP3   OH226786   1.930   3.488   3.985
 8948TIP3    H126787   1.843   3.482   4.023
 8948TIP3    H226788   1.958   3.397   3.974
 8949TIP3   OH226789   5.094   0.870   1.438
 8949TIP3    H126790   5.055   0.792   1.476
 8949TIP3    H226791   5.185   0.847   1.422
 8950TIP3   OH226792   6.894   0.170   2.795
 8950TIP3    H126793   6.911   0.260   2.768
 8950TIP3    H226794   6.867   0.177   2.887
 8951TIP3   OH226795   6.740   0.670   3.810
 8951TIP3    H126796   6.822   0.703   3.847
 8951TIP3    H226797   6.707   0.742   3.756
 8952TIP3   OH226798   5.705   2.811   2.405
 8952TIP3    H126799   5.725   2.856   2.487
 8952TIP3    H226800   5.630   2.859   2.369
 8953TIP3   OH226801   7.526   1.772   3.769
 8953TIP3    H126802   7.615   1.744   3.750
 8953TIP3    H226803   7.518   1.763   3.864
 8954TIP3   OH226804   1.852   5.248   4.135
 8954TIP3    H126805   1.764   5.216   4.114
 8954TIP3    H226806   1.906   5.213   4.064
 8955TIP3   OH226807   8.043   5.070   2.545
 8955TIP3    H126808   8.077   5.156   2.521
 8955TIP3    H226809   7.950   5.085   2.562
 8956TIP3   OH226810   2.574   0.144   1.979
 8956TIP3    H126811   2.642   0.078   1.989
 8956TIP3    H226812   2.621   0.227   1.987
 8957TIP3   OH226813   6.313   3.024   0.114
 8957TIP3    H126814   6.224   3.027   0.079
 8957TIP3    H226815   6.353   2.948   0.072
 8958TIP3   OH226816   8.127   7.631   1.419
 8958TIP3    H126817   8.066   7.685   1.368
 8958TIP3    H226818   8.091   7.632   1.507
 8959TIP3   OH226819   6.295   4.924   0.905
 8959TIP3    H126820   6.304   4.969   0.821
 8959TIP3    H226821   6.313   4.832   0.885
 8960TIP3   OH226822   3.554   2.321   2.047
 8960TIP3    H126823   3.587   2.306   1.959
 8960TIP3    H226824   3.621   2.376   2.089
 8961TIP3   OH226825   4.913   4.068   1.910
 8961TIP3    H126826   4.915   4.152   1.955
 8961TIP3    H226827   4.820   4.049   1.897
 8962TIP3   OH226828   4.613   2.748   0.977
 8962TIP3    H126829   4.564   2.799   0.914
 8962TIP3    H226830   4.676   2.698   0.925
 8963TIP3   OH226831   7.205   2.373   6.732
 8963TIP3    H126832   7.237   2.375   6.642
 8963TIP3    H226833   7.110   2.378   6.725
 8964TIP3   OH226834   2.102   4.553   2.379
 8964TIP3    H126835   2.062   4.507   2.453
 8964TIP3    H226836   2.114   4.643   2.410
 8965TIP3   OH226837   5.505   0.263   2.063
 8965TIP3    H126838   5.471   0.307   2.141
 8965TIP3    H226839   5.586   0.310   2.042
 8966TIP3   OH226840   1.074   4.864   4.036
 8966TIP3    H126841   1.035   4.818   3.962
 8966TIP3    H226842   1.076   4.799   4.106
 8967TIP3   OH226843   5.456   1.569   5.728
 8967TIP3    H126844   5.496   1.597   5.810
 8967TIP3    H226845   5.529   1.537   5.675
 8968TIP3   OH226846   6.399   7.195   3.407
 8968TIP3    H126847   6.412   7.122   3.467
 8968TIP3    H226848   6.337   7.252   3.452
 8969TIP3   OH226849   7.670   1.170   5.854
 8969TIP3    H126850   7.687   1.250   5.903
 8969TIP3    H226851   7.582   1.144   5.881
 8970TIP3   OH226852   6.531   4.910   4.580
 8970TIP3    H126853   6.471   4.841   4.607
 8970TIP3    H226854   6.618   4.871   4.584
 8971TIP3   OH226855   0.066   7.315   3.117
 8971TIP3    H126856   0.049   7.394   3.065
 8971TIP3    H226857   0.160   7.320   3.138
 8972TIP3   OH226858   6.096   5.442   4.801
 8972TIP3    H126859   6.184   5.430   4.836
 8972TIP3    H226860   6.105   5.512   4.737
 8973TIP3   OH226861   0.259   6.525  -0.008
 8973TIP3    H126862   0.176   6.477  -0.003
 8973TIP3    H226863   0.278   6.550   0.083
 8974TIP3   OH226864   4.657   4.732   3.737
 8974TIP3    H126865   4.741   4.691   3.721
 8974TIP3    H226866   4.642   4.788   3.661
 8975TIP3   OH226867   1.327   1.332   2.668
 8975TIP3    H126868   1.274   1.277   2.610
 8975TIP3    H226869   1.367   1.397   2.610
 8976TIP3   OH226870   3.166   2.698   0.981
 8976TIP3    H126871   3.244   2.754   0.979
 8976TIP3    H226872   3.192   2.619   0.934
 8977TIP3   OH226873   7.855   5.420   4.161
 8977TIP3    H126874   7.848   5.426   4.256
 8977TIP3    H226875   7.901   5.500   4.135
 8978TIP3   OH226876   3.493   1.247   2.084
 8978TIP3    H126877   3.501   1.211   2.172
 8978TIP3    H226878   3.555   1.196   2.032
 8979TIP3   OH226879   3.133   7.377   1.931
 8979TIP3    H126880   3.227   7.362   1.929
 8979TIP3    H226881   3.101   7.323   2.003
 8980TIP3   OH226882   1.331   2.653   0.531
 8980TIP3    H126883   1.405   2.623   0.477
 8980TIP3    H226884   1.373   2.695   0.607
 8981TIP3   OH226885   5.877   1.950   0.855
 8981TIP3    H126886   5.878   1.863   0.896
 8981TIP3    H226887   5.955   1.993   0.890
 8982TIP3   OH226888   0.113   5.934   0.167
 8982TIP3    H126889   0.183   5.959   0.226
 8982TIP3    H226890   0.102   5.840   0.181
 8983TIP3   OH226891   7.753   0.658   3.305
 8983TIP3    H126892   7.738   0.601   3.381
 8983TIP3    H226893   7.806   0.730   3.340
 8984TIP3   OH226894   0.674   3.383   0.722
 8984TIP3    H126895   0.655   3.475   0.702
 8984TIP3    H226896   0.634   3.334   0.650
 8985TIP3   OH226897   2.674   3.787   6.743
 8985TIP3    H126898   2.608   3.800   6.810
 8985TIP3    H226899   2.744   3.849   6.766
 8986TIP3   OH226900   4.135   1.707   0.655
 8986TIP3    H126901   4.089   1.623   0.656
 8986TIP3    H226902   4.112   1.745   0.571
 8987TIP3   OH226903   4.845   0.479   0.174
 8987TIP3    H126904   4.754   0.463   0.196
 8987TIP3    H226905   4.874   0.545   0.238
 8988TIP3   OH226906   7.353   4.011   4.094
 8988TIP3    H126907   7.361   4.045   4.184
 8988TIP3    H226908   7.439   3.977   4.073
 8989TIP3   OH226909   2.888   2.645   6.272
 8989TIP3    H126910   2.895   2.552   6.294
 8989TIP3    H226911   2.873   2.688   6.356
 8990TIP3   OH226912   5.241   1.002   5.148
 8990TIP3    H126913   5.248   0.985   5.054
 8990TIP3    H226914   5.331   1.022   5.175
 8991TIP3   OH226915   5.050   5.093   0.524
 8991TIP3    H126916   5.035   5.069   0.616
 8991TIP3    H226917   5.080   5.184   0.528
 8992TIP3   OH226918   0.143   3.991   1.871
 8992TIP3    H126919   0.138   3.937   1.792
 8992TIP3    H226920   0.066   4.048   1.867
 8993TIP3   OH226921   7.610   7.536   4.512
 8993TIP3    H126922   7.516   7.549   4.521
 8993TIP3    H226923   7.632   7.475   4.583
 8994TIP3   OH226924   4.894   3.554   6.681
 8994TIP3    H126925   4.831   3.483   6.689
 8994TIP3    H226926   4.885   3.604   6.763
 8995TIP3   OH226927   1.578   0.902   2.891
 8995TIP3    H126928   1.538   0.988   2.896
 8995TIP3    H226929   1.661   0.910   2.938
 8996TIP3   OH226930   3.377   4.581   5.989
 8996TIP3    H126931   3.302   4.582   5.930
 8996TIP3    H226932   3.345   4.540   6.069
 8997TIP3   OH226933   2.419   4.955   5.952
 8997TIP3    H126934   2.490   5.002   5.909
 8997TIP3    H226935   2.460   4.909   6.025
 8998TIP3   OH226936   1.059   3.261   6.528
 8998TIP3    H126937   1.007   3.303   6.459
 8998TIP3    H226938   1.008   3.184   6.553
 8999TIP3   OH226939   6.772   2.057   6.514
 8999TIP3    H126940   6.860   2.093   6.507
 8999TIP3    H226941   6.780   1.966   6.483
 9000TIP3   OH226942   0.905   2.037   4.991
 9000TIP3    H126943   0.879   1.946   5.007
 9000TIP3    H226944   0.976   2.053   5.054
 9001TIP3   OH226945   7.479   2.150   6.280
 9001TIP3    H126946   7.467   2.091   6.205
 9001TIP3    H226947   7.537   2.219   6.248
 9002TIP3   OH226948   1.387   3.521   4.932
 9002TIP3    H126949   1.464   3.564   4.896
 9002TIP3    H226950   1.352   3.469   4.860
 9003TIP3   OH226951   1.471   4.428   6.022
 9003TIP3    H126952   1.552   4.434   5.971
 9003TIP3    H226953   1.416   4.499   5.991
 9004TIP3   OH226954   1.068   7.153   1.006
 9004TIP3    H126955   1.131   7.158   1.078
 9004TIP3    H226956   1.120   7.162   0.927
 9005TIP3   OH226957   6.965   2.414   0.545
 9005TIP3    H126958   7.043   2.458   0.511
 9005TIP3    H226959   6.998   2.354   0.611
 9006TIP3   OH226960   8.032   0.417   3.951
 9006TIP3    H126961   7.957   0.386   3.900
 9006TIP3    H226962   8.059   0.342   4.003
 9007TIP3   OH226963   6.596   5.451   0.108
 9007TIP3    H126964   6.565   5.415   0.191
 9007TIP3    H226965   6.533   5.520   0.087
 9008TIP3   OH226966   1.844   2.214   6.366
 9008TIP3    H126967   1.779   2.157   6.324
 9008TIP3    H226968   1.794   2.289   6.397
 9009TIP3   OH226969   3.993   3.433   6.448
 9009TIP3    H126970   3.932   3.483   6.502
 9009TIP3    H226971   3.950   3.425   6.363
 9010TIP3   OH226972   6.312   1.294   0.753
 9010TIP3    H126973   6.273   1.207   0.748
 9010TIP3    H226974   6.392   1.282   0.804
 9011TIP3   OH226975   1.237   7.118   1.221
 9011TIP3    H126976   1.320   7.107   1.268
 9011TIP3    H226977   1.204   7.030   1.208
 9012TIP3   OH226978   3.169   6.661   2.399
 9012TIP3    H126979   3.087   6.645   2.447
 9012TIP3    H226980   3.144   6.659   2.307
 9013TIP3   OH226981   3.574   5.533   3.049
 9013TIP3    H126982   3.604   5.469   2.984
 9013TIP3    H226983   3.505   5.582   3.005
 9014TIP3   OH226984   0.207   1.665   3.287
 9014TIP3    H126985   0.177   1.754   3.306
 9014TIP3    H226986   0.299   1.664   3.312
 9015TIP3   OH226987   4.933   0.523   5.589
 9015TIP3    H126988   4.874   0.527   5.663
 9015TIP3    H226989   4.876   0.521   5.512
 9016TIP3   OH226990   1.580   2.958   6.145
 9016TIP3    H126991   1.555   3.039   6.189
 9016TIP3    H226992   1.536   2.962   6.060
 9017TIP3   OH226993   4.589   6.997   1.683
 9017TIP3    H126994   4.503   7.027   1.653
 9017TIP3    H226995   4.643   7.076   1.680
 9018TIP3   OH226996   4.910   7.420   6.363
 9018TIP3    H126997   4.985   7.479   6.364
 9018TIP3    H226998   4.930   7.356   6.295
 9019TIP3   OH226999   4.926   0.353   2.252
 9019TIP3    H127000   5.016   0.329   2.233
 9019TIP3    H227001   4.878   0.331   2.172
 9020TIP3   OH227002   3.949   4.450   1.270
 9020TIP3    H127003   3.906   4.423   1.350
 9020TIP3    H227004   3.887   4.428   1.200
 9021TIP3   OH227005   8.185   3.843   4.173
 9021TIP3    H127006   8.092   3.847   4.149
 9021TIP3    H227007   8.188   3.873   4.263
 9022TIP3   OH227008   3.295   7.271   1.100
 9022TIP3    H127009   3.339   7.218   1.034
 9022TIP3    H227010   3.266   7.208   1.166
 9023TIP3   OH227011   5.971   0.964   4.536
 9023TIP3    H127012   6.063   0.967   4.564
 9023TIP3    H227013   5.970   1.012   4.453
 9024TIP3   OH227014   4.815   6.844   1.772
 9024TIP3    H127015   4.745   6.875   1.714
 9024TIP3    H227016   4.876   6.798   1.714
 9025TIP3   OH227017   2.310   4.792   2.157
 9025TIP3    H127018   2.365   4.804   2.080
 9025TIP3    H227019   2.232   4.844   2.139
 9026TIP3   OH227020   4.623   6.365   4.566
 9026TIP3    H127021   4.617   6.410   4.650
 9026TIP3    H227022   4.555   6.405   4.512
 9027TIP3   OH227023   4.223   1.325   5.408
 9027TIP3    H127024   4.288   1.393   5.428
 9027TIP3    H227025   4.273   1.260   5.359
 9028TIP3   OH227026   5.545   4.326   0.034
 9028TIP3    H127027   5.498   4.246   0.056
 9028TIP3    H227028   5.480   4.382  -0.008
 9029TIP3   OH227029   3.478   4.841   1.245
 9029TIP3    H127030   3.569   4.833   1.218
 9029TIP3    H227031   3.457   4.756   1.286
 9030TIP3   OH227032   6.674   3.091   1.434
 9030TIP3    H127033   6.705   3.167   1.483
 9030TIP3    H227034   6.692   3.112   1.343
 9031TIP3   OH227035   0.985   4.256   3.979
 9031TIP3    H127036   1.006   4.322   3.913
 9031TIP3    H227037   0.923   4.197   3.936
 9032TIP3   OH227038   4.510   4.513   4.881
 9032TIP3    H127039   4.476   4.557   4.803
 9032TIP3    H227040   4.466   4.428   4.881
 9033TIP3   OH227041   3.966   0.587   3.085
 9033TIP3    H127042   4.057   0.557   3.094
 9033TIP3    H227043   3.947   0.580   2.991
 9034TIP3   OH227044   3.881   2.133   1.257
 9034TIP3    H127045   3.908   2.225   1.264
 9034TIP3    H227046   3.803   2.127   1.312
 9035TIP3   OH227047   2.661   1.434   4.947
 9035TIP3    H127048   2.677   1.407   4.856
 9035TIP3    H227049   2.696   1.523   4.952
 9036TIP3   OH227050   1.203   1.340   5.094
 9036TIP3    H127051   1.292   1.376   5.097
 9036TIP3    H227052   1.216   1.247   5.073
 9037TIP3   OH227053   0.916   6.470   1.049
 9037TIP3    H127054   0.906   6.394   1.107
 9037TIP3    H227055   0.881   6.543   1.098
 9038TIP3   OH227056   4.377   2.017   5.176
 9038TIP3    H127057   4.292   2.016   5.221
 9038TIP3    H227058   4.366   1.953   5.105
 9039TIP3   OH227059   3.077   2.755   3.311
 9039TIP3    H127060   3.007   2.703   3.351
 9039TIP3    H227061   3.145   2.692   3.290
 9040TIP3   OH227062   7.371   5.944   6.144
 9040TIP3    H127063   7.419   6.004   6.086
 9040TIP3    H227064   7.377   5.859   6.101
 9041TIP3   OH227065   7.079   3.752   0.999
 9041TIP3    H127066   7.050   3.764   1.089
 9041TIP3    H227067   6.999   3.728   0.951
 9042TIP3   OH227068   5.412   5.354   1.415
 9042TIP3    H127069   5.499   5.383   1.387
 9042TIP3    H227070   5.413   5.362   1.510
 9043TIP3   OH227071   7.352   4.892   1.886
 9043TIP3    H127072   7.294   4.820   1.910
 9043TIP3    H227073   7.361   4.884   1.791
 9044TIP3   OH227074   1.167   3.492   2.228
 9044TIP3    H127075   1.187   3.401   2.204
 9044TIP3    H227076   1.229   3.545   2.178
 9045TIP3   OH227077   2.436   7.424   2.090
 9045TIP3    H127078   2.436   7.331   2.068
 9045TIP3    H227079   2.489   7.465   2.022
 9046TIP3   OH227080   5.323   3.660   4.408
 9046TIP3    H127081   5.306   3.626   4.496
 9046TIP3    H227082   5.333   3.583   4.354
 9047TIP3   OH227083   4.444   5.867   6.333
 9047TIP3    H127084   4.411   5.826   6.413
 9047TIP3    H227085   4.539   5.873   6.347
 9048TIP3   OH227086   3.780   1.784   4.584
 9048TIP3    H127087   3.717   1.793   4.513
 9048TIP3    H227088   3.839   1.859   4.574
 9049TIP3   OH227089   4.312   1.137   2.173
 9049TIP3    H127090   4.328   1.226   2.203
 9049TIP3    H227091   4.379   1.121   2.107
 9050TIP3   OH227092   5.283   6.082   6.204
 9050TIP3    H127093   5.200   6.035   6.212
 9050TIP3    H227094   5.310   6.067   6.113
 9051TIP3   OH227095   2.562   4.599   5.944
 9051TIP3    H127096   2.601   4.673   5.898
 9051TIP3    H227097   2.545   4.534   5.875
 9052TIP3   OH227098   6.498   2.903   1.049
 9052TIP3    H127099   6.549   2.982   1.028
 9052TIP3    H227100   6.465   2.872   0.965
 9053TIP3   OH227101   7.106   6.314   6.281
 9053TIP3    H127102   7.152   6.286   6.203
 9053TIP3    H227103   7.175   6.335   6.344
 9054TIP3   OH227104   4.420   0.381   0.762
 9054TIP3    H127105   4.484   0.401   0.831
 9054TIP3    H227106   4.372   0.463   0.750
 9055TIP3   OH227107   4.242   7.013   1.856
 9055TIP3    H127108   4.264   7.057   1.774
 9055TIP3    H227109   4.250   7.081   1.923
 9056TIP3   OH227110   3.910   7.148   5.883
 9056TIP3    H127111   3.890   7.236   5.852
 9056TIP3    H227112   3.825   7.103   5.884
 9057TIP3   OH227113   8.098   0.886   4.881
 9057TIP3    H127114   8.174   0.943   4.890
 9057TIP3    H227115   8.098   0.833   4.961
 9058TIP3   OH227116   6.632   7.776   5.442
 9058TIP3    H127117   6.698   7.834   5.404
 9058TIP3    H227118   6.586   7.740   5.366
 9059TIP3   OH227119   4.260   6.582  -0.004
 9059TIP3    H127120   4.252   6.492  -0.035
 9059TIP3    H227121   4.231   6.636  -0.077
 9060TIP3   OH227122   5.380   5.724   4.447
 9060TIP3    H127123   5.388   5.697   4.538
 9060TIP3    H227124   5.469   5.747   4.421
 9061TIP3   OH227125   4.480   5.973   0.055
 9061TIP3    H127126   4.467   5.935  -0.031
 9061TIP3    H227127   4.515   5.902   0.108
 9062TIP3   OH227128   4.837   3.984   0.914
 9062TIP3    H127129   4.749   4.021   0.905
 9062TIP3    H227130   4.872   4.023   0.994
 9063TIP3   OH227131   1.425   6.654   3.317
 9063TIP3    H127132   1.462   6.619   3.398
 9063TIP3    H227133   1.340   6.612   3.310
 9064TIP3   OH227134   0.683   6.202   1.300
 9064TIP3    H127135   0.770   6.226   1.270
 9064TIP3    H227136   0.696   6.173   1.390
 9065TIP3   OH227137   3.410   1.056   5.894
 9065TIP3    H127138   3.477   0.994   5.866
 9065TIP3    H227139   3.384   1.025   5.981
 9066TIP3   OH227140   2.643   7.174   0.849
 9066TIP3    H127141   2.720   7.129   0.884
 9066TIP3    H227142   2.653   7.168   0.754
 9067TIP3   OH227143   3.119   6.403   6.664
 9067TIP3    H127144   3.132   6.385   6.758
 9067TIP3    H227145   3.119   6.498   6.658
 9068TIP3   OH227146   6.614   7.319   4.996
 9068TIP3    H127147   6.606   7.241   4.942
 9068TIP3    H227148   6.541   7.313   5.058
 9069TIP3   OH227149   3.512   3.845   3.754
 9069TIP3    H127150   3.422   3.877   3.748
 9069TIP3    H227151   3.567   3.921   3.733
 9070TIP3   OH227152   3.060   2.107   2.482
 9070TIP3    H127153   3.123   2.122   2.553
 9070TIP3    H227154   3.076   2.180   2.421
 9071TIP3   OH227155   6.861   3.428   4.826
 9071TIP3    H127156   6.896   3.343   4.798
 9071TIP3    H227157   6.837   3.471   4.744
 9072TIP3   OH227158   2.924   3.455   5.697
 9072TIP3    H127159   2.961   3.448   5.784
 9072TIP3    H227160   2.947   3.543   5.667
 9073TIP3   OH227161   6.039   0.772   3.038
 9073TIP3    H127162   5.955   0.806   3.068
 9073TIP3    H227163   6.019   0.686   3.001
 9074TIP3   OH227164   7.054   3.756   6.151
 9074TIP3    H127165   6.991   3.820   6.184
 9074TIP3    H227166   7.018   3.671   6.177
 9075TIP3   OH227167   0.812   3.146   5.898
 9075TIP3    H127168   0.794   3.086   5.971
 9075TIP3    H227169   0.819   3.232   5.939
 9076TIP3   OH227170   1.166   6.119   0.323
 9076TIP3    H127171   1.240   6.117   0.262
 9076TIP3    H227172   1.131   6.208   0.315
 9077TIP3   OH227173   3.146   5.344   0.729
 9077TIP3    H127174   3.235   5.378   0.718
 9077TIP3    H227175   3.153   5.280   0.800
 9078TIP3   OH227176   4.670   3.758   3.382
 9078TIP3    H127177   4.719   3.708   3.448
 9078TIP3    H227178   4.682   3.850   3.408
 9079TIP3   OH227179   1.373   5.509   3.283
 9079TIP3    H127180   1.385   5.522   3.377
 9079TIP3    H227181   1.458   5.530   3.245
 9080TIP3   OH227182   4.271   2.922   6.568
 9080TIP3    H127183   4.217   2.998   6.548
 9080TIP3    H227184   4.356   2.957   6.594
 9081TIP3   OH227185   8.198   6.321   5.142
 9081TIP3    H127186   8.163   6.333   5.231
 9081TIP3    H227187   8.186   6.227   5.125
 9082TIP3   OH227188   1.858   4.842   2.754
 9082TIP3    H127189   1.863   4.856   2.848
 9082TIP3    H227190   1.810   4.759   2.745
 9083TIP3   OH227191   6.621   2.247   6.674
 9083TIP3    H127192   6.665   2.183   6.619
 9083TIP3    H227193   6.563   2.295   6.614
 9084TIP3   OH227194   5.442   1.953   0.674
 9084TIP3    H127195   5.458   1.997   0.590
 9084TIP3    H227196   5.525   1.908   0.693
 9085TIP3   OH227197   2.648   1.049   1.999
 9085TIP3    H127198   2.619   1.089   2.081
 9085TIP3    H227199   2.576   1.066   1.937
 9086TIP3   OH227200   0.961   4.827   1.948
 9086TIP3    H127201   0.905   4.764   1.993
 9086TIP3    H227202   1.033   4.774   1.914
 9087TIP3   OH227203   1.174   7.054   6.176
 9087TIP3    H127204   1.137   7.116   6.113
 9087TIP3    H227205   1.194   6.976   6.124
 9088TIP3   OH227206   2.092   5.067   6.509
 9088TIP3    H127207   2.124   5.140   6.562
 9088TIP3    H227208   2.143   4.992   6.539
 9089TIP3   OH227209   3.052   7.222   4.797
 9089TIP3    H127210   3.089   7.134   4.783
 9089TIP3    H227211   3.082   7.273   4.722
 9090TIP3   OH227212   0.156   1.235   2.692
 9090TIP3    H127213   0.211   1.210   2.618
 9090TIP3    H227214   0.218   1.265   2.759
 9091TIP3   OH227215   1.830   3.071   3.074
 9091TIP3    H127216   1.842   3.012   3.000
 9091TIP3    H227217   1.753   3.124   3.051
 9092TIP3   OH227218   4.046   7.147   0.884
 9092TIP3    H127219   3.950   7.148   0.884
 9092TIP3    H227220   4.070   7.197   0.806
 9093TIP3   OH227221   5.971   4.918   6.259
 9093TIP3    H127222   5.885   4.958   6.270
 9093TIP3    H227223   6.001   4.899   6.348
 9094TIP3   OH227224   8.182   1.373   5.045
 9094TIP3    H127225   8.090   1.398   5.039
 9094TIP3    H227226   8.196   1.357   5.138
 9095TIP3   OH227227   5.408   5.699   1.992
 9095TIP3    H127228   5.419   5.770   1.928
 9095TIP3    H227229   5.418   5.619   1.940
 9096TIP3   OH227230   3.773   1.614   4.169
 9096TIP3    H127231   3.814   1.557   4.234
 9096TIP3    H227232   3.814   1.590   4.086
 9097TIP3   OH227233   7.941   0.119   2.586
 9097TIP3    H127234   7.972   0.209   2.600
 9097TIP3    H227235   8.021   0.067   2.576
 9098TIP3   OH227236   5.051   5.448   1.478
 9098TIP3    H127237   5.029   5.376   1.537
 9098TIP3    H227238   5.020   5.419   1.392
 9099TIP3   OH227239   8.049   2.357   5.066
 9099TIP3    H127240   8.044   2.401   4.982
 9099TIP3    H227241   8.050   2.263   5.045
 9100TIP3   OH227242   2.451   7.456   2.553
 9100TIP3    H127243   2.365   7.492   2.531
 9100TIP3    H227244   2.510   7.493   2.488
 9101TIP3   OH227245   2.625   2.359   1.351
 9101TIP3    H127246   2.634   2.382   1.258
 9101TIP3    H227247   2.537   2.322   1.357
 9102TIP3   OH227248   1.341   6.843   0.962
 9102TIP3    H127249   1.315   6.890   0.883
 9102TIP3    H227250   1.397   6.772   0.931
 9103TIP3   OH227251   7.218   0.530   2.444
 9103TIP3    H127252   7.138   0.544   2.394
 9103TIP3    H227253   7.239   0.437   2.429
 9104TIP3   OH227254   0.534   5.985   3.233
 9104TIP3    H127255   0.557   6.070   3.198
 9104TIP3    H227256   0.446   5.997   3.270
 9105TIP3   OH227257   4.749   4.191   4.842
 9105TIP3    H127258   4.671   4.210   4.791
 9105TIP3    H227259   4.723   4.120   4.900
 9106TIP3   OH227260   0.684   4.303   3.744
 9106TIP3    H127261   0.660   4.290   3.653
 9106TIP3    H227262   0.751   4.372   3.742
 9107TIP3   OH227263   4.483   1.686   5.793
 9107TIP3    H127264   4.483   1.591   5.780
 9107TIP3    H227265   4.568   1.704   5.835
 9108TIP3   OH227266   0.059   5.647   0.593
 9108TIP3    H127267  -0.001   5.711   0.555
 9108TIP3    H227268   0.134   5.699   0.622
 9109TIP3   OH227269   4.137   7.456   1.926
 9109TIP3    H127270   4.081   7.463   1.849
 9109TIP3    H227271   4.084   7.492   1.998
 9110TIP3   OH227272   2.837   7.717   5.356
 9110TIP3    H127273   2.754   7.764   5.357
 9110TIP3    H227274   2.817   7.632   5.317
 9111TIP3   OH227275   6.431   3.553   0.501
 9111TIP3    H127276   6.522   3.539   0.527
 9111TIP3    H227277   6.436   3.612   0.426
 9112TIP3   OH227278   2.219   2.698   4.139
 9112TIP3    H127279   2.143   2.721   4.085
 9112TIP3    H227280   2.290   2.753   4.104
 9113TIP3   OH227281   6.601   4.107   0.241
 9113TIP3    H127282   6.644   4.032   0.283
 9113TIP3    H227283   6.606   4.087   0.147
 9114TIP3   OH227284   6.854   1.522   2.269
 9114TIP3    H127285   6.919   1.496   2.205
 9114TIP3    H227286   6.801   1.443   2.283
 9115TIP3   OH227287   3.500   2.061   0.914
 9115TIP3    H127288   3.428   2.039   0.972
 9115TIP3    H227289   3.527   2.149   0.941
 9116TIP3   OH227290   4.377   7.481   2.087
 9116TIP3    H127291   4.304   7.501   2.028
 9116TIP3    H227292   4.383   7.557   2.144
 9117TIP3   OH227293   3.622   7.694   0.639
 9117TIP3    H127294   3.672   7.691   0.557
 9117TIP3    H227295   3.571   7.612   0.639
 9118TIP3   OH227296   2.793   1.411   3.393
 9118TIP3    H127297   2.843   1.396   3.312
 9118TIP3    H227298   2.811   1.502   3.416
 9119TIP3   OH227299   0.061   5.381   5.694
 9119TIP3    H127300   0.052   5.476   5.705
 9119TIP3    H227301   0.108   5.352   5.772
 9120TIP3   OH227302   7.515   5.639   3.664
 9120TIP3    H127303   7.467   5.618   3.584
 9120TIP3    H227304   7.479   5.579   3.729
 9121TIP3   OH227305   0.844   1.935   4.165
 9121TIP3    H127306   0.794   2.001   4.117
 9121TIP3    H227307   0.906   1.901   4.100
 9122TIP3   OH227308   2.173   0.669   0.144
 9122TIP3    H127309   2.089   0.627   0.162
 9122TIP3    H227310   2.151   0.756   0.111
 9123TIP3   OH227311   0.714   6.075   6.356
 9123TIP3    H127312   0.681   5.991   6.326
 9123TIP3    H227313   0.738   6.060   6.448
 9124TIP3   OH227314   2.359   2.103   3.244
 9124TIP3    H127315   2.307   2.047   3.186
 9124TIP3    H227316   2.449   2.070   3.235
 9125TIP3   OH227317   7.455   7.397   1.748
 9125TIP3    H127318   7.493   7.360   1.827
 9125TIP3    H227319   7.492   7.485   1.743
 9126TIP3   OH227320   0.212   6.894   3.854
 9126TIP3    H127321   0.278   6.861   3.793
 9126TIP3    H227322   0.179   6.973   3.811
 9127TIP3   OH227323   1.015   1.678   5.228
 9127TIP3    H127324   1.049   1.613   5.290
 9127TIP3    H227325   1.043   1.762   5.264
 9128TIP3   OH227326   0.982   4.759   3.786
 9128TIP3    H127327   0.968   4.842   3.742
 9128TIP3    H227328   1.040   4.710   3.728
 9129TIP3   OH227329   7.744   4.233   4.025
 9129TIP3    H127330   7.790   4.205   4.104
 9129TIP3    H227331   7.813   4.271   3.970
 9130TIP3   OH227332   1.025   2.200   5.790
 9130TIP3    H127333   0.997   2.134   5.727
 9130TIP3    H227334   1.076   2.150   5.855
 9131TIP3   OH227335   7.563   6.686   6.512
 9131TIP3    H127336   7.539   6.611   6.567
 9131TIP3    H227337   7.585   6.648   6.427
 9132TIP3   OH227338   1.756   7.562   5.904
 9132TIP3    H127339   1.787   7.574   5.994
 9132TIP3    H227340   1.771   7.470   5.885
 9133TIP3   OH227341   1.078   0.211   6.333
 9133TIP3    H127342   1.089   0.213   6.428
 9133TIP3    H227343   1.162   0.240   6.298
 9134TIP3   OH227344   1.959   3.812   6.335
 9134TIP3    H127345   1.896   3.812   6.263
 9134TIP3    H227346   1.963   3.904   6.364
 9135TIP3   OH227347   5.343   7.119   6.032
 9135TIP3    H127348   5.406   7.169   5.980
 9135TIP3    H227349   5.336   7.168   6.115
 9136TIP3   OH227350   0.287   7.052   5.824
 9136TIP3    H127351   0.302   6.960   5.845
 9136TIP3    H227352   0.366   7.096   5.854
 9137TIP3   OH227353   6.912   3.802   3.434
 9137TIP3    H127354   6.979   3.868   3.420
 9137TIP3    H227355   6.960   3.723   3.459
 9138TIP3   OH227356   1.215   4.466   5.058
 9138TIP3    H127357   1.221   4.502   5.146
 9138TIP3    H227358   1.128   4.426   5.054
 9139TIP3   OH227359   4.324   0.938   3.455
 9139TIP3    H127360   4.378   0.886   3.394
 9139TIP3    H227361   4.336   1.028   3.427
 9140TIP3   OH227362   1.052   6.194   2.181
 9140TIP3    H127363   1.010   6.144   2.111
 9140TIP3    H227364   1.084   6.127   2.242
 9141TIP3   OH227365   6.919   3.329   1.931
 9141TIP3    H127366   6.893   3.237   1.943
 9141TIP3    H227367   7.010   3.331   1.960
 9142TIP3   OH227368   6.665   1.722   2.181
 9142TIP3    H127369   6.717   1.641   2.180
 9142TIP3    H227370   6.723   1.788   2.143
 9143TIP3   OH227371   0.186   4.193   2.235
 9143TIP3    H127372   0.217   4.210   2.324
 9143TIP3    H227373   0.159   4.101   2.236
 9144TIP3   OH227374   0.134   5.132   0.833
 9144TIP3    H127375   0.120   5.173   0.918
 9144TIP3    H227376   0.061   5.070   0.824
 9145TIP3   OH227377   7.166   1.390   1.672
 9145TIP3    H127378   7.191   1.310   1.719
 9145TIP3    H227379   7.082   1.368   1.633
 9146TIP3   OH227380   1.347   0.155   0.348
 9146TIP3    H127381   1.330   0.074   0.300
 9146TIP3    H227382   1.394   0.210   0.286
 9147TIP3   OH227383   5.106   4.133   1.437
 9147TIP3    H127384   5.154   4.205   1.477
 9147TIP3    H227385   5.165   4.098   1.370
 9148TIP3   OH227386   0.401   0.374   0.203
 9148TIP3    H127387   0.395   0.410   0.292
 9148TIP3    H227388   0.394   0.279   0.215
 9149TIP3   OH227389   4.461   3.534   3.855
 9149TIP3    H127390   4.535   3.587   3.826
 9149TIP3    H227391   4.441   3.477   3.780
 9150TIP3   OH227392   0.704   2.587   6.195
 9150TIP3    H127393   0.770   2.615   6.259
 9150TIP3    H227394   0.753   2.571   6.115
 9151TIP3   OH227395   5.243   4.380   0.683
 9151TIP3    H127396   5.245   4.308   0.746
 9151TIP3    H227397   5.218   4.457   0.735
 9152TIP3   OH227398   1.766   4.728   5.142
 9152TIP3    H127399   1.819   4.784   5.199
 9152TIP3    H227400   1.679   4.769   5.143
 9153TIP3   OH227401   5.540   3.489   1.037
 9153TIP3    H127402   5.573   3.495   0.948
 9153TIP3    H227403   5.445   3.491   1.027
 9154TIP3   OH227404   7.400   3.983   1.528
 9154TIP3    H127405   7.325   3.945   1.575
 9154TIP3    H227406   7.439   4.044   1.591
 9155TIP3   OH227407   3.598   3.997   6.677
 9155TIP3    H127408   3.572   3.909   6.650
 9155TIP3    H227409   3.633   3.985   6.765
 9156TIP3   OH227410   7.649   5.729   4.909
 9156TIP3    H127411   7.710   5.722   4.835
 9156TIP3    H227412   7.639   5.639   4.940
 9157TIP3   OH227413   5.029   7.632   5.628
 9157TIP3    H127414   4.984   7.700   5.577
 9157TIP3    H227415   4.959   7.583   5.670
 9158TIP3   OH227416   2.059   5.520   0.112
 9158TIP3    H127417   2.094   5.455   0.052
 9158TIP3    H227418   2.125   5.590   0.114
 9159TIP3   OH227419   8.268   3.696   1.183
 9159TIP3    H127420   8.348   3.747   1.195
 9159TIP3    H227421   8.292   3.608   1.211
 9160TIP3   OH227422   3.725   4.076   3.754
 9160TIP3    H127423   3.715   4.092   3.661
 9160TIP3    H227424   3.731   4.163   3.793
 9161TIP3   OH227425   4.368   2.670   2.973
 9161TIP3    H127426   4.424   2.614   2.919
 9161TIP3    H227427   4.381   2.758   2.938
 9162TIP3   OH227428   4.749   0.623   5.407
 9162TIP3    H127429   4.716   0.593   5.322
 9162TIP3    H227430   4.730   0.717   5.409
 9163TIP3   OH227431   0.537   7.052   5.940
 9163TIP3    H127432   0.497   7.055   6.028
 9163TIP3    H227433   0.576   6.965   5.935
 9164TIP3   OH227434   0.263   0.929   2.532
 9164TIP3    H127435   0.251   0.981   2.453
 9164TIP3    H227436   0.341   0.965   2.573
 9165TIP3   OH227437   0.671   0.932   0.583
 9165TIP3    H127438   0.577   0.911   0.581
 9165TIP3    H227439   0.686   0.966   0.671
 9166TIP3   OH227440   1.080   5.541   1.367
 9166TIP3    H127441   1.147   5.558   1.434
 9166TIP3    H227442   1.085   5.616   1.309
 9167TIP3   OH227443   8.078   5.758   5.186
 9167TIP3    H127444   8.150   5.792   5.238
 9167TIP3    H227445   8.096   5.787   5.097
 9168TIP3   OH227446   2.677   1.187   5.070
 9168TIP3    H127447   2.658   1.280   5.063
 9168TIP3    H227448   2.742   1.170   5.002
 9169TIP3   OH227449   0.573   6.534   6.358
 9169TIP3    H127450   0.619   6.616   6.340
 9169TIP3    H227451   0.642   6.470   6.374
 9170TIP3   OH227452   1.933   1.251   1.527
 9170TIP3    H127453   1.849   1.291   1.548
 9170TIP3    H227454   1.994   1.324   1.524
 9171TIP3   OH227455   1.426   3.060   1.148
 9171TIP3    H127456   1.457   2.970   1.137
 9171TIP3    H227457   1.457   3.085   1.235
 9172TIP3   OH227458   6.275   4.416   0.254
 9172TIP3    H127459   6.230   4.333   0.236
 9172TIP3    H227460   6.227   4.453   0.327
 9173TIP3   OH227461   5.411   1.746   0.213
 9173TIP3    H127462   5.496   1.704   0.208
 9173TIP3    H227463   5.349   1.674   0.226
 9174TIP3   OH227464   0.368   0.906   4.978
 9174TIP3    H127465   0.463   0.895   4.983
 9174TIP3    H227466   0.336   0.824   4.939
 9175TIP3   OH227467   2.829   3.302   4.772
 9175TIP3    H127468   2.795   3.345   4.850
 9175TIP3    H227469   2.869   3.221   4.805
 9176TIP3   OH227470   0.206  -0.008   6.015
 9176TIP3    H127471   0.258  -0.041   6.089
 9176TIP3    H227472   0.199   0.086   6.032
 9177TIP3   OH227473   1.680   6.925   5.658
 9177TIP3    H127474   1.743   6.962   5.596
 9177TIP3    H227475   1.597   6.968   5.636
 9178TIP3   OH227476   0.214   1.895   0.379
 9178TIP3    H127477   0.300   1.936   0.368
 9178TIP3    H227478   0.192   1.860   0.293
 9179TIP3   OH227479   2.199   4.111   6.268
 9179TIP3    H127480   2.139   4.061   6.324
 9179TIP3    H227481   2.276   4.125   6.322
 9180TIP3   OH227482   4.343   3.198   2.638
 9180TIP3    H127483   4.393   3.280   2.634
 9180TIP3    H227484   4.409   3.130   2.653
 9181TIP3   OH227485   6.139   6.607   4.053
 9181TIP3    H127486   6.053   6.648   4.043
 9181TIP3    H227487   6.201   6.679   4.041
 9182TIP3   OH227488   4.902   5.078   1.146
 9182TIP3    H127489   4.859   4.994   1.159
 9182TIP3    H227490   4.988   5.067   1.186
 9183TIP3   OH227491   5.654   4.114   3.053
 9183TIP3    H127492   5.692   4.067   3.127
 9183TIP3    H227493   5.712   4.094   2.980
 9184TIP3   OH227494   5.047   7.804   6.625
 9184TIP3    H127495   5.073   7.879   6.680
 9184TIP3    H227496   5.055   7.728   6.683
 9185TIP3   OH227497   3.615   2.834   4.191
 9185TIP3    H127498   3.606   2.744   4.222
 9185TIP3    H227499   3.530   2.854   4.151
 9186TIP3   OH227500   7.066   7.529   1.446
 9186TIP3    H127501   7.050   7.554   1.537
 9186TIP3    H227502   7.144   7.473   1.450
 9187TIP3   OH227503   6.454   5.826   6.002
 9187TIP3    H127504   6.488   5.755   5.948
 9187TIP3    H227505   6.390   5.870   5.947
 9188TIP3   OH227506   5.638   6.981   2.319
 9188TIP3    H127507   5.719   6.942   2.285
 9188TIP3    H227508   5.568   6.930   2.280
 9189TIP3   OH227509   3.198   1.704   5.933
 9189TIP3    H127510   3.231   1.646   6.001
 9189TIP3    H227511   3.180   1.647   5.858
 9190TIP3   OH227512   5.060   7.801   5.865
 9190TIP3    H127513   5.154   7.814   5.853
 9190TIP3    H227514   5.036   7.736   5.798
 9191TIP3   OH227515   4.759   5.781   0.323
 9191TIP3    H127516   4.835   5.722   0.328
 9191TIP3    H227517   4.792   5.864   0.357
 9192TIP3   OH227518   2.817   3.575   4.283
 9192TIP3    H127519   2.728   3.565   4.315
 9192TIP3    H227520   2.872   3.570   4.362
 9193TIP3   OH227521   6.354   5.406   2.086
 9193TIP3    H127522   6.370   5.447   2.171
 9193TIP3    H227523   6.376   5.314   2.100
 9194TIP3   OH227524   6.290   6.559   4.642
 9194TIP3    H127525   6.338   6.630   4.684
 9194TIP3    H227526   6.311   6.569   4.549
 9195TIP3   OH227527   2.058   3.478   2.991
 9195TIP3    H127528   2.096   3.562   3.017
 9195TIP3    H227529   1.992   3.459   3.058
 9196TIP3   OH227530   5.919   6.523   5.001
 9196TIP3    H127531   5.869   6.533   5.082
 9196TIP3    H227532   5.858   6.480   4.941
 9197TIP3   OH227533   6.153   5.601   3.028
 9197TIP3    H127534   6.104   5.683   3.031
 9197TIP3    H227535   6.241   5.626   3.057
 9198TIP3   OH227536   3.443   7.064   4.886
 9198TIP3    H127537   3.418   7.129   4.820
 9198TIP3    H227538   3.359   7.033   4.921
 9199TIP3   OH227539   1.725   0.685   2.041
 9199TIP3    H127540   1.745   0.766   2.087
 9199TIP3    H227541   1.629   0.685   2.033
 9200TIP3   OH227542   0.813   0.861   5.192
 9200TIP3    H127543   0.902   0.888   5.214
 9200TIP3    H227544   0.809   0.769   5.218
 9201TIP3   OH227545   1.593   7.294   0.040
 9201TIP3    H127546   1.579   7.287   0.134
 9201TIP3    H227547   1.660   7.229   0.021
 9202TIP3   OH227548   8.047   6.816   3.904
 9202TIP3    H127549   7.990   6.783   3.974
 9202TIP3    H227550   8.133   6.780   3.926
 9203TIP3   OH227551   1.376   0.307   5.150
 9203TIP3    H127552   1.451   0.291   5.092
 9203TIP3    H227553   1.414   0.314   5.237
 9204TIP3   OH227554   3.299   4.504   1.068
 9204TIP3    H127555   3.253   4.577   1.110
 9204TIP3    H227556   3.374   4.544   1.026
 9205TIP3   OH227557   4.070   3.931   4.311
 9205TIP3    H127558   4.047   3.866   4.245
 9205TIP3    H227559   3.991   3.940   4.364
 9206TIP3   OH227560   2.126   3.360   0.415
 9206TIP3    H127561   2.030   3.361   0.411
 9206TIP3    H227562   2.147   3.403   0.498
 9207TIP3   OH227563   7.790   2.826   4.271
 9207TIP3    H127564   7.726   2.890   4.239
 9207TIP3    H227565   7.813   2.858   4.358
 9208TIP3   OH227566   0.737   6.014   4.911
 9208TIP3    H127567   0.822   5.971   4.899
 9208TIP3    H227568   0.759   6.102   4.940
 9209TIP3   OH227569   4.869   5.436   4.030
 9209TIP3    H127570   4.936   5.455   3.963
 9209TIP3    H227571   4.858   5.519   4.076
 9210TIP3   OH227572   6.642   2.681   4.116
 9210TIP3    H127573   6.638   2.709   4.208
 9210TIP3    H227574   6.599   2.751   4.068
 9211TIP3   OH227575   6.444   5.397   3.613
 9211TIP3    H127576   6.406   5.464   3.556
 9211TIP3    H227577   6.538   5.414   3.611
 9212TIP3   OH227578   6.864   0.296   1.533
 9212TIP3    H127579   6.786   0.292   1.476
 9212TIP3    H227580   6.937   0.298   1.472
 9213TIP3   OH227581   5.716   3.081   2.050
 9213TIP3    H127582   5.620   3.083   2.041
 9213TIP3    H227583   5.735   2.991   2.078
 9214TIP3   OH227584   6.259   1.636   2.319
 9214TIP3    H127585   6.263   1.550   2.359
 9214TIP3    H227586   6.216   1.691   2.384
 9215TIP3   OH227587   5.928   6.833   0.464
 9215TIP3    H127588   6.012   6.796   0.438
 9215TIP3    H227589   5.947   6.922   0.492
 9216TIP3   OH227590   2.407   7.681   3.250
 9216TIP3    H127591   2.435   7.709   3.163
 9216TIP3    H227592   2.456   7.601   3.266
 9217TIP3   OH227593   0.858   2.085   1.926
 9217TIP3    H127594   0.859   1.990   1.935
 9217TIP3    H227595   0.951   2.110   1.930
 9218TIP3   OH227596   4.500   5.508   6.482
 9218TIP3    H127597   4.515   5.532   6.391
 9218TIP3    H227598   4.456   5.423   6.477
 9219TIP3   OH227599   0.816   5.776   0.167
 9219TIP3    H127600   0.855   5.778   0.254
 9219TIP3    H227601   0.847   5.856   0.124
 9220TIP3   OH227602   0.335   1.107   6.062
 9220TIP3    H127603   0.369   1.056   6.136
 9220TIP3    H227604   0.382   1.072   5.986
 9221TIP3   OH227605   7.125   1.200   0.160
 9221TIP3    H127606   7.148   1.182   0.069
 9221TIP3    H227607   7.130   1.115   0.204
 9222TIP3   OH227608   4.540   1.141   5.890
 9222TIP3    H127609   4.507   1.223   5.853
 9222TIP3    H227610   4.487   1.073   5.849
 9223TIP3   OH227611   0.715   1.530   4.895
 9223TIP3    H127612   0.779   1.460   4.884
 9223TIP3    H227613   0.747   1.601   4.839
 9224TIP3   OH227614   0.356   5.032   4.968
 9224TIP3    H127615   0.286   5.057   4.907
 9224TIP3    H227616   0.325   4.950   5.007
 9225TIP3   OH227617   6.914   2.513   1.080
 9225TIP3    H127618   6.904   2.546   0.990
 9225TIP3    H227619   6.845   2.448   1.089
 9226TIP3   OH227620   2.209   3.658   4.804
 9226TIP3    H127621   2.128   3.709   4.799
 9226TIP3    H227622   2.255   3.695   4.880
 9227TIP3   OH227623   1.317   2.211   0.906
 9227TIP3    H127624   1.262   2.171   0.839
 9227TIP3    H227625   1.277   2.186   0.989
 9228TIP3   OH227626   3.579   4.154   0.242
 9228TIP3    H127627   3.597   4.147   0.148
 9228TIP3    H227628   3.589   4.065   0.275
 9229TIP3   OH227629   8.249   2.011   1.834
 9229TIP3    H127630   8.162   1.975   1.816
 9229TIP3    H227631   8.234   2.104   1.851
 9230TIP3   OH227632   4.090   1.778   6.066
 9230TIP3    H127633   4.163   1.788   6.004
 9230TIP3    H227634   4.064   1.868   6.087
 9231TIP3   OH227635   7.602   2.246   5.470
 9231TIP3    H127636   7.507   2.231   5.470
 9231TIP3    H227637   7.624   2.265   5.561
 9232TIP3   OH227638   7.972   7.437   4.372
 9232TIP3    H127639   8.020   7.490   4.435
 9232TIP3    H227640   7.963   7.352   4.414
 9233TIP3   OH227641   4.806   4.585   2.080
 9233TIP3    H127642   4.773   4.554   2.165
 9233TIP3    H227643   4.878   4.525   2.060
 9234TIP3   OH227644   5.070   0.698   1.119
 9234TIP3    H127645   4.981   0.727   1.099
 9234TIP3    H227646   5.061   0.605   1.141
 9235TIP3   OH227647   7.770   3.915   2.558
 9235TIP3    H127648   7.691   3.933   2.506
 9235TIP3    H227649   7.840   3.906   2.493
 9236TIP3   OH227650   2.554   3.537   5.637
 9236TIP3    H127651   2.595   3.491   5.710
 9236TIP3    H227652   2.486   3.591   5.677
 9237TIP3   OH227653   7.544   2.807   0.130
 9237TIP3    H127654   7.513   2.871   0.195
 9237TIP3    H227655   7.572   2.732   0.182
 9238TIP3   OH227656   2.294   1.133   3.823
 9238TIP3    H127657   2.347   1.162   3.748
 9238TIP3    H227658   2.226   1.200   3.831
 9239TIP3   OH227659   0.541   5.669   0.618
 9239TIP3    H127660   0.628   5.643   0.588
 9239TIP3    H227661   0.513   5.597   0.675
 9240TIP3   OH227662   6.870   1.405   3.162
 9240TIP3    H127663   6.907   1.382   3.076
 9240TIP3    H227664   6.882   1.326   3.214
 9241TIP3   OH227665   0.598   3.288   3.231
 9241TIP3    H127666   0.537   3.311   3.160
 9241TIP3    H227667   0.684   3.311   3.196
 9242TIP3   OH227668   1.831   3.787   0.089
 9242TIP3    H127669   1.873   3.704   0.108
 9242TIP3    H227670   1.903   3.850   0.080
 9243TIP3   OH227671   1.561   6.279   6.146
 9243TIP3    H127672   1.558   6.266   6.241
 9243TIP3    H227673   1.654   6.293   6.127
 9244TIP3   OH227674   3.363   6.263   2.682
 9244TIP3    H127675   3.307   6.339   2.698
 9244TIP3    H227676   3.452   6.295   2.698
 9245TIP3   OH227677   7.761   3.375   4.803
 9245TIP3    H127678   7.668   3.350   4.810
 9245TIP3    H227679   7.805   3.322   4.870
 9246TIP3   OH227680   4.042   5.292   3.856
 9246TIP3    H127681   4.128   5.293   3.814
 9246TIP3    H227682   4.037   5.375   3.903
 9247TIP3   OH227683   2.876   6.404   6.279
 9247TIP3    H127684   2.855   6.381   6.370
 9247TIP3    H227685   2.907   6.322   6.240
 9248TIP3   OH227686   0.640   4.305   0.969
 9248TIP3    H127687   0.654   4.229   1.026
 9248TIP3    H227688   0.670   4.277   0.883
 9249TIP3   OH227689   2.473   0.160   6.657
 9249TIP3    H127690   2.382   0.130   6.665
 9249TIP3    H227691   2.473   0.214   6.579
 9250TIP3   OH227692   5.680   1.437   5.571
 9250TIP3    H127693   5.770   1.471   5.573
 9250TIP3    H227694   5.683   1.357   5.625
 9251TIP3   OH227695   0.331   5.924   5.696
 9251TIP3    H127696   0.385   5.847   5.684
 9251TIP3    H227697   0.267   5.900   5.763
 9252TIP3   OH227698   1.026   5.919   2.786
 9252TIP3    H127699   1.041   6.002   2.740
 9252TIP3    H227700   1.106   5.905   2.836
 9253TIP3   OH227701   3.464   4.855   5.951
 9253TIP3    H127702   3.497   4.869   6.040
 9253TIP3    H227703   3.445   4.761   5.947
 9254TIP3   OH227704   4.431   7.593   1.469
 9254TIP3    H127705   4.511   7.552   1.436
 9254TIP3    H227706   4.428   7.569   1.561
 9255TIP3   OH227707   0.829   3.474   0.143
 9255TIP3    H127708   0.768   3.517   0.203
 9255TIP3    H227709   0.914   3.515   0.161
 9256TIP3   OH227710   6.285   1.289   2.619
 9256TIP3    H127711   6.350   1.308   2.687
 9256TIP3    H227712   6.252   1.201   2.642
 9257TIP3   OH227713   4.110   4.868   3.325
 9257TIP3    H127714   4.050   4.801   3.292
 9257TIP3    H227715   4.099   4.942   3.266
 9258TIP3   OH227716   0.502   7.434   0.390
 9258TIP3    H127717   0.581   7.400   0.431
 9258TIP3    H227718   0.533   7.499   0.328
 9259TIP3   OH227719   1.780  -0.050   1.816
 9259TIP3    H127720   1.780   0.015   1.886
 9259TIP3    H227721   1.733  -0.008   1.744
 9260TIP3   OH227722   4.925   3.936   5.578
 9260TIP3    H127723   5.000   3.879   5.563
 9260TIP3    H227724   4.910   3.931   5.673
 9261TIP3   OH227725   1.680   4.176   4.720
 9261TIP3    H127726   1.682   4.222   4.636
 9261TIP3    H227727   1.750   4.111   4.714
 9262TIP3   OH227728   2.544   1.658   0.333
 9262TIP3    H127729   2.485   1.717   0.287
 9262TIP3    H227730   2.561   1.588   0.270
 9263TIP3   OH227731   1.267   3.558   2.696
 9263TIP3    H127732   1.211   3.513   2.634
 9263TIP3    H227733   1.332   3.603   2.642
 9264TIP3   OH227734   7.982   3.371   6.192
 9264TIP3    H127735   7.922   3.428   6.145
 9264TIP3    H227736   8.006   3.420   6.271
 9265TIP3   OH227737   0.838   5.813   1.978
 9265TIP3    H127738   0.904   5.874   1.947
 9265TIP3    H227739   0.870   5.727   1.950
 9266TIP3   OH227740   3.772   5.602   6.089
 9266TIP3    H127741   3.744   5.536   6.152
 9266TIP3    H227742   3.701   5.605   6.025
 9267TIP3   OH227743   1.880   2.273   4.435
 9267TIP3    H127744   1.945   2.226   4.383
 9267TIP3    H227745   1.919   2.359   4.451
 9268TIP3   OH227746   1.624   1.838   0.052
 9268TIP3    H127747   1.559   1.804   0.113
 9268TIP3    H227748   1.697   1.777   0.058
 9269TIP3   OH227749   7.778   1.617   6.304
 9269TIP3    H127750   7.753   1.577   6.221
 9269TIP3    H227751   7.862   1.575   6.326
 9270TIP3   OH227752   5.253   1.928   4.784
 9270TIP3    H127753   5.233   1.900   4.874
 9270TIP3    H227754   5.239   1.849   4.732
 9271TIP3   OH227755   6.288   6.440   0.230
 9271TIP3    H127756   6.358   6.376   0.217
 9271TIP3    H227757   6.245   6.413   0.311
 9272TIP3   OH227758   7.964   7.771   1.179
 9272TIP3    H127759   7.907   7.795   1.106
 9272TIP3    H227760   8.021   7.703   1.144
 9273TIP3   OH227761   5.204   7.757   0.929
 9273TIP3    H127762   5.210   7.710   0.846
 9273TIP3    H227763   5.204   7.850   0.903
 9274TIP3   OH227764   0.719   5.961   4.549
 9274TIP3    H127765   0.633   5.923   4.564
 9274TIP3    H227766   0.712   6.050   4.583
 9275TIP3   OH227767   4.474   7.186   4.257
 9275TIP3    H127768   4.506   7.130   4.186
 9275TIP3    H227769   4.551   7.198   4.313
 9276TIP3   OH227770   3.270   1.389   1.128
 9276TIP3    H127771   3.305   1.355   1.046
 9276TIP3    H227772   3.182   1.353   1.135
 9277TIP3   OH227773   1.752   5.538   4.795
 9277TIP3    H127774   1.822   5.481   4.827
 9277TIP3    H227775   1.672   5.501   4.831
 9278TIP3   OH227776   5.936   3.020   2.495
 9278TIP3    H127777   5.872   3.057   2.555
 9278TIP3    H227778   6.018   3.020   2.545
 9279TIP3   OH227779   4.581   4.106   0.874
 9279TIP3    H127780   4.537   4.163   0.936
 9279TIP3    H227781   4.512   4.074   0.817
 9280TIP3   OH227782   0.261   2.006   4.766
 9280TIP3    H127783   0.240   1.922   4.806
 9280TIP3    H227784   0.268   2.067   4.839
 9281TIP3   OH227785   3.961   7.520   5.479
 9281TIP3    H127786   3.868   7.542   5.472
 9281TIP3    H227787   3.983   7.534   5.571
 9282TIP3   OH227788   0.872   0.542   4.498
 9282TIP3    H127789   0.892   0.614   4.559
 9282TIP3    H227790   0.779   0.524   4.513
 9283TIP3   OH227791   6.065   4.964   4.651
 9283TIP3    H127792   5.986   4.922   4.618
 9283TIP3    H227793   6.051   5.058   4.634
 9284TIP3   OH227794   3.403   6.866   0.252
 9284TIP3    H127795   3.408   6.800   0.322
 9284TIP3    H227796   3.315   6.902   0.259
 9285TIP3   OH227797   4.055   2.844   0.783
 9285TIP3    H127798   4.113   2.768   0.794
 9285TIP3    H227799   3.985   2.829   0.846
 9286TIP3   OH227800   6.840   7.011   1.444
 9286TIP3    H127801   6.852   7.100   1.476
 9286TIP3    H227802   6.746   6.996   1.446
 9287TIP3   OH227803   4.716   1.686   3.572
 9287TIP3    H127804   4.799   1.659   3.611
 9287TIP3    H227805   4.741   1.749   3.504
 9288TIP3   OH227806   3.728   5.063   1.227
 9288TIP3    H127807   3.740   5.115   1.306
 9288TIP3    H227808   3.640   5.027   1.235
 9289TIP3   OH227809   2.929   3.554   0.459
 9289TIP3    H127810   2.931   3.648   0.439
 9289TIP3    H227811   2.966   3.548   0.547
 9290TIP3   OH227812   0.306   6.716   5.886
 9290TIP3    H127813   0.235   6.715   5.822
 9290TIP3    H227814   0.381   6.680   5.839
 9291TIP3   OH227815   4.531   5.790   0.489
 9291TIP3    H127816   4.557   5.784   0.397
 9291TIP3    H227817   4.590   5.731   0.535
 9292TIP3   OH227818   0.936   1.057   3.683
 9292TIP3    H127819   0.937   1.141   3.728
 9292TIP3    H227820   0.883   1.000   3.739
 9293TIP3   OH227821   2.642   7.761   3.367
 9293TIP3    H127822   2.614   7.851   3.352
 9293TIP3    H227823   2.568   7.720   3.410
 9294TIP3   OH227824   4.567   1.907   1.827
 9294TIP3    H127825   4.555   1.899   1.922
 9294TIP3    H227826   4.584   1.999   1.812
 9295TIP3   OH227827   2.063   1.169   3.525
 9295TIP3    H127828   2.066   1.200   3.616
 9295TIP3    H227829   2.094   1.243   3.473
 9296TIP3   OH227830   2.155   6.224   6.727
 9296TIP3    H127831   2.065   6.198   6.748
 9296TIP3    H227832   2.208   6.188   6.799
 9297TIP3   OH227833   5.720   5.527   2.594
 9297TIP3    H127834   5.626   5.521   2.614
 9297TIP3    H227835   5.726   5.496   2.503
 9298TIP3   OH227836   2.324   3.997   0.361
 9298TIP3    H127837   2.391   4.061   0.336
 9298TIP3    H227838   2.244   4.048   0.370
 9299TIP3   OH227839   2.545   1.894   5.475
 9299TIP3    H127840   2.531   1.943   5.556
 9299TIP3    H227841   2.625   1.844   5.490
 9300TIP3   OH227842   0.074   5.820   6.435
 9300TIP3    H127843   0.097   5.913   6.444
 9300TIP3    H227844   0.094   5.782   6.521
 9301TIP3   OH227845   7.901   1.383   4.193
 9301TIP3    H127846   7.909   1.310   4.131
 9301TIP3    H227847   7.991   1.400   4.221
 9302TIP3   OH227848   2.024   6.863   0.660
 9302TIP3    H127849   2.117   6.860   0.637
 9302TIP3    H227850   1.992   6.775   0.641
 9303TIP3   OH227851   5.054   2.825   3.907
 9303TIP3    H127852   5.130   2.767   3.897
 9303TIP3    H227853   5.091   2.905   3.944
 9304TIP3   OH227854   7.141   4.415   1.978
 9304TIP3    H127855   7.236   4.429   1.972
 9304TIP3    H227856   7.131   4.320   1.985
 9305TIP3   OH227857   1.509   7.405   5.587
 9305TIP3    H127858   1.432   7.407   5.530
 9305TIP3    H227859   1.583   7.413   5.527
 9306TIP3   OH227860   1.045   5.726   1.159
 9306TIP3    H127861   1.111   5.796   1.152
 9306TIP3    H227862   1.043   5.687   1.072
 9307TIP3   OH227863   2.693   0.391   2.076
 9307TIP3    H127864   2.756   0.336   2.121
 9307TIP3    H227865   2.658   0.448   2.144
 9308TIP3   OH227866   1.702   6.860   4.966
 9308TIP3    H127867   1.689   6.947   4.926
 9308TIP3    H227868   1.755   6.812   4.903
 9309TIP3   OH227869   2.199   3.751   4.255
 9309TIP3    H127870   2.217   3.664   4.289
 9309TIP3    H227871   2.141   3.737   4.180
 9310TIP3   OH227872   2.038   7.613   4.050
 9310TIP3    H127873   2.129   7.620   4.080
 9310TIP3    H227874   2.028   7.686   3.988
 9311TIP3   OH227875   6.613   4.418   4.894
 9311TIP3    H127876   6.632   4.506   4.862
 9311TIP3    H227877   6.644   4.360   4.825
 9312TIP3   OH227878   1.750   1.955   5.016
 9312TIP3    H127879   1.710   2.014   4.953
 9312TIP3    H227880   1.827   2.001   5.048
 9313TIP3   OH227881  -0.011   6.299   6.101
 9313TIP3    H127882  -0.025   6.208   6.076
 9313TIP3    H227883   0.082   6.315   6.085
 9314TIP3   OH227884   2.111   5.550   6.645
 9314TIP3    H127885   2.117   5.637   6.683
 9314TIP3    H227886   2.024   5.547   6.605
 9315TIP3   OH227887   7.084   1.401   5.355
 9315TIP3    H127888   7.016   1.400   5.422
 9315TIP3    H227889   7.071   1.485   5.310
 9316TIP3   OH227890   1.115   2.993   6.066
 9316TIP3    H127891   1.054   2.960   6.000
 9316TIP3    H227892   1.181   2.925   6.075
 9317TIP3   OH227893   5.012   4.449   5.375
 9317TIP3    H127894   5.056   4.365   5.364
 9317TIP3    H227895   5.060   4.493   5.445
 9318TIP3   OH227896   6.378   5.134   3.617
 9318TIP3    H127897   6.421   5.105   3.697
 9318TIP3    H227898   6.409   5.224   3.603
 9319TIP3   OH227899   6.541   4.017   5.316
 9319TIP3    H127900   6.581   3.971   5.390
 9319TIP3    H227901   6.588   4.100   5.312
 9320TIP3   OH227902   8.327   1.603   2.840
 9320TIP3    H127903   8.408   1.608   2.891
 9320TIP3    H227904   8.259   1.636   2.898
 9321TIP3   OH227905   3.829   0.529   1.365
 9321TIP3    H127906   3.782   0.453   1.332
 9321TIP3    H227907   3.815   0.597   1.298
 9322TIP3   OH227908   5.369   0.853   4.660
 9322TIP3    H127909   5.324   0.803   4.728
 9322TIP3    H227910   5.299   0.890   4.607
 9323TIP3   OH227911   7.289   7.422   2.790
 9323TIP3    H127912   7.283   7.443   2.884
 9323TIP3    H227913   7.249   7.497   2.746
 9324TIP3   OH227914   7.164   6.311   5.748
 9324TIP3    H127915   7.219   6.237   5.721
 9324TIP3    H227916   7.115   6.278   5.823
 9325TIP3   OH227917   5.459   1.452   3.796
 9325TIP3    H127918   5.440   1.523   3.858
 9325TIP3    H227919   5.374   1.411   3.780
 9326TIP3   OH227920   8.190   2.529   5.473
 9326TIP3    H127921   8.111   2.483   5.503
 9326TIP3    H227922   8.237   2.464   5.420
 9327TIP3   OH227923   4.205   1.072   2.502
 9327TIP3    H127924   4.166   1.063   2.590
 9327TIP3    H227925   4.215   1.166   2.489
 9328TIP3   OH227926   2.513   6.930   5.759
 9328TIP3    H127927   2.559   6.977   5.689
 9328TIP3    H227928   2.574   6.862   5.787
 9329TIP3   OH227929   7.914   0.421   3.226
 9329TIP3    H127930   7.994   0.423   3.174
 9329TIP3    H227931   7.892   0.514   3.239
 9330TIP3   OH227932   2.332   0.376   1.011
 9330TIP3    H127933   2.360   0.313   1.078
 9330TIP3    H227934   2.383   0.455   1.029
 9331TIP3   OH227935   4.335   0.283   5.339
 9331TIP3    H127936   4.378   0.244   5.415
 9331TIP3    H227937   4.268   0.341   5.376
 9332TIP3   OH227938   4.864   2.518   3.943
 9332TIP3    H127939   4.856   2.492   3.851
 9332TIP3    H227940   4.943   2.473   3.973
 9333TIP3   OH227941   4.399   7.219   0.190
 9333TIP3    H127942   4.323   7.166   0.215
 9333TIP3    H227943   4.386   7.235   0.096
 9334TIP3   OH227944   6.542   1.277   0.899
 9334TIP3    H127945   6.625   1.249   0.860
 9334TIP3    H227946   6.554   1.370   0.916
 9335TIP3   OH227947   3.581   1.188   6.194
 9335TIP3    H127948   3.597   1.227   6.279
 9335TIP3    H227949   3.625   1.246   6.132
 9336TIP3   OH227950   7.505   6.819   2.793
 9336TIP3    H127951   7.500   6.771   2.876
 9336TIP3    H227952   7.521   6.910   2.819
 9337TIP3   OH227953   7.119   5.074   1.589
 9337TIP3    H127954   7.103   5.143   1.524
 9337TIP3    H227955   7.096   5.114   1.673
 9338TIP3   OH227956   0.961   4.649   4.757
 9338TIP3    H127957   0.888   4.621   4.812
 9338TIP3    H227958   0.939   4.618   4.669
 9339TIP3   OH227959   2.102   7.509   6.445
 9339TIP3    H127960   2.050   7.563   6.386
 9339TIP3    H227961   2.105   7.559   6.527
 9340TIP3   OH227962   3.197   7.348   5.696
 9340TIP3    H127963   3.152   7.405   5.759
 9340TIP3    H227964   3.129   7.323   5.633
 9341TIP3   OH227965   4.129   1.769   3.781
 9341TIP3    H127966   4.053   1.817   3.814
 9341TIP3    H227967   4.115   1.679   3.810
 9342TIP3   OH227968   6.649   0.484   2.361
 9342TIP3    H127969   6.614   0.569   2.333
 9342TIP3    H227970   6.740   0.485   2.332
 9343TIP3   OH227971   7.790   6.013   4.324
 9343TIP3    H127972   7.716   5.999   4.382
 9343TIP3    H227973   7.752   6.051   4.245
 9344TIP3   OH227974   6.427   3.331   6.754
 9344TIP3    H127975   6.376   3.292   6.824
 9344TIP3    H227976   6.518   3.317   6.779
 9345TIP3   OH227977   2.994   3.757   5.964
 9345TIP3    H127978   3.003   3.816   6.039
 9345TIP3    H227979   2.901   3.734   5.962
 9346TIP3   OH227980   5.296   0.708   4.120
 9346TIP3    H127981   5.322   0.705   4.212
 9346TIP3    H227982   5.201   0.694   4.121
 9347TIP3   OH227983   0.945   1.052   3.259
 9347TIP3    H127984   1.026   1.036   3.307
 9347TIP3    H227985   0.876   1.021   3.318
 9348TIP3   OH227986   6.895   7.729   1.336
 9348TIP3    H127987   6.862   7.682   1.259
 9348TIP3    H227988   6.937   7.661   1.388
 9349TIP3   OH227989   1.525   1.531   0.145
 9349TIP3    H127990   1.466   1.467   0.104
 9349TIP3    H227991   1.603   1.531   0.089
 9350TIP3   OH227992   6.133   6.284   2.232
 9350TIP3    H127993   6.172   6.215   2.285
 9350TIP3    H227994   6.162   6.366   2.274
 9351TIP3   OH227995   8.159   7.165   4.224
 9351TIP3    H127996   8.175   7.132   4.136
 9351TIP3    H227997   8.064   7.167   4.233
 9352TIP3   OH227998   6.795   0.679   3.068
 9352TIP3    H127999   6.772   0.755   3.014
 9352TIP3    H228000   6.764   0.701   3.155
 9353TIP3   OH228001   7.738   6.338   0.498
 9353TIP3    H128002   7.775   6.250   0.498
 9353TIP3    H228003   7.714   6.354   0.406
 9354TIP3   OH228004   3.650   0.596   5.883
 9354TIP3    H128005   3.594   0.527   5.849
 9354TIP3    H228006   3.694   0.556   5.958
 9355TIP3   OH228007   7.345   7.603   4.473
 9355TIP3    H128008   7.321   7.521   4.429
 9355TIP3    H228009   7.316   7.671   4.413
 9356TIP3   OH228010   4.610   6.891   6.708
 9356TIP3    H128011   4.556   6.969   6.699
 9356TIP3    H228012   4.624   6.860   6.618
 9357TIP3   OH228013   2.407   4.580   2.923
 9357TIP3    H128014   2.454   4.549   2.845
 9357TIP3    H228015   2.344   4.510   2.943
 9358TIP3   OH228016   7.603   4.543   3.540
 9358TIP3    H128017   7.654   4.555   3.460
 9358TIP3    H228018   7.636   4.462   3.578
 9359TIP3   OH228019   4.524   2.339   5.666
 9359TIP3    H128020   4.438   2.321   5.629
 9359TIP3    H228021   4.509   2.348   5.760
 9360TIP3   OH228022   3.900   3.050   1.704
 9360TIP3    H128023   3.829   3.055   1.768
 9360TIP3    H228024   3.980   3.046   1.757
 9361TIP3   OH228025   0.136   4.104   5.826
 9361TIP3    H128026   0.157   4.196   5.845
 9361TIP3    H228027   0.082   4.108   5.747
 9362TIP3   OH228028   6.523   4.198   1.989
 9362TIP3    H128029   6.458   4.137   1.955
 9362TIP3    H228030   6.603   4.177   1.942
 9363TIP3   OH228031   3.419   2.420   3.206
 9363TIP3    H128032   3.447   2.398   3.117
 9363TIP3    H228033   3.493   2.469   3.243
 9364TIP3   OH228034   2.772   3.434   3.471
 9364TIP3    H128035   2.748   3.379   3.396
 9364TIP3    H228036   2.690   3.445   3.519
 9365TIP3   OH228037   4.487   4.294   1.047
 9365TIP3    H128038   4.532   4.347   1.112
 9365TIP3    H228039   4.398   4.284   1.083
 9366TIP3   OH228040   8.234   1.728   6.641
 9366TIP3    H128041   8.311   1.778   6.669
 9366TIP3    H228042   8.181   1.792   6.594
 9367TIP3   OH228043   5.412   3.828   3.676
 9367TIP3    H128044   5.318   3.833   3.694
 9367TIP3    H228045   5.417   3.812   3.582
 9368TIP3   OH228046   4.700   0.490   2.069
 9368TIP3    H128047   4.772   0.521   2.014
 9368TIP3    H228048   4.658   0.570   2.101
 9369TIP3   OH228049   5.073   6.744   1.324
 9369TIP3    H128050   5.029   6.663   1.296
 9369TIP3    H228051   5.166   6.725   1.315
 9370TIP3   OH228052   2.230   6.708   4.704
 9370TIP3    H128053   2.201   6.641   4.642
 9370TIP3    H228054   2.263   6.659   4.779
 9371TIP3   OH228055   4.501   0.544   5.296
 9371TIP3    H128056   4.483   0.638   5.301
 9371TIP3    H228057   4.415   0.503   5.297
 9372TIP3   OH228058   0.389   1.651   4.326
 9372TIP3    H128059   0.447   1.603   4.386
 9372TIP3    H228060   0.429   1.640   4.240
 9373TIP3   OH228061   0.686   3.646   2.179
 9373TIP3    H128062   0.693   3.639   2.274
 9373TIP3    H228063   0.605   3.695   2.164
 9374TIP3   OH228064   1.736   4.676   4.311
 9374TIP3    H128065   1.764   4.761   4.347
 9374TIP3    H228066   1.654   4.657   4.357
 9375TIP3   OH228067   3.697   5.564   3.602
 9375TIP3    H128068   3.775   5.535   3.554
 9375TIP3    H228069   3.626   5.554   3.539
 9376TIP3   OH228070   4.352   6.544   5.585
 9376TIP3    H128071   4.297   6.586   5.519
 9376TIP3    H228072   4.414   6.490   5.536
 9377TIP3   OH228073   2.806   5.535   1.861
 9377TIP3    H128074   2.712   5.538   1.877
 9377TIP3    H228075   2.821   5.600   1.793
 9378TIP3   OH228076   2.510   4.426   2.690
 9378TIP3    H128077   2.432   4.371   2.685
 9378TIP3    H228078   2.538   4.435   2.599
 9379TIP3   OH228079   6.936   4.698   2.699
 9379TIP3    H128080   6.973   4.616   2.665
 9379TIP3    H228081   6.988   4.717   2.777
 9380TIP3   OH228082   3.540   3.732   3.292
 9380TIP3    H128083   3.474   3.791   3.327
 9380TIP3    H228084   3.590   3.703   3.368
 9381TIP3   OH228085   7.978   2.702   1.379
 9381TIP3    H128086   7.942   2.635   1.437
 9381TIP3    H228087   7.914   2.708   1.308
 9382TIP3   OH228088   6.360   4.357   4.977
 9382TIP3    H128089   6.361   4.426   5.044
 9382TIP3    H228090   6.441   4.369   4.928
 9383TIP3   OH228091   3.229   1.194   2.099
 9383TIP3    H128092   3.321   1.217   2.093
 9383TIP3    H228093   3.202   1.224   2.186
 9384TIP3   OH228094   1.348   4.694   5.791
 9384TIP3    H128095   1.356   4.772   5.846
 9384TIP3    H228096   1.408   4.710   5.718
 9385TIP3   OH228097   7.733   0.710   5.219
 9385TIP3    H128098   7.637   0.709   5.221
 9385TIP3    H228099   7.759   0.739   5.306
 9386TIP3   OH228100   5.206   0.058   4.298
 9386TIP3    H128101   5.139   0.106   4.346
 9386TIP3    H228102   5.269   0.126   4.272
 9387TIP3   OH228103   1.059   3.328   2.848
 9387TIP3    H128104   1.139   3.295   2.888
 9387TIP3    H228105   1.054   3.419   2.877
 9388TIP3   OH228106   1.044   4.225   6.595
 9388TIP3    H128107   0.989   4.147   6.580
 9388TIP3    H228108   1.130   4.201   6.561
 9389TIP3   OH228109   0.799   3.007   0.306
 9389TIP3    H128110   0.894   3.011   0.318
 9389TIP3    H228111   0.763   3.036   0.390
 9390TIP3   OH228112   2.625   1.358   3.985
 9390TIP3    H128113   2.610   1.268   3.958
 9390TIP3    H228114   2.629   1.407   3.903
 9391TIP3   OH228115   1.655   2.168   2.740
 9391TIP3    H128116   1.649   2.128   2.654
 9391TIP3    H228117   1.565   2.175   2.770
 9392TIP3   OH228118   6.155   0.721   5.614
 9392TIP3    H128119   6.180   0.813   5.624
 9392TIP3    H228120   6.081   0.710   5.673
 9393TIP3   OH228121   6.337   7.250   6.646
 9393TIP3    H128122   6.290   7.238   6.728
 9393TIP3    H228123   6.365   7.341   6.647
 9394TIP3   OH228124   2.794   3.976   3.794
 9394TIP3    H128125   2.707   3.967   3.832
 9394TIP3    H228126   2.801   3.903   3.732
 9395TIP3   OH228127   7.506   5.639   3.216
 9395TIP3    H128128   7.570   5.687   3.164
 9395TIP3    H228129   7.421   5.668   3.183
 9396TIP3   OH228130   5.923   2.689   1.299
 9396TIP3    H128131   5.968   2.719   1.220
 9396TIP3    H228132   5.955   2.747   1.368
 9397TIP3   OH228133   4.373   4.584   3.328
 9397TIP3    H128134   4.463   4.563   3.354
 9397TIP3    H228135   4.333   4.619   3.408
 9398TIP3   OH228136   2.572   5.117   0.553
 9398TIP3    H128137   2.539   5.044   0.606
 9398TIP3    H228138   2.597   5.184   0.617
 9399TIP3   OH228139   4.809   2.766   4.029
 9399TIP3    H128140   4.816   2.672   4.013
 9399TIP3    H228141   4.888   2.803   3.990
 9400TIP3   OH228142   1.661   7.733   0.987
 9400TIP3    H128143   1.662   7.822   1.023
 9400TIP3    H228144   1.616   7.681   1.053
 9401TIP3   OH228145   3.142   7.543   4.098
 9401TIP3    H128146   3.147   7.491   4.178
 9401TIP3    H228147   3.054   7.528   4.064
 9402TIP3   OH228148   0.263   7.528   4.369
 9402TIP3    H128149   0.276   7.440   4.404
 9402TIP3    H228150   0.170   7.531   4.346
 9403TIP3   OH228151   4.218   4.352   1.230
 9403TIP3    H128152   4.132   4.395   1.233
 9403TIP3    H228153   4.278   4.418   1.266
 9404TIP3   OH228154   4.039   0.228   3.926
 9404TIP3    H128155   4.133   0.233   3.908
 9404TIP3    H228156   3.998   0.257   3.844
 9405TIP3   OH228157   5.508   3.327   5.100
 9405TIP3    H128158   5.570   3.369   5.160
 9405TIP3    H228159   5.509   3.235   5.125
 9406TIP3   OH228160   4.713   5.871   6.300
 9406TIP3    H128161   4.774   5.811   6.257
 9406TIP3    H228162   4.725   5.954   6.254
 9407TIP3   OH228163   2.096   0.598   2.787
 9407TIP3    H128164   2.110   0.516   2.741
 9407TIP3    H228165   2.008   0.626   2.761
 9408TIP3   OH228166   2.426   6.355   2.491
 9408TIP3    H128167   2.384   6.331   2.574
 9408TIP3    H228168   2.388   6.440   2.469
 9409TIP3   OH228169   0.081   4.798   4.180
 9409TIP3    H128170   0.036   4.831   4.258
 9409TIP3    H228171   0.138   4.870   4.153
 9410TIP3   OH228172   4.875   6.318   3.927
 9410TIP3    H128173   4.934   6.318   3.853
 9410TIP3    H228174   4.908   6.250   3.985
 9411TIP3   OH228175   5.011   0.138   6.048
 9411TIP3    H128176   5.075   0.192   6.002
 9411TIP3    H228177   4.972   0.083   5.980
 9412TIP3   OH228178   5.850   1.596   5.766
 9412TIP3    H128179   5.875   1.594   5.858
 9412TIP3    H228180   5.754   1.601   5.767
 9413TIP3   OH228181   0.582   3.637   0.679
 9413TIP3    H128182   0.581   3.638   0.775
 9413TIP3    H228183   0.555   3.725   0.654
 9414TIP3   OH228184   2.403   1.187   6.403
 9414TIP3    H128185   2.447   1.105   6.428
 9414TIP3    H228186   2.406   1.187   6.307
 9415TIP3   OH228187   0.556   0.678   0.373
 9415TIP3    H128188   0.479   0.709   0.325
 9415TIP3    H228189   0.533   0.588   0.399
 9416TIP3   OH228190   1.064   2.903   0.101
 9416TIP3    H128191   1.128   2.912   0.171
 9416TIP3    H228192   1.115   2.910   0.020
 9417TIP3   OH228193   2.332   0.661   3.514
 9417TIP3    H128194   2.366   0.747   3.489
 9417TIP3    H228195   2.263   0.680   3.578
 9418TIP3   OH228196   0.816   7.124   3.146
 9418TIP3    H128197   0.815   7.082   3.060
 9418TIP3    H228198   0.727   7.117   3.179
 9419TIP3   OH228199   3.608   3.885   0.241
 9419TIP3    H128200   3.630   3.848   0.156
 9419TIP3    H228201   3.519   3.854   0.259
 9420TIP3   OH228202   6.311   1.262   1.546
 9420TIP3    H128203   6.328   1.182   1.596
 9420TIP3    H228204   6.216   1.270   1.546
 9421TIP3   OH228205   5.259   1.388   5.728
 9421TIP3    H128206   5.322   1.458   5.708
 9421TIP3    H228207   5.173   1.432   5.725
 9422TIP3   OH228208   8.292   1.750   0.489
 9422TIP3    H128209   8.369   1.803   0.468
 9422TIP3    H228210   8.222   1.814   0.502
 9423TIP3   OH228211   4.947   4.793   2.922
 9423TIP3    H128212   4.967   4.747   3.003
 9423TIP3    H228213   4.955   4.886   2.944
 9424TIP3   OH228214   3.112   4.204   3.196
 9424TIP3    H128215   3.120   4.109   3.199
 9424TIP3    H228216   3.202   4.236   3.210
 9425TIP3   OH228217   0.590   0.702   1.139
 9425TIP3    H128218   0.531   0.639   1.179
 9425TIP3    H228219   0.639   0.651   1.075
 9426TIP3   OH228220   7.709   7.347   3.734
 9426TIP3    H128221   7.644   7.331   3.803
 9426TIP3    H228222   7.660   7.388   3.663
 9427TIP3   OH228223   0.190   3.849   1.306
 9427TIP3    H128224   0.146   3.929   1.335
 9427TIP3    H228225   0.247   3.878   1.234
 9428TIP3   OH228226   7.175   3.115   4.422
 9428TIP3    H128227   7.211   3.181   4.362
 9428TIP3    H228228   7.227   3.124   4.501
 9429TIP3   OH228229   1.540   1.559   6.750
 9429TIP3    H128230   1.484   1.613   6.806
 9429TIP3    H228231   1.626   1.601   6.754
 9430TIP3   OH228232   0.269   6.047   0.367
 9430TIP3    H128233   0.273   6.123   0.426
 9430TIP3    H228234   0.312   5.977   0.415
 9431TIP3   OH228235   1.188   2.487   1.962
 9431TIP3    H128236   1.150   2.420   1.904
 9431TIP3    H228237   1.113   2.522   2.010
 9432TIP3   OH228238   8.149   3.076   0.910
 9432TIP3    H128239   8.162   3.153   0.966
 9432TIP3    H228240   8.063   3.090   0.870
 9433TIP3   OH228241   4.354   6.445   6.520
 9433TIP3    H128242   4.370   6.418   6.611
 9433TIP3    H228243   4.274   6.399   6.496
 9434TIP3   OH228244   3.844   0.212   0.414
 9434TIP3    H128245   3.824   0.119   0.424
 9434TIP3    H228246   3.780   0.256   0.470
 9435TIP3   OH228247   6.488   7.005   6.608
 9435TIP3    H128248   6.524   6.974   6.525
 9435TIP3    H228249   6.479   7.100   6.596
 9436TIP3   OH228250   1.995   4.632   0.494
 9436TIP3    H128251   1.983   4.719   0.454
 9436TIP3    H228252   2.067   4.644   0.556
 9437TIP3   OH228253   3.764   1.806   1.243
 9437TIP3    H128254   3.758   1.721   1.200
 9437TIP3    H228255   3.674   1.840   1.240
 9438TIP3   OH228256   6.822   4.303   0.225
 9438TIP3    H128257   6.731   4.276   0.237
 9438TIP3    H228258   6.816   4.385   0.175
 9439TIP3   OH228259   6.238   2.808   3.015
 9439TIP3    H128260   6.279   2.799   2.929
 9439TIP3    H228261   6.225   2.717   3.045
 9440TIP3   OH228262   0.690   2.272   4.508
 9440TIP3    H128263   0.757   2.317   4.560
 9440TIP3    H228264   0.623   2.247   4.571
 9441TIP3   OH228265   2.085   7.515   1.162
 9441TIP3    H128266   2.099   7.560   1.246
 9441TIP3    H228267   1.991   7.520   1.148
 9442TIP3   OH228268   1.669   6.290   5.317
 9442TIP3    H128269   1.679   6.358   5.250
 9442TIP3    H228270   1.682   6.208   5.271
 9443TIP3   OH228271   3.335   0.065   3.690
 9443TIP3    H128272   3.244   0.043   3.667
 9443TIP3    H228273   3.367  -0.011   3.737
 9444TIP3   OH228274   2.690   1.926   6.045
 9444TIP3    H128275   2.651   1.847   6.010
 9444TIP3    H228276   2.761   1.947   5.984
 9445TIP3   OH228277   3.217   3.602   4.168
 9445TIP3    H128278   3.275   3.677   4.156
 9445TIP3    H228279   3.249   3.559   4.247
 9446TIP3   OH228280   4.311   7.384   5.575
 9446TIP3    H128281   4.267   7.468   5.573
 9446TIP3    H228282   4.296   7.351   5.664
 9447TIP3   OH228283   0.106   6.986   6.013
 9447TIP3    H128284   0.023   7.029   5.995
 9447TIP3    H228285   0.162   7.009   5.938
 9448TIP3   OH228286   2.526   1.833   4.355
 9448TIP3    H128287   2.553   1.791   4.273
 9448TIP3    H228288   2.443   1.876   4.333
 9449TIP3   OH228289   8.091   0.680   6.534
 9449TIP3    H128290   8.143   0.600   6.526
 9449TIP3    H228291   8.000   0.652   6.523
 9450TIP3   OH228292   0.900   0.880   2.627
 9450TIP3    H128293   0.903   0.964   2.581
 9450TIP3    H228294   0.844   0.897   2.703
 9451TIP3   OH228295   1.789   5.094   2.183
 9451TIP3    H128296   1.721   5.161   2.177
 9451TIP3    H228297   1.751   5.027   2.240
 9452TIP3   OH228298   1.339   6.535   0.283
 9452TIP3    H128299   1.431   6.558   0.277
 9452TIP3    H228300   1.320   6.490   0.200
 9453TIP3   OH228301   6.698   4.127   3.392
 9453TIP3    H128302   6.734   4.139   3.480
 9453TIP3    H228303   6.626   4.065   3.405
 9454TIP3   OH228304   6.501   1.467   3.426
 9454TIP3    H128305   6.467   1.469   3.515
 9454TIP3    H228306   6.521   1.375   3.410
 9455TIP3   OH228307   2.365   1.294   2.608
 9455TIP3    H128308   2.445   1.259   2.649
 9455TIP3    H228309   2.396   1.365   2.552
 9456TIP3   OH228310   7.058   4.113   5.408
 9456TIP3    H128311   7.081   4.038   5.463
 9456TIP3    H228312   7.022   4.177   5.469
 9457TIP3   OH228313   3.165   5.019   4.357
 9457TIP3    H128314   3.160   5.115   4.359
 9457TIP3    H228315   3.208   4.999   4.273
 9458TIP3   OH228316   2.937   6.007   1.578
 9458TIP3    H128317   2.991   6.002   1.657
 9458TIP3    H228318   2.999   6.006   1.506
 9459TIP3   OH228319   4.194   1.345   2.415
 9459TIP3    H128320   4.202   1.367   2.322
 9459TIP3    H228321   4.136   1.412   2.451
 9460TIP3   OH228322   1.018   5.947   3.196
 9460TIP3    H128323   1.051   6.000   3.124
 9460TIP3    H228324   1.083   5.878   3.208
 9461TIP3   OH228325   7.316   3.546   2.315
 9461TIP3    H128326   7.366   3.464   2.319
 9461TIP3    H228327   7.232   3.521   2.276
 9462TIP3   OH228328   5.203   2.218   4.621
 9462TIP3    H128329   5.213   2.126   4.643
 9462TIP3    H228330   5.290   2.246   4.593
 9463TIP3   OH228331   3.305   1.073   2.466
 9463TIP3    H128332   3.391   1.090   2.428
 9463TIP3    H228333   3.268   1.003   2.413
 9464TIP3   OH228334   3.203   2.314   6.540
 9464TIP3    H128335   3.230   2.405   6.540
 9464TIP3    H228336   3.285   2.265   6.545
 9465TIP3   OH228337   3.173   2.658   1.532
 9465TIP3    H128338   3.187   2.750   1.510
 9465TIP3    H228339   3.254   2.615   1.503
 9466TIP3   OH228340   7.880   4.540   0.050
 9466TIP3    H128341   7.929   4.569   0.127
 9466TIP3    H228342   7.928   4.464   0.018
 9467TIP3   OH228343   7.975   6.055   1.258
 9467TIP3    H128344   7.890   6.077   1.296
 9467TIP3    H228345   7.996   6.129   1.203
 9468TIP3   OH228346   5.287   6.903   2.452
 9468TIP3    H128347   5.257   6.812   2.447
 9468TIP3    H228348   5.224   6.946   2.509
 9469TIP3   OH228349   1.697   1.266   3.051
 9469TIP3    H128350   1.737   1.180   3.064
 9469TIP3    H228351   1.761   1.315   2.999
 9470TIP3   OH228352   6.360   1.195   0.454
 9470TIP3    H128353   6.353   1.246   0.535
 9470TIP3    H228354   6.327   1.254   0.386
 9471TIP3   OH228355   3.944   7.365   6.299
 9471TIP3    H128356   3.963   7.459   6.294
 9471TIP3    H228357   3.854   7.357   6.269
 9472TIP3   OH228358   2.954   6.028   3.330
 9472TIP3    H128359   2.961   5.947   3.381
 9472TIP3    H228360   3.017   6.087   3.370
 9473TIP3   OH228361   0.003   6.798   4.751
 9473TIP3    H128362   0.069   6.850   4.707
 9473TIP3    H228363  -0.068   6.859   4.769
 9474TIP3   OH228364   8.078   3.314   2.558
 9474TIP3    H128365   8.110   3.242   2.611
 9474TIP3    H228366   8.157   3.358   2.526
 9475TIP3   OH228367   0.618   3.191   1.657
 9475TIP3    H128368   0.563   3.224   1.727
 9475TIP3    H228369   0.700   3.168   1.700
 9476TIP3   OH228370   7.759   6.715   5.377
 9476TIP3    H128371   7.689   6.780   5.370
 9476TIP3    H228372   7.759   6.689   5.469
 9477TIP3   OH228373   3.047   1.211   5.533
 9477TIP3    H128374   3.104   1.173   5.600
 9477TIP3    H228375   3.088   1.185   5.450
 9478TIP3   OH228376   7.470   7.096   6.762
 9478TIP3    H128377   7.483   7.123   6.671
 9478TIP3    H228378   7.445   7.177   6.808
 9479TIP3   OH228379   2.860   5.315   3.951
 9479TIP3    H128380   2.930   5.274   3.900
 9479TIP3    H228381   2.812   5.241   3.989
 9480TIP3   OH228382   7.559   3.940   2.932
 9480TIP3    H128383   7.603   3.876   2.876
 9480TIP3    H228384   7.535   4.011   2.873
 9481TIP3   OH228385   6.635   2.477   0.108
 9481TIP3    H128386   6.726   2.482   0.077
 9481TIP3    H228387   6.583   2.512   0.036
 9482TIP3   OH228388   3.898   6.782   4.846
 9482TIP3    H128389   3.819   6.835   4.839
 9482TIP3    H228390   3.932   6.802   4.933
 9483TIP3   OH228391   0.250   0.864   6.637
 9483TIP3    H128392   0.249   0.926   6.709
 9483TIP3    H228393   0.161   0.867   6.601
 9484TIP3   OH228394   0.426   4.680   4.549
 9484TIP3    H128395   0.346   4.628   4.563
 9484TIP3    H228396   0.432   4.689   4.454
 9485TIP3   OH228397   5.842   7.729   2.133
 9485TIP3    H128398   5.753   7.764   2.122
 9485TIP3    H228399   5.884   7.789   2.195
 9486TIP3   OH228400   3.485   5.243   4.165
 9486TIP3    H128401   3.542   5.288   4.102
 9486TIP3    H228402   3.546   5.200   4.225
 9487TIP3   OH228403   3.482   3.817   6.486
 9487TIP3    H128404   3.508   3.868   6.409
 9487TIP3    H228405   3.439   3.740   6.449
 9488TIP3   OH228406   3.919   0.372   0.199
 9488TIP3    H128407   4.009   0.400   0.182
 9488TIP3    H228408   3.926   0.309   0.270
 9489TIP3   OH228409   4.174   2.437   5.355
 9489TIP3    H128410   4.216   2.388   5.425
 9489TIP3    H228411   4.215   2.404   5.275
 9490TIP3   OH228412   8.121   0.241   6.100
 9490TIP3    H128413   8.034   0.230   6.139
 9490TIP3    H228414   8.138   0.335   6.107
 9491TIP3   OH228415   0.900   5.106   2.363
 9491TIP3    H128416   0.853   5.083   2.283
 9491TIP3    H228417   0.859   5.053   2.431
 9492TIP3   OH228418   0.518   4.142   2.582
 9492TIP3    H128419   0.559   4.132   2.496
 9492TIP3    H228420   0.467   4.223   2.576
 9493TIP3   OH228421   3.991   6.912   1.288
 9493TIP3    H128422   3.951   6.999   1.293
 9493TIP3    H228423   3.928   6.859   1.239
 9494TIP3   OH228424   1.426   2.690   0.833
 9494TIP3    H128425   1.496   2.712   0.772
 9494TIP3    H228426   1.407   2.598   0.817
 9495TIP3   OH228427   4.936   5.565   3.216
 9495TIP3    H128428   4.909   5.476   3.239
 9495TIP3    H228429   5.030   5.558   3.198
 9496TIP3   OH228430   0.897   3.650   6.538
 9496TIP3    H128431   0.978   3.699   6.552
 9496TIP3    H228432   0.893   3.589   6.611
 9497TIP3   OH228433   5.597   6.510   1.124
 9497TIP3    H128434   5.638   6.445   1.067
 9497TIP3    H228435   5.504   6.501   1.107
 9498TIP3   OH228436   1.420   0.455   2.946
 9498TIP3    H128437   1.492   0.518   2.940
 9498TIP3    H228438   1.345   0.507   2.976
 9499TIP3   OH228439   4.770   6.607   1.895
 9499TIP3    H128440   4.795   6.599   1.987
 9499TIP3    H228441   4.798   6.695   1.870
 9500TIP3   OH228442   0.338   1.500   0.531
 9500TIP3    H128443   0.290   1.541   0.459
 9500TIP3    H228444   0.314   1.408   0.527
 9501TIP3   OH228445   1.724   6.473   4.808
 9501TIP3    H128446   1.779   6.549   4.792
 9501TIP3    H228447   1.636   6.499   4.781
 9502TIP3   OH228448   6.536   3.618   4.072
 9502TIP3    H128449   6.579   3.535   4.050
 9502TIP3    H228450   6.525   3.662   3.987
 9503TIP3   OH228451   2.764   4.632   6.449
 9503TIP3    H128452   2.728   4.643   6.362
 9503TIP3    H228453   2.859   4.622   6.435
 9504TIP3   OH228454   2.823   6.418   3.424
 9504TIP3    H128455   2.766   6.483   3.465
 9504TIP3    H228456   2.869   6.376   3.497
 9505TIP3   OH228457   5.358   1.773   1.313
 9505TIP3    H128458   5.409   1.852   1.295
 9505TIP3    H228459   5.356   1.767   1.409
 9506TIP3   OH228460   6.825   4.841   5.336
 9506TIP3    H128461   6.872   4.918   5.305
 9506TIP3    H228462   6.771   4.873   5.409
 9507TIP3   OH228463   3.061   3.933   6.214
 9507TIP3    H128464   3.027   3.977   6.292
 9507TIP3    H228465   3.135   3.881   6.247
 9508TIP3   OH228466   5.763   6.514   5.440
 9508TIP3    H128467   5.776   6.541   5.349
 9508TIP3    H228468   5.792   6.422   5.442
 9509TIP3   OH228469   0.712   1.325   3.639
 9509TIP3    H128470   0.733   1.343   3.547
 9509TIP3    H228471   0.797   1.307   3.680
 9510TIP3   OH228472   2.459   3.821   6.165
 9510TIP3    H128473   2.482   3.822   6.258
 9510TIP3    H228474   2.370   3.786   6.163
 9511TIP3   OH228475   8.324   7.135   0.344
 9511TIP3    H128476   8.308   7.130   0.250
 9511TIP3    H228477   8.239   7.116   0.384
 9512TIP3   OH228478   1.280   5.954   5.812
 9512TIP3    H128479   1.292   5.948   5.718
 9512TIP3    H228480   1.333   6.029   5.839
 9513TIP3   OH228481   7.174   0.871   5.117
 9513TIP3    H128482   7.158   0.797   5.058
 9513TIP3    H228483   7.226   0.932   5.065
 9514TIP3   OH228484   4.800   1.990   2.201
 9514TIP3    H128485   4.866   2.043   2.246
 9514TIP3    H228486   4.833   1.900   2.208
 9515TIP3   OH228487   2.785   0.338   1.808
 9515TIP3    H128488   2.747   0.371   1.889
 9515TIP3    H228489   2.718   0.356   1.742
 9516TIP3   OH228490   3.670   5.072   0.702
 9516TIP3    H128491   3.654   5.115   0.618
 9516TIP3    H228492   3.757   5.032   0.693
 9517TIP3   OH228493   4.883   1.852   6.301
 9517TIP3    H128494   4.950   1.917   6.322
 9517TIP3    H228495   4.933   1.775   6.274
 9518TIP3   OH228496   1.350   6.334   2.767
 9518TIP3    H128497   1.345   6.240   2.781
 9518TIP3    H228498   1.423   6.363   2.822
 9519TIP3   OH228499   3.330   1.310   4.157
 9519TIP3    H128500   3.405   1.258   4.186
 9519TIP3    H228501   3.292   1.259   4.085
 9520TIP3   OH228502   8.205   6.406   6.346
 9520TIP3    H128503   8.197   6.313   6.367
 9520TIP3    H228504   8.224   6.408   6.252
 9521TIP3   OH228505   4.088   7.496   5.084
 9521TIP3    H128506   4.025   7.425   5.067
 9521TIP3    H228507   4.124   7.476   5.170
 9522TIP3   OH228508   7.845   6.171   3.187
 9522TIP3    H128509   7.897   6.233   3.136
 9522TIP3    H228510   7.856   6.199   3.278
 9523TIP3   OH228511   7.914   3.721   1.511
 9523TIP3    H128512   7.873   3.806   1.498
 9523TIP3    H228513   7.905   3.677   1.426
 9524TIP3   OH228514   7.422   3.015   0.281
 9524TIP3    H128515   7.412   3.074   0.207
 9524TIP3    H228516   7.428   3.073   0.357
 9525TIP3   OH228517   3.100   6.093   4.363
 9525TIP3    H128518   3.131   6.023   4.305
 9525TIP3    H228519   3.046   6.148   4.306
 9526TIP3   OH228520   5.391   5.749   0.878
 9526TIP3    H128521   5.454   5.773   0.810
 9526TIP3    H228522   5.373   5.831   0.924
 9527TIP3   OH228523   6.789   3.208   6.484
 9527TIP3    H128524   6.876   3.228   6.518
 9527TIP3    H228525   6.804   3.146   6.412
 9528TIP3   OH228526   4.623   4.551   3.393
 9528TIP3    H128527   4.672   4.589   3.320
 9528TIP3    H228528   4.681   4.562   3.469
 9529TIP3   OH228529   2.148   3.338   4.887
 9529TIP3    H128530   2.161   3.419   4.935
 9529TIP3    H228531   2.099   3.364   4.809
 9530TIP3   OH228532   0.883   3.371   5.145
 9530TIP3    H128533   0.960   3.388   5.090
 9530TIP3    H228534   0.819   3.435   5.117
 9531TIP3   OH228535   8.058   3.474   6.463
 9531TIP3    H128536   8.026   3.388   6.493
 9531TIP3    H228537   8.060   3.528   6.542
 9532TIP3   OH228538   7.775   0.312   6.544
 9532TIP3    H128539   7.792   0.276   6.631
 9532TIP3    H228540   7.861   0.338   6.511
 9533TIP3   OH228541   6.285   3.975   1.338
 9533TIP3    H128542   6.373   3.938   1.348
 9533TIP3    H228543   6.270   4.024   1.419
 9534TIP3   OH228544   3.844   1.852   1.998
 9534TIP3    H128545   3.808   1.897   2.075
 9534TIP3    H228546   3.927   1.815   2.029
 9535TIP3   OH228547   1.325   1.780   0.297
 9535TIP3    H128548   1.319   1.702   0.352
 9535TIP3    H228549   1.241   1.823   0.307
 9536TIP3   OH228550   7.423   4.057   4.353
 9536TIP3    H128551   7.476   3.996   4.404
 9536TIP3    H228552   7.479   4.133   4.341
 9537TIP3   OH228553   3.851   1.306   2.597
 9537TIP3    H128554   3.841   1.331   2.689
 9537TIP3    H228555   3.762   1.287   2.567
 9538TIP3   OH228556   6.683   0.896   1.098
 9538TIP3    H128557   6.605   0.871   1.050
 9538TIP3    H228558   6.709   0.980   1.059
 9539TIP3   OH228559   5.255   0.524   2.261
 9539TIP3    H128560   5.311   0.458   2.302
 9539TIP3    H228561   5.181   0.533   2.320
 9540TIP3   OH228562   3.777   0.875   5.131
 9540TIP3    H128563   3.864   0.914   5.122
 9540TIP3    H228564   3.793   0.780   5.127
 9541TIP3   OH228565   1.279   6.758   5.050
 9541TIP3    H128566   1.341   6.686   5.059
 9541TIP3    H228567   1.193   6.717   5.057
 9542TIP3   OH228568   5.426   7.410   3.436
 9542TIP3    H128569   5.428   7.359   3.355
 9542TIP3    H228570   5.365   7.482   3.417
 9543TIP3   OH228571   5.699   6.969   4.518
 9543TIP3    H128572   5.617   6.961   4.470
 9543TIP3    H228573   5.732   7.057   4.494
 9544TIP3   OH228574   5.990   6.606   2.714
 9544TIP3    H128575   6.038   6.676   2.670
 9544TIP3    H228576   5.917   6.586   2.655
 9545TIP3   OH228577   0.078   7.857   2.814
 9545TIP3    H128578   0.118   7.771   2.826
 9545TIP3    H228579   0.149   7.912   2.781
 9546TIP3   OH228580   2.783   4.812   2.488
 9546TIP3    H128581   2.706   4.821   2.432
 9546TIP3    H228582   2.855   4.802   2.426
 9547TIP3   OH228583   6.223   7.071   6.177
 9547TIP3    H128584   6.250   7.054   6.267
 9547TIP3    H228585   6.128   7.056   6.178
 9548TIP3   OH228586   1.556   4.947   4.788
 9548TIP3    H128587   1.488   4.902   4.839
 9548TIP3    H228588   1.509   5.013   4.738
 9549TIP3   OH228589   7.037   1.904   0.663
 9549TIP3    H128590   7.003   1.825   0.703
 9549TIP3    H228591   7.130   1.886   0.648
 9550TIP3   OH228592   1.758   2.892   4.135
 9550TIP3    H128593   1.814   2.815   4.123
 9550TIP3    H228594   1.775   2.947   4.059
 9551TIP3   OH228595   7.915   2.545   3.865
 9551TIP3    H128596   7.950   2.613   3.807
 9551TIP3    H228597   7.889   2.474   3.806
 9552TIP3   OH228598   4.548   0.535   5.615
 9552TIP3    H128599   4.582   0.536   5.525
 9552TIP3    H228600   4.526   0.443   5.630
 9553TIP3   OH228601   3.237   3.344   1.930
 9553TIP3    H128602   3.248   3.418   1.870
 9553TIP3    H228603   3.190   3.380   2.005
 9554TIP3   OH228604   4.249   5.734   3.493
 9554TIP3    H128605   4.159   5.767   3.487
 9554TIP3    H228606   4.256   5.672   3.421
 9555TIP3   OH228607   5.340   4.809   0.177
 9555TIP3    H128608   5.273   4.850   0.231
 9555TIP3    H228609   5.303   4.807   0.089
 9556TIP3   OH228610   1.230   2.167   6.295
 9556TIP3    H128611   1.214   2.243   6.351
 9556TIP3    H228612   1.318   2.181   6.260
 9557TIP3   OH228613   2.287   4.897   4.669
 9557TIP3    H128614   2.260   4.921   4.580
 9557TIP3    H228615   2.260   4.806   4.679
 9558TIP3   OH228616   2.927   0.144   5.794
 9558TIP3    H128617   2.927   0.134   5.889
 9558TIP3    H228618   2.974   0.225   5.777
 9559TIP3   OH228619   6.824   5.323   1.239
 9559TIP3    H128620   6.843   5.299   1.149
 9559TIP3    H228621   6.795   5.414   1.234
 9560TIP3   OH228622   0.277   7.165   0.579
 9560TIP3    H128623   0.331   7.235   0.615
 9560TIP3    H228624   0.335   7.088   0.580
 9561TIP3   OH228625   3.197   5.867   1.142
 9561TIP3    H128626   3.234   5.812   1.073
 9561TIP3    H228627   3.245   5.843   1.221
 9562TIP3   OH228628   5.612   7.662   5.492
 9562TIP3    H128629   5.625   7.745   5.448
 9562TIP3    H228630   5.653   7.597   5.434
 9563TIP3   OH228631   5.435   3.009   5.581
 9563TIP3    H128632   5.426   3.059   5.663
 9563TIP3    H228633   5.416   2.919   5.607
 9564TIP3   OH228634   5.906   0.486   3.425
 9564TIP3    H128635   5.957   0.407   3.444
 9564TIP3    H228636   5.866   0.509   3.509
 9565TIP3   OH228637   0.357   3.422   3.971
 9565TIP3    H128638   0.283   3.479   3.990
 9565TIP3    H228639   0.410   3.470   3.907
 9566TIP3   OH228640   5.677   1.773   0.153
 9566TIP3    H128641   5.672   1.828   0.231
 9566TIP3    H228642   5.639   1.828   0.083
 9567TIP3   OH228643   4.902   5.954   2.664
 9567TIP3    H128644   4.984   5.999   2.642
 9567TIP3    H228645   4.852   5.955   2.582
 9568TIP3   OH228646   1.893   0.960   6.268
 9568TIP3    H128647   1.921   0.952   6.176
 9568TIP3    H228648   1.801   0.936   6.267
 9569TIP3   OH228649   7.357   0.547   2.745
 9569TIP3    H128650   7.366   0.618   2.682
 9569TIP3    H228651   7.423   0.565   2.811
 9570TIP3   OH228652   6.842   0.586   0.455
 9570TIP3    H128653   6.920   0.534   0.470
 9570TIP3    H228654   6.798   0.588   0.540
 9571TIP3   OH228655   7.862   2.691   6.270
 9571TIP3    H128656   7.909   2.608   6.272
 9571TIP3    H228657   7.929   2.757   6.289
 9572TIP3   OH228658   2.335   3.136   5.008
 9572TIP3    H128659   2.344   3.144   5.103
 9572TIP3    H228660   2.286   3.214   4.982
 9573TIP3   OH228661   4.041   2.670   4.716
 9573TIP3    H128662   4.029   2.765   4.708
 9573TIP3    H228663   3.984   2.645   4.789
 9574TIP3   OH228664   7.123   1.904   0.045
 9574TIP3    H128665   7.160   1.880   0.130
 9574TIP3    H228666   7.110   1.821  -0.001
 9575TIP3   OH228667   0.864   5.142   6.161
 9575TIP3    H128668   0.874   5.092   6.242
 9575TIP3    H228669   0.809   5.087   6.106
 9576TIP3   OH228670   5.813   0.381   3.688
 9576TIP3    H128671   5.749   0.363   3.619
 9576TIP3    H228672   5.785   0.466   3.724
 9577TIP3   OH228673   7.538   1.734   2.957
 9577TIP3    H128674   7.568   1.674   3.025
 9577TIP3    H228675   7.442   1.734   2.965
 9578TIP3   OH228676   7.479   4.027   6.145
 9578TIP3    H128677   7.386   4.009   6.160
 9578TIP3    H228678   7.487   4.122   6.156
 9579TIP3   OH228679   1.244   0.923   1.692
 9579TIP3    H128680   1.197   0.965   1.620
 9579TIP3    H228681   1.182   0.925   1.765
 9580TIP3   OH228682   5.503   4.847   5.488
 9580TIP3    H128683   5.450   4.804   5.422
 9580TIP3    H228684   5.452   4.924   5.514
 9581TIP3   OH228685   6.407   0.183   1.428
 9581TIP3    H128686   6.404   0.133   1.347
 9581TIP3    H228687   6.456   0.127   1.489
 9582TIP3   OH228688   1.467   7.509   1.588
 9582TIP3    H128689   1.389   7.466   1.553
 9582TIP3    H228690   1.493   7.454   1.662
 9583TIP3   OH228691   4.547   2.012   0.083
 9583TIP3    H128692   4.560   1.918   0.071
 9583TIP3    H228693   4.623   2.052   0.041
 9584TIP3   OH228694   5.585   5.097   4.357
 9584TIP3    H128695   5.600   5.016   4.407
 9584TIP3    H228696   5.532   5.069   4.282
 9585TIP3   OH228697   0.679   0.217   4.987
 9585TIP3    H128698   0.671   0.172   4.903
 9585TIP3    H228699   0.704   0.148   5.049
 9586TIP3   OH228700   3.572   3.309   0.809
 9586TIP3    H128701   3.558   3.324   0.902
 9586TIP3    H228702   3.629   3.232   0.805
 9587TIP3   OH228703   5.811   7.102   6.465
 9587TIP3    H128704   5.845   7.167   6.526
 9587TIP3    H228705   5.865   7.024   6.481
 9588TIP3   OH228706   2.428   3.891   3.485
 9588TIP3    H128707   2.421   3.809   3.534
 9588TIP3    H228708   2.350   3.894   3.430
 9589TIP3   OH228709   3.637   3.726   2.789
 9589TIP3    H128710   3.693   3.735   2.712
 9589TIP3    H228711   3.691   3.756   2.862
 9590TIP3   OH228712   2.569   4.577   2.125
 9590TIP3    H128713   2.529   4.645   2.070
 9590TIP3    H228714   2.661   4.603   2.131
 9591TIP3   OH228715   6.443   2.225   2.329
 9591TIP3    H128716   6.351   2.199   2.331
 9591TIP3    H228717   6.489   2.146   2.301
 9592TIP3   OH228718   0.456   6.254   3.135
 9592TIP3    H128719   0.445   6.332   3.190
 9592TIP3    H228720   0.469   6.289   3.047
 9593TIP3   OH228721   4.805   5.636   4.982
 9593TIP3    H128722   4.751   5.693   5.037
 9593TIP3    H228723   4.831   5.565   5.041
 9594TIP3   OH228724   7.286   6.997   6.244
 9594TIP3    H128725   7.345   7.057   6.199
 9594TIP3    H228726   7.338   6.963   6.317
 9595TIP3   OH228727   1.444   6.929   3.042
 9595TIP3    H128728   1.476   6.911   3.130
 9595TIP3    H228729   1.445   6.844   2.998
 9596TIP3   OH228730   5.201   5.593   3.198
 9596TIP3    H128731   5.287   5.557   3.173
 9596TIP3    H228732   5.217   5.686   3.212
 9597TIP3   OH228733   1.332   0.065   6.172
 9597TIP3    H128734   1.323   0.053   6.267
 9597TIP3    H228735   1.426   0.058   6.156
 9598TIP3   OH228736   4.131   0.411   4.148
 9598TIP3    H128737   4.078   0.427   4.070
 9598TIP3    H228738   4.117   0.319   4.168
 9599TIP3   OH228739   6.076   6.386   1.197
 9599TIP3    H128740   6.013   6.380   1.125
 9599TIP3    H228741   6.073   6.478   1.224
 9600TIP3   OH228742   6.776   0.026   1.346
 9600TIP3    H128743   6.847  -0.030   1.375
 9600TIP3    H228744   6.819   0.100   1.304
 9601TIP3   OH228745   6.263   3.358   4.469
 9601TIP3    H128746   6.334   3.421   4.473
 9601TIP3    H228747   6.306   3.273   4.473
 9602TIP3   OH228748   4.474   6.857   4.323
 9602TIP3    H128749   4.501   6.831   4.234
 9602TIP3    H228750   4.412   6.928   4.309
 9603TIP3   OH228751   2.166   7.063   1.197
 9603TIP3    H128752   2.143   6.970   1.192
 9603TIP3    H228753   2.090   7.105   1.236
 9604TIP3   OH228754   6.939   6.122   4.428
 9604TIP3    H128755   6.951   6.214   4.404
 9604TIP3    H228756   6.909   6.124   4.519
 9605TIP3   OH228757   6.790   6.279   0.564
 9605TIP3    H128758   6.746   6.198   0.590
 9605TIP3    H228759   6.731   6.318   0.499
 9606TIP3   OH228760   2.335   2.149   1.010
 9606TIP3    H128761   2.241   2.163   0.997
 9606TIP3    H228762   2.357   2.077   0.951
 9607TIP3   OH228763   3.449   5.033   2.374
 9607TIP3    H128764   3.359   5.028   2.343
 9607TIP3    H228765   3.461   5.124   2.400
 9608TIP3   OH228766   1.085   0.937   5.244
 9608TIP3    H128767   1.102   0.995   5.319
 9608TIP3    H228768   1.134   0.857   5.265
 9609TIP3   OH228769   4.161   2.051   1.521
 9609TIP3    H128770   4.108   2.114   1.570
 9609TIP3    H228771   4.169   1.975   1.579
 9610TIP3   OH228772   7.712   1.121   4.676
 9610TIP3    H128773   7.636   1.174   4.700
 9610TIP3    H228774   7.739   1.079   4.757
 9611TIP3   OH228775   6.809   2.793   1.496
 9611TIP3    H128776   6.861   2.843   1.435
 9611TIP3    H228777   6.718   2.811   1.471
 9612TIP3   OH228778   4.307   0.491   4.358
 9612TIP3    H128779   4.217   0.509   4.332
 9612TIP3    H228780   4.323   0.401   4.331
 9613TIP3   OH228781   3.934   5.491   3.450
 9613TIP3    H128782   4.005   5.431   3.472
 9613TIP3    H228783   3.916   5.474   3.357
 9614TIP3   OH228784   1.525   5.585   5.126
 9614TIP3    H128785   1.468   5.605   5.051
 9614TIP3    H228786   1.505   5.494   5.148
 9615TIP3   OH228787   6.543   7.292   4.033
 9615TIP3    H128788   6.452   7.261   4.032
 9615TIP3    H228789   6.537   7.383   4.003
 9616TIP3   OH228790   5.788   3.820   0.058
 9616TIP3    H128791   5.867   3.864   0.025
 9616TIP3    H228792   5.807   3.727   0.050
 9617TIP3   OH228793   0.043   3.835   1.664
 9617TIP3    H128794  -0.031   3.876   1.618
 9617TIP3    H228795   0.003   3.766   1.717
 9618TIP3   OH228796   8.275   4.235   3.035
 9618TIP3    H128797   8.263   4.325   3.006
 9618TIP3    H228798   8.187   4.200   3.046
 9619TIP3   OH228799   0.930   4.411   6.766
 9619TIP3    H128800   0.872   4.361   6.824
 9619TIP3    H228801   0.970   4.346   6.709
 9620TIP3   OH228802   6.087   0.259   1.543
 9620TIP3    H128803   6.014   0.288   1.488
 9620TIP3    H228804   6.100   0.330   1.605
 9621TIP3   OH228805   1.739   6.618   6.066
 9621TIP3    H128806   1.717   6.644   5.976
 9621TIP3    H228807   1.662   6.571   6.097
 9622TIP3   OH228808   5.019   0.768   2.112
 9622TIP3    H128809   5.000   0.733   2.199
 9622TIP3    H228810   5.104   0.810   2.121
 9623TIP3   OH228811   2.108   3.755   1.956
 9623TIP3    H128812   2.193   3.784   1.923
 9623TIP3    H228813   2.060   3.729   1.878
 9624TIP3   OH228814   3.826   3.323   4.227
 9624TIP3    H128815   3.807   3.365   4.143
 9624TIP3    H228816   3.817   3.392   4.292
 9625TIP3   OH228817   5.012  -0.023   3.642
 9625TIP3    H128818   5.041   0.061   3.605
 9625TIP3    H228819   4.926  -0.004   3.679
 9626TIP3   OH228820   6.930   4.148   3.233
 9626TIP3    H128821   6.928   4.230   3.183
 9626TIP3    H228822   6.848   4.147   3.282
 9627TIP3   OH228823   7.351   2.718   5.399
 9627TIP3    H128824   7.264   2.681   5.383
 9627TIP3    H228825   7.341   2.811   5.378
 9628TIP3   OH228826   4.685   4.418   3.853
 9628TIP3    H128827   4.603   4.388   3.892
 9628TIP3    H228828   4.745   4.428   3.927
 9629TIP3   OH228829   7.938   0.473   2.161
 9629TIP3    H128830   7.879   0.403   2.190
 9629TIP3    H228831   7.888   0.519   2.094
 9630TIP3   OH228832   3.320   6.095   6.128
 9630TIP3    H128833   3.358   6.098   6.040
 9630TIP3    H228834   3.251   6.161   6.127
 9631TIP3   OH228835   7.881   2.126   0.855
 9631TIP3    H128836   7.975   2.139   0.841
 9631TIP3    H228837   7.856   2.060   0.790
 9632TIP3   OH228838   1.700   5.795   4.853
 9632TIP3    H128839   1.771   5.852   4.882
 9632TIP3    H228840   1.742   5.710   4.838
 9633TIP3   OH228841   0.839   3.231   4.630
 9633TIP3    H128842   0.803   3.288   4.697
 9633TIP3    H228843   0.929   3.212   4.659
 9634TIP3   OH228844   1.419   5.615   6.679
 9634TIP3    H128845   1.361   5.669   6.626
 9634TIP3    H228846   1.402   5.525   6.650
 9635TIP3   OH228847   2.004   0.363   3.375
 9635TIP3    H128848   1.914   0.334   3.359
 9635TIP3    H228849   2.008   0.450   3.335
 9636TIP3   OH228850   4.426   4.103   0.172
 9636TIP3    H128851   4.371   4.036   0.214
 9636TIP3    H228852   4.403   4.098   0.079
 9637TIP3   OH228853   2.826   4.568   3.887
 9637TIP3    H128854   2.841   4.542   3.796
 9637TIP3    H228855   2.912   4.600   3.917
 9638TIP3   OH228856   4.015   7.606   0.756
 9638TIP3    H128857   3.969   7.686   0.730
 9638TIP3    H228858   4.106   7.621   0.732
 9639TIP3   OH228859   4.992   4.078   4.994
 9639TIP3    H128860   4.937   4.016   5.041
 9639TIP3    H228861   4.935   4.153   4.976
 9640TIP3   OH228862   6.082   2.131   2.954
 9640TIP3    H128863   6.066   2.113   2.862
 9640TIP3    H228864   6.156   2.076   2.977
 9641TIP3   OH228865   1.642   3.541   5.486
 9641TIP3    H128866   1.638   3.558   5.392
 9641TIP3    H228867   1.598   3.457   5.497
 9642TIP3   OH228868   5.111   6.657   0.107
 9642TIP3    H128869   5.073   6.570   0.105
 9642TIP3    H228870   5.072   6.703   0.033
 9643TIP3   OH228871   1.079   6.748   2.002
 9643TIP3    H128872   1.082   6.721   2.093
 9643TIP3    H228873   1.023   6.682   1.959
 9644TIP3   OH228874   2.047   5.196   2.297
 9644TIP3    H128875   2.084   5.133   2.236
 9644TIP3    H228876   1.962   5.158   2.322
 9645TIP3   OH228877   3.530   2.046   0.630
 9645TIP3    H128878   3.489   1.959   0.633
 9645TIP3    H228879   3.527   2.078   0.720
 9646TIP3   OH228880   6.868   0.394   4.037
 9646TIP3    H128881   6.774   0.398   4.020
 9646TIP3    H228882   6.883   0.464   4.101
 9647TIP3   OH228883   8.143   0.553   2.706
 9647TIP3    H128884   8.238   0.564   2.716
 9647TIP3    H228885   8.115   0.631   2.657
 9648TIP3   OH228886   1.244   6.111   4.993
 9648TIP3    H128887   1.273   6.201   4.979
 9648TIP3    H228888   1.320   6.057   4.971
 9649TIP3   OH228889   7.179   4.498   5.998
 9649TIP3    H128890   7.227   4.436   6.053
 9649TIP3    H228891   7.088   4.467   6.002
 9650TIP3   OH228892   4.494   2.187   1.805
 9650TIP3    H128893   4.406   2.151   1.809
 9650TIP3    H228894   4.481   2.280   1.783
 9651TIP3   OH228895   1.713   1.743   5.147
 9651TIP3    H128896   1.719   1.814   5.083
 9651TIP3    H228897   1.628   1.756   5.189
 9652TIP3   OH228898   0.162   3.167   0.791
 9652TIP3    H128899   0.161   3.233   0.861
 9652TIP3    H228900   0.116   3.209   0.718
 9653TIP3   OH228901   4.714   0.976   2.225
 9653TIP3    H128902   4.787   0.941   2.175
 9653TIP3    H228903   4.636   0.944   2.180
 9654TIP3   OH228904   3.257   4.357   4.272
 9654TIP3    H128905   3.204   4.369   4.194
 9654TIP3    H228906   3.316   4.285   4.251
 9655TIP3   OH228907   0.641   3.339   2.054
 9655TIP3    H128908   0.597   3.356   2.138
 9655TIP3    H228909   0.728   3.378   2.064
 9656TIP3   OH228910   1.687   0.564   0.660
 9656TIP3    H128911   1.767   0.581   0.610
 9656TIP3    H228912   1.639   0.501   0.606
 9657TIP3   OH228913   6.964   0.146   1.829
 9657TIP3    H128914   6.873   0.171   1.815
 9657TIP3    H228915   6.983   0.173   1.919
 9658TIP3   OH228916   2.646   7.751   5.648
 9658TIP3    H128917   2.624   7.801   5.570
 9658TIP3    H228918   2.565   7.748   5.699
 9659TIP3   OH228919   2.162   6.527   4.498
 9659TIP3    H128920   2.197   6.584   4.429
 9659TIP3    H228921   2.069   6.519   4.477
 9660TIP3   OH228922   4.483   7.704   4.598
 9660TIP3    H128923   4.557   7.677   4.653
 9660TIP3    H228924   4.410   7.652   4.630
 9661TIP3   OH228925   0.161   6.312   0.787
 9661TIP3    H128926   0.164   6.407   0.773
 9661TIP3    H228927   0.149   6.275   0.699
 9662TIP3   OH228928   6.135   7.455   4.029
 9662TIP3    H128929   6.147   7.534   3.977
 9662TIP3    H228930   6.068   7.479   4.094
 9663TIP3   OH228931   5.529   7.404   0.573
 9663TIP3    H128932   5.559   7.321   0.610
 9663TIP3    H228933   5.600   7.433   0.517
 9664TIP3   OH228934   3.835   2.677   1.674
 9664TIP3    H128935   3.850   2.741   1.605
 9664TIP3    H228936   3.770   2.617   1.638
 9665TIP3   OH228937   0.722   6.580   2.385
 9665TIP3    H128938   0.685   6.633   2.456
 9665TIP3    H228939   0.758   6.645   2.323
 9666TIP3   OH228940   1.255   5.111   0.328
 9666TIP3    H128941   1.249   5.017   0.312
 9666TIP3    H228942   1.337   5.122   0.377
 9667TIP3   OH228943   0.272   3.005   3.703
 9667TIP3    H128944   0.354   3.018   3.655
 9667TIP3    H228945   0.266   2.910   3.715
 9668TIP3   OH228946   0.170   2.180   3.818
 9668TIP3    H128947   0.148   2.112   3.755
 9668TIP3    H228948   0.236   2.233   3.774
 9669TIP3   OH228949   2.646   2.227   5.062
 9669TIP3    H128950   2.675   2.297   5.120
 9669TIP3    H228951   2.578   2.182   5.112
 9670TIP3   OH228952   1.296   1.989   3.016
 9670TIP3    H128953   1.274   1.896   3.026
 9670TIP3    H228954   1.384   1.989   2.979
 9671TIP3   OH228955   5.227   2.106   5.337
 9671TIP3    H128956   5.142   2.095   5.293
 9671TIP3    H228957   5.252   2.196   5.319
 9672TIP3   OH228958   7.366   2.176   2.556
 9672TIP3    H128959   7.293   2.217   2.601
 9672TIP3    H228960   7.438   2.179   2.619
 9673TIP3   OH228961   7.841   1.691   0.292
 9673TIP3    H128962   7.828   1.766   0.234
 9673TIP3    H228963   7.812   1.615   0.242
 9674TIP3   OH228964   0.032   6.065   3.011
 9674TIP3    H128965   0.071   6.135   3.063
 9674TIP3    H228966  -0.013   6.010   3.075
 9675TIP3   OH228967   6.355   6.818   3.876
 9675TIP3    H128968   6.342   6.782   3.789
 9675TIP3    H228969   6.285   6.882   3.887
 9676TIP3   OH228970   3.090   2.253   4.056
 9676TIP3    H128971   3.018   2.225   3.999
 9676TIP3    H228972   3.051   2.316   4.116
 9677TIP3   OH228973   1.350   2.678   1.102
 9677TIP3    H128974   1.370   2.696   1.011
 9677TIP3    H228975   1.371   2.585   1.114
 9678TIP3   OH228976   6.749   2.991   6.662
 9678TIP3    H128977   6.655   2.974   6.657
 9678TIP3    H228978   6.773   3.020   6.574
 9679TIP3   OH228979   4.817   4.053   3.375
 9679TIP3    H128980   4.883   4.107   3.331
 9679TIP3    H228981   4.757   4.027   3.304
 9680TIP3   OH228982   4.173   7.389   5.352
 9680TIP3    H128983   4.099   7.426   5.399
 9680TIP3    H228984   4.246   7.393   5.414
 9681TIP3   OH228985   3.909   0.337   5.175
 9681TIP3    H128986   3.858   0.279   5.119
 9681TIP3    H228987   3.986   0.285   5.199
 9682TIP3   OH228988   7.007   1.008   4.708
 9682TIP3    H128989   7.044   1.094   4.691
 9682TIP3    H228990   7.037   0.954   4.635
 9683TIP3   OH228991   0.624   6.450   0.943
 9683TIP3    H128992   0.634   6.522   1.005
 9683TIP3    H228993   0.711   6.437   0.906
 9684TIP3   OH228994   8.124   4.383   6.213
 9684TIP3    H128995   8.121   4.463   6.266
 9684TIP3    H228996   8.033   4.352   6.213
 9685TIP3   OH228997   8.046   6.546   3.476
 9685TIP3    H128998   8.127   6.551   3.426
 9685TIP3    H228999   8.024   6.638   3.496
 9686TIP3   OH229000   7.782   4.253   4.361
 9686TIP3    H129001   7.710   4.299   4.318
 9686TIP3    H229002   7.770   4.270   4.454
 9687TIP3   OH229003   7.865   6.716   4.944
 9687TIP3    H129004   7.945   6.667   4.925
 9687TIP3    H229005   7.794   6.654   4.926
 9688TIP3   OH229006   5.739   6.657   4.187
 9688TIP3    H129007   5.668   6.607   4.145
 9688TIP3    H229008   5.740   6.624   4.277
 9689TIP3   OH229009   5.100   1.289   4.736
 9689TIP3    H129010   5.020   1.331   4.767
 9689TIP3    H229011   5.072   1.204   4.703
 9690TIP3   OH229012   1.635   5.471   6.019
 9690TIP3    H129013   1.565   5.407   6.031
 9690TIP3    H229014   1.639   5.485   5.924
 9691TIP3   OH229015   2.071   0.150   2.343
 9691TIP3    H129016   2.034   0.076   2.294
 9691TIP3    H229017   2.085   0.115   2.431
 9692TIP3   OH229018   6.516   4.434   6.153
 9692TIP3    H129019   6.570   4.403   6.225
 9692TIP3    H229020   6.492   4.523   6.177
 9693TIP3   OH229021   3.518   6.607   1.921
 9693TIP3    H129022   3.525   6.625   1.827
 9693TIP3    H229023   3.455   6.536   1.927
 9694TIP3   OH229024   4.177   6.529   5.117
 9694TIP3    H129025   4.247   6.593   5.131
 9694TIP3    H229026   4.158   6.535   5.023
 9695TIP3   OH229027   2.276   2.690   5.392
 9695TIP3    H129028   2.285   2.785   5.401
 9695TIP3    H229029   2.346   2.666   5.331
 9696TIP3   OH229030   2.470   6.766   6.071
 9696TIP3    H129031   2.501   6.856   6.058
 9696TIP3    H229032   2.380   6.767   6.038
 9697TIP3   OH229033   1.004   1.297   4.341
 9697TIP3    H129034   1.044   1.214   4.316
 9697TIP3    H229035   1.068   1.339   4.398
 9698TIP3   OH229036   3.212   5.025   4.992
 9698TIP3    H129037   3.231   4.933   4.969
 9698TIP3    H229038   3.253   5.076   4.922
 9699TIP3   OH229039   1.631   2.912   1.979
 9699TIP3    H129040   1.561   2.876   2.033
 9699TIP3    H229041   1.639   2.850   1.906
 9700TIP3   OH229042   0.478   4.111   3.941
 9700TIP3    H129043   0.457   4.032   3.991
 9700TIP3    H229044   0.534   4.080   3.870
 9701TIP3   OH229045   6.954   0.772   3.963
 9701TIP3    H129046   7.001   0.692   3.937
 9701TIP3    H229047   7.020   0.841   3.958
 9702TIP3   OH229048   5.517   6.562   4.042
 9702TIP3    H129049   5.532   6.478   3.998
 9702TIP3    H229050   5.425   6.558   4.070
 9703TIP3   OH229051   7.909   5.289  -0.031
 9703TIP3    H129052   7.823   5.275  -0.070
 9703TIP3    H229053   7.934   5.204   0.005
 9704TIP3   OH229054   3.133   3.090   6.029
 9704TIP3    H129055   3.160   3.000   6.050
 9704TIP3    H229056   3.040   3.093   6.051
 9705TIP3   OH229057   4.984   6.256   5.375
 9705TIP3    H129058   4.953   6.212   5.454
 9705TIP3    H229059   4.949   6.204   5.302
 9706TIP3   OH229060   0.535   6.469   4.767
 9706TIP3    H129061   0.498   6.408   4.830
 9706TIP3    H229062   0.497   6.444   4.683
 9707TIP3   OH229063   0.041   6.363   1.488
 9707TIP3    H129064   0.083   6.324   1.411
 9707TIP3    H229065  -0.052   6.346   1.475
 9708TIP3   OH229066   5.197   3.741   0.508
 9708TIP3    H129067   5.131   3.783   0.452
 9708TIP3    H229068   5.158   3.657   0.531
 9709TIP3   OH229069   7.706   4.702   3.792
 9709TIP3    H129070   7.690   4.626   3.736
 9709TIP3    H229071   7.787   4.741   3.757
 9710TIP3   OH229072   3.545   1.468   6.761
 9710TIP3    H129073   3.492   1.495   6.686
 9710TIP3    H229074   3.626   1.434   6.722
 9711TIP3   OH229075   7.276   1.941   4.163
 9711TIP3    H129076   7.366   1.916   4.185
 9711TIP3    H229077   7.281   2.034   4.145
 9712TIP3   OH229078   6.338   7.469   1.390
 9712TIP3    H129079   6.281   7.444   1.463
 9712TIP3    H229080   6.411   7.514   1.431
 9713TIP3   OH229081   2.067   7.474   2.420
 9713TIP3    H129082   1.979   7.508   2.409
 9713TIP3    H229083   2.059   7.407   2.488
 9714TIP3   OH229084   0.612   3.035   0.761
 9714TIP3    H129085   0.662   3.051   0.842
 9714TIP3    H229086   0.521   3.051   0.786
 9715TIP3   OH229087   4.549   1.261   4.949
 9715TIP3    H129088   4.503   1.232   4.870
 9715TIP3    H229089   4.635   1.220   4.942
 9716TIP3   OH229090   1.561   1.622   0.629
 9716TIP3    H129091   1.602   1.586   0.708
 9716TIP3    H229092   1.486   1.565   0.613
 9717TIP3   OH229093   2.076   4.613   3.319
 9717TIP3    H129094   2.043   4.559   3.392
 9717TIP3    H229095   2.170   4.598   3.319
 9718TIP3   OH229096   3.147   1.163   3.601
 9718TIP3    H129097   3.054   1.160   3.625
 9718TIP3    H229098   3.150   1.137   3.509
 9719TIP3   OH229099   0.097   0.097   0.130
 9719TIP3    H129100   0.190   0.086   0.150
 9719TIP3    H229101   0.061   0.139   0.209
 9720TIP3   OH229102   8.202   1.005   3.722
 9720TIP3    H129103   8.294   0.983   3.735
 9720TIP3    H229104   8.194   1.020   3.628
 9721TIP3   OH229105   7.764   5.638   0.174
 9721TIP3    H129106   7.693   5.633   0.110
 9721TIP3    H229107   7.839   5.597   0.129
 9722TIP3   OH229108   6.548   5.858   3.766
 9722TIP3    H129109   6.553   5.879   3.672
 9722TIP3    H229110   6.474   5.798   3.773
 9723TIP3   OH229111   7.457   7.122   2.847
 9723TIP3    H129112   7.387   7.066   2.813
 9723TIP3    H229113   7.472   7.187   2.778
 9724TIP3   OH229114   5.173   2.803   5.431
 9724TIP3    H129115   5.242   2.781   5.494
 9724TIP3    H229116   5.210   2.873   5.378
 9725TIP3   OH229117   4.228   1.854   2.674
 9725TIP3    H129118   4.176   1.841   2.595
 9725TIP3    H229119   4.173   1.909   2.730
 9726TIP3   OH229120   4.939   5.811   1.894
 9726TIP3    H129121   5.020   5.858   1.874
 9726TIP3    H229122   4.913   5.772   1.811
 9727TIP3   OH229123   2.381   2.135   2.903
 9727TIP3    H129124   2.332   2.172   2.830
 9727TIP3    H229125   2.404   2.211   2.957
 9728TIP3   OH229126   8.191   4.100   3.460
 9728TIP3    H129127   8.282   4.112   3.433
 9728TIP3    H229128   8.196   4.040   3.535
 9729TIP3   OH229129   4.432   1.628   2.431
 9729TIP3    H129130   4.498   1.669   2.485
 9729TIP3    H229131   4.479   1.559   2.384
 9730TIP3   OH229132   1.965   2.029   2.035
 9730TIP3    H129133   2.038   2.082   2.004
 9730TIP3    H229134   2.001   1.977   2.107
 9731TIP3   OH229135   5.635   1.535   0.802
 9731TIP3    H129136   5.705   1.470   0.808
 9731TIP3    H229137   5.599   1.540   0.891
 9732TIP3   OH229138   1.459   3.825   5.459
 9732TIP3    H129139   1.422   3.749   5.503
 9732TIP3    H229140   1.542   3.842   5.504
 9733TIP3   OH229141   1.294   5.411   1.495
 9733TIP3    H129142   1.297   5.409   1.400
 9733TIP3    H229143   1.234   5.341   1.519
 9734TIP3   OH229144   1.791   1.599   1.367
 9734TIP3    H129145   1.757   1.539   1.433
 9734TIP3    H229146   1.847   1.545   1.312
 9735TIP3   OH229147   0.722   4.645   2.055
 9735TIP3    H129148   0.659   4.686   1.996
 9735TIP3    H229149   0.719   4.699   2.134
 9736TIP3   OH229150   0.358   5.440   6.245
 9736TIP3    H129151   0.419   5.373   6.277
 9736TIP3    H229152   0.363   5.510   6.310
 9737TIP3   OH229153   5.678   0.933   1.241
 9737TIP3    H129154   5.644   0.844   1.247
 9737TIP3    H229155   5.712   0.940   1.152
 9738TIP3   OH229156   2.934   7.715   2.744
 9738TIP3    H129157   2.899   7.775   2.809
 9738TIP3    H229158   3.028   7.734   2.742
 9739TIP3   OH229159   8.153   6.234   4.293
 9739TIP3    H129160   8.154   6.293   4.218
 9739TIP3    H229161   8.187   6.287   4.365
 9740TIP3   OH229162   5.778   0.745   1.821
 9740TIP3    H129163   5.846   0.694   1.865
 9740TIP3    H229164   5.735   0.794   1.891
 9741TIP3   OH229165   3.695   1.241   1.674
 9741TIP3    H129166   3.626   1.273   1.732
 9741TIP3    H229167   3.650   1.216   1.594
 9742TIP3   OH229168   7.750   0.242   0.523
 9742TIP3    H129169   7.683   0.310   0.536
 9742TIP3    H229170   7.704   0.160   0.543
 9743TIP3   OH229171   0.839   0.031   1.446
 9743TIP3    H129172   0.859   0.108   1.500
 9743TIP3    H229173   0.848   0.061   1.356
 9744TIP3   OH229174   2.081   7.832   5.873
 9744TIP3    H129175   2.094   7.839   5.778
 9744TIP3    H229176   1.987   7.821   5.884
 9745TIP3   OH229177   0.075   0.571   5.164
 9745TIP3    H129178   0.065   0.520   5.083
 9745TIP3    H229179   0.136   0.519   5.216
 9746TIP3   OH229180   2.023   1.498   1.268
 9746TIP3    H129181   2.019   1.403   1.271
 9746TIP3    H229182   2.097   1.517   1.210
 9747TIP3   OH229183   2.676   5.411   5.886
 9747TIP3    H129184   2.719   5.401   5.801
 9747TIP3    H229185   2.623   5.490   5.876
 9748TIP3   OH229186   7.022   3.551   3.507
 9748TIP3    H129187   7.113   3.579   3.521
 9748TIP3    H229188   7.024   3.506   3.422
 9749TIP3   OH229189   3.622   0.990   3.703
 9749TIP3    H129190   3.529   0.990   3.726
 9749TIP3    H229191   3.652   1.079   3.722
 9750TIP3   OH229192   2.318   4.082   0.994
 9750TIP3    H129193   2.276   4.164   1.022
 9750TIP3    H229194   2.405   4.109   0.963
 9751TIP3   OH229195   0.586   6.291   1.736
 9751TIP3    H129196   0.526   6.216   1.732
 9751TIP3    H229197   0.531   6.364   1.764
 9752TIP3   OH229198   4.882   1.518   5.083
 9752TIP3    H129199   4.887   1.443   5.143
 9752TIP3    H229200   4.872   1.478   4.997
 9753TIP3   OH229201   2.749   5.109   6.042
 9753TIP3    H129202   2.682   5.107   5.973
 9753TIP3    H229203   2.744   5.198   6.077
 9754TIP3   OH229204   3.131   4.873   5.760
 9754TIP3    H129205   3.184   4.928   5.818
 9754TIP3    H229206   3.043   4.911   5.766
 9755TIP3   OH229207   1.221   1.456   5.648
 9755TIP3    H129208   1.132   1.473   5.679
 9755TIP3    H229209   1.272   1.439   5.727
 9756TIP3   OH229210   1.298   2.592   4.147
 9756TIP3    H129211   1.264   2.569   4.233
 9756TIP3    H229212   1.366   2.656   4.164
 9757TIP3   OH229213   5.288   3.928   4.711
 9757TIP3    H129214   5.313   3.844   4.750
 9757TIP3    H229215   5.329   3.927   4.625
 9758TIP3   OH229216   0.017   5.154   0.135
 9758TIP3    H129217   0.009   5.245   0.105
 9758TIP3    H229218   0.062   5.109   0.064
 9759TIP3   OH229219   3.956   6.128   5.612
 9759TIP3    H129220   3.877   6.122   5.666
 9759TIP3    H229221   4.028   6.132   5.674
 9760TIP3   OH229222   7.458   7.424   1.173
 9760TIP3    H129223   7.552   7.442   1.176
 9760TIP3    H229224   7.436   7.395   1.262
 9761TIP3   OH229225   4.861   6.765   6.738
 9761TIP3    H129226   4.884   6.733   6.651
 9761TIP3    H229227   4.768   6.786   6.733
 9762TIP3   OH229228   7.046   6.119   1.490
 9762TIP3    H129229   7.134   6.138   1.457
 9762TIP3    H229230   7.058   6.107   1.584
 9763TIP3   OH229231   1.773   4.328   6.452
 9763TIP3    H129232   1.775   4.372   6.538
 9763TIP3    H229233   1.736   4.242   6.470
 9764TIP3   OH229234   4.703   0.016   5.272
 9764TIP3    H129235   4.619  -0.021   5.245
 9764TIP3    H229236   4.689   0.111   5.270
 9765TIP3   OH229237   5.301   5.913   0.470
 9765TIP3    H129238   5.376   5.972   0.474
 9765TIP3    H229239   5.324   5.848   0.404
 9766TIP3   OH229240   6.260   2.438   0.525
 9766TIP3    H129241   6.289   2.414   0.437
 9766TIP3    H229242   6.328   2.497   0.558
 9767TIP3   OH229243   3.104   7.744   4.305
 9767TIP3    H129244   3.184   7.745   4.357
 9767TIP3    H229245   3.088   7.652   4.286
 9768TIP3   OH229246   4.690   1.998   4.939
 9768TIP3    H129247   4.694   1.918   4.991
 9768TIP3    H229248   4.777   2.005   4.899
 9769TIP3   OH229249   4.458   6.347   0.889
 9769TIP3    H129250   4.456   6.286   0.963
 9769TIP3    H229251   4.415   6.299   0.818
 9770TIP3   OH229252   4.336   0.857   4.302
 9770TIP3    H129253   4.281   0.925   4.262
 9770TIP3    H229254   4.359   0.799   4.229
 9771TIP3   OH229255   3.717   7.420   6.008
 9771TIP3    H129256   3.699   7.489   6.071
 9771TIP3    H229257   3.719   7.340   6.060
 9772TIP3   OH229258   2.583   2.403   4.323
 9772TIP3    H129259   2.578   2.330   4.385
 9772TIP3    H229260   2.655   2.457   4.354
 9773TIP3   OH229261   2.470   7.752   2.660
 9773TIP3    H129262   2.412   7.678   2.643
 9773TIP3    H229263   2.559   7.715   2.655
 9774TIP3   OH229264   3.750   6.506   0.596
 9774TIP3    H129265   3.835   6.538   0.627
 9774TIP3    H229266   3.737   6.550   0.512
 9775TIP3   OH229267   1.372   7.531   0.574
 9775TIP3    H129268   1.456   7.521   0.618
 9775TIP3    H229269   1.344   7.620   0.595
 9776TIP3   OH229270   7.020   5.731   3.242
 9776TIP3    H129271   7.067   5.649   3.260
 9776TIP3    H229272   6.929   5.704   3.229
 9777TIP3   OH229273   0.302   1.124   5.139
 9777TIP3    H129274   0.247   1.066   5.192
 9777TIP3    H229275   0.353   1.065   5.084
 9778TIP3   OH229276   2.384   1.978   3.981
 9778TIP3    H129277   2.333   1.941   4.054
 9778TIP3    H229278   2.423   1.902   3.938
 9779TIP3   OH229279   7.746   0.300   2.249
 9779TIP3    H129280   7.758   0.223   2.304
 9779TIP3    H229281   7.658   0.331   2.270
 9780TIP3   OH229282   4.940   4.832   2.214
 9780TIP3    H129283   4.873   4.769   2.240
 9780TIP3    H229284   4.919   4.912   2.263
 9781TIP3   OH229285   5.456   6.501   2.894
 9781TIP3    H129286   5.407   6.424   2.923
 9781TIP3    H229287   5.480   6.481   2.804
 9782TIP3   OH229288   0.178   6.098   6.399
 9782TIP3    H129289   0.267   6.064   6.391
 9782TIP3    H229290   0.186   6.192   6.384
 9783TIP3   OH229291   2.152   7.334   1.525
 9783TIP3    H129292   2.130   7.427   1.521
 9783TIP3    H229293   2.087   7.296   1.583
 9784TIP3   OH229294   2.040   1.883   1.556
 9784TIP3    H129295   2.053   1.931   1.474
 9784TIP3    H229296   2.078   1.938   1.623
 9785TIP3   OH229297   4.214   3.515   3.971
 9785TIP3    H129298   4.304   3.530   3.941
 9785TIP3    H229299   4.211   3.421   3.989
 9786TIP3   OH229300   0.151   6.693   5.638
 9786TIP3    H129301   0.070   6.744   5.641
 9786TIP3    H229302   0.128   6.614   5.589
 9787TIP3   OH229303   2.732   1.803   1.642
 9787TIP3    H129304   2.653   1.752   1.626
 9787TIP3    H229305   2.722   1.881   1.586
 9788TIP3   OH229306   1.436   2.474   0.191
 9788TIP3    H129307   1.420   2.505   0.102
 9788TIP3    H229308   1.350   2.447   0.223
 9789TIP3   OH229309   0.140   7.824   0.960
 9789TIP3    H129310   0.135   7.851   1.052
 9789TIP3    H229311   0.195   7.746   0.961
 9790TIP3   OH229312   6.889   1.669   0.528
 9790TIP3    H129313   6.920   1.745   0.479
 9790TIP3    H229314   6.809   1.642   0.483
 9791TIP3   OH229315   7.887   6.613   6.717
 9791TIP3    H129316   7.902   6.591   6.625
 9791TIP3    H229317   7.888   6.529   6.762
 9792TIP3   OH229318   3.594   3.283   3.511
 9792TIP3    H129319   3.637   3.209   3.469
 9792TIP3    H229320   3.564   3.249   3.595
 9793TIP3   OH229321   1.109   3.809   1.851
 9793TIP3    H129322   1.119   3.736   1.912
 9793TIP3    H229323   1.068   3.878   1.903
 9794TIP3   OH229324   5.855   6.530   2.958
 9794TIP3    H129325   5.907   6.551   3.036
 9794TIP3    H229326   5.918   6.536   2.886
 9795TIP3   OH229327   0.565   4.047   3.474
 9795TIP3    H129328   0.516   4.019   3.396
 9795TIP3    H229329   0.611   4.126   3.446
 9796TIP3   OH229330   5.179   0.244   2.205
 9796TIP3    H129331   5.190   0.149   2.218
 9796TIP3    H229332   5.261   0.282   2.237
 9797TIP3   OH229333   0.806   6.518   3.973
 9797TIP3    H129334   0.749   6.471   4.034
 9797TIP3    H229335   0.859   6.575   4.029
 9798TIP3   OH229336   6.422   2.342   6.009
 9798TIP3    H129337   6.388   2.319   6.096
 9798TIP3    H229338   6.351   2.319   5.949
 9799TIP3   OH229339   4.584   5.582   0.673
 9799TIP3    H129340   4.581   5.522   0.747
 9799TIP3    H229341   4.560   5.529   0.597
 9800TIP3   OH229342   0.829   2.088   3.380
 9800TIP3    H129343   0.741   2.078   3.415
 9800TIP3    H229344   0.822   2.063   3.288
 9801TIP3   OH229345   4.116   4.873   1.723
 9801TIP3    H129346   4.093   4.780   1.725
 9801TIP3    H229347   4.210   4.874   1.706
 9802TIP3   OH229348   5.360   3.779   5.139
 9802TIP3    H129349   5.382   3.700   5.188
 9802TIP3    H229350   5.431   3.840   5.159
 9803TIP3   OH229351   5.731   0.664   3.832
 9803TIP3    H129352   5.700   0.716   3.757
 9803TIP3    H229353   5.656   0.657   3.890
 9804TIP3   OH229354   6.501   6.764   5.113
 9804TIP3    H129355   6.494   6.691   5.174
 9804TIP3    H229356   6.581   6.810   5.139
 9805TIP3   OH229357   6.329   0.609   1.952
 9805TIP3    H129358   6.272   0.685   1.962
 9805TIP3    H229359   6.413   0.636   1.990
 9806TIP3   OH229360   2.441   0.450   1.774
 9806TIP3    H129361   2.387   0.377   1.803
 9806TIP3    H229362   2.396   0.528   1.807
 9807TIP3   OH229363   4.735   1.782   6.517
 9807TIP3    H129364   4.796   1.762   6.445
 9807TIP3    H229365   4.741   1.877   6.527
 9808TIP3   OH229366   1.755   5.555   3.440
 9808TIP3    H129367   1.715   5.600   3.365
 9808TIP3    H229368   1.708   5.472   3.445
 9809TIP3   OH229369   6.644   2.561   1.879
 9809TIP3    H129370   6.561   2.548   1.925
 9809TIP3    H229371   6.690   2.477   1.887
 9810TIP3   OH229372   2.569   2.326   2.983
 9810TIP3    H129373   2.631   2.306   3.054
 9810TIP3    H229374   2.582   2.256   2.919
 9811TIP3   OH229375   7.580   0.178   2.814
 9811TIP3    H129376   7.583   0.084   2.796
 9811TIP3    H229377   7.549   0.217   2.733
 9812TIP3   OH229378   6.708   3.578   4.630
 9812TIP3    H129379   6.667   3.578   4.717
 9812TIP3    H229380   6.734   3.669   4.616
 9813TIP3   OH229381   4.668   7.483   4.481
 9813TIP3    H129382   4.640   7.501   4.571
 9813TIP3    H229383   4.700   7.568   4.449
 9814TIP3   OH229384   3.742   7.026   1.520
 9814TIP3    H129385   3.791   7.087   1.466
 9814TIP3    H229386   3.676   6.989   1.461
 9815TIP3   OH229387   7.571   6.432   4.499
 9815TIP3    H129388   7.555   6.344   4.532
 9815TIP3    H229389   7.632   6.471   4.562
 9816TIP3   OH229390   2.458   1.883   2.795
 9816TIP3    H129391   2.428   1.966   2.832
 9816TIP3    H229392   2.384   1.823   2.807
 9817TIP3   OH229393   8.135   6.527   2.732
 9817TIP3    H129394   8.063   6.589   2.744
 9817TIP3    H229395   8.093   6.446   2.705
 9818TIP3   OH229396   2.039   5.500   4.251
 9818TIP3    H129397   2.048   5.433   4.318
 9818TIP3    H229398   1.979   5.462   4.187
 9819TIP3   OH229399   4.358   5.136   2.066
 9819TIP3    H129400   4.314   5.198   2.007
 9819TIP3    H229401   4.299   5.060   2.070
 9820TIP3   OH229402   5.048   7.569   1.698
 9820TIP3    H129403   5.084   7.564   1.787
 9820TIP3    H229404   4.968   7.621   1.708
 9821TIP3   OH229405   4.525   2.585   1.980
 9821TIP3    H129406   4.498   2.633   1.902
 9821TIP3    H229407   4.620   2.595   1.983
 9822TIP3   OH229408   7.822   0.193   5.558
 9822TIP3    H129409   7.816   0.251   5.633
 9822TIP3    H229410   7.739   0.146   5.557
 9823TIP3   OH229411   6.447   0.689   0.746
 9823TIP3    H129412   6.501   0.756   0.704
 9823TIP3    H229413   6.503   0.654   0.815
 9824TIP3   OH229414   4.879   1.457   6.190
 9824TIP3    H129415   4.821   1.489   6.259
 9824TIP3    H229416   4.821   1.421   6.124
 9825TIP3   OH229417   4.185   4.264   6.484
 9825TIP3    H129418   4.271   4.249   6.523
 9825TIP3    H229419   4.128   4.282   6.558
 9826TIP3   OH229420   2.911   5.856   5.932
 9826TIP3    H129421   2.907   5.951   5.919
 9826TIP3    H229422   2.880   5.820   5.849
 9827TIP3   OH229423   3.315   6.598   6.275
 9827TIP3    H129424   3.353   6.679   6.310
 9827TIP3    H229425   3.377   6.529   6.301
 9828TIP3   OH229426   2.960   3.652   1.890
 9828TIP3    H129427   3.012   3.625   1.966
 9828TIP3    H229428   2.981   3.744   1.877
 9829TIP3   OH229429   0.198   2.887   6.084
 9829TIP3    H129430   0.155   2.824   6.026
 9829TIP3    H229431   0.264   2.929   6.028
 9830TIP3   OH229432   2.728   7.187   6.568
 9830TIP3    H129433   2.667   7.211   6.498
 9830TIP3    H229434   2.688   7.111   6.609
 9831TIP3   OH229435   1.987   5.418   1.070
 9831TIP3    H129436   2.040   5.478   1.123
 9831TIP3    H229437   1.951   5.473   1.000
 9832TIP3   OH229438   5.235   0.721   0.099
 9832TIP3    H129439   5.170   0.682   0.158
 9832TIP3    H229440   5.267   0.647   0.046
 9833TIP3   OH229441   0.878   7.433   3.530
 9833TIP3    H129442   0.920   7.485   3.598
 9833TIP3    H229443   0.870   7.345   3.568
 9834TIP3   OH229444   1.317   4.874   4.886
 9834TIP3    H129445   1.284   4.852   4.973
 9834TIP3    H229446   1.239   4.883   4.832
 9835TIP3   OH229447   0.567   6.274   5.691
 9835TIP3    H129448   0.507   6.212   5.733
 9835TIP3    H229449   0.559   6.255   5.597
 9836TIP3   OH229450   1.273   7.770   2.448
 9836TIP3    H129451   1.215   7.740   2.518
 9836TIP3    H229452   1.357   7.727   2.466
 9837TIP3   OH229453   7.174   0.132   2.736
 9837TIP3    H129454   7.201   0.040   2.733
 9837TIP3    H229455   7.081   0.129   2.757
 9838TIP3   OH229456   1.343   7.180   3.653
 9838TIP3    H129457   1.435   7.163   3.636
 9838TIP3    H229458   1.296   7.123   3.592
 9839TIP3   OH229459   5.114   4.363   3.853
 9839TIP3    H129460   5.076   4.396   3.772
 9839TIP3    H229461   5.197   4.322   3.827
 9840TIP3   OH229462   2.340   6.632   5.179
 9840TIP3    H129463   2.430   6.648   5.207
 9840TIP3    H229464   2.342   6.645   5.084
 9841TIP3   OH229465   5.978   1.589   0.429
 9841TIP3    H129466   5.896   1.566   0.473
 9841TIP3    H229467   6.045   1.575   0.496
 9842TIP3   OH229468   0.403   3.123   0.257
 9842TIP3    H129469   0.381   3.110   0.165
 9842TIP3    H229470   0.496   3.146   0.256
 9843TIP3   OH229471   5.312   6.485   3.777
 9843TIP3    H129472   5.387   6.429   3.758
 9843TIP3    H229473   5.304   6.541   3.699
 9844TIP3   OH229474   0.337   0.672   0.772
 9844TIP3    H129475   0.335   0.761   0.738
 9844TIP3    H229476   0.293   0.678   0.857
 9845TIP3   OH229477   7.442   5.508   0.385
 9845TIP3    H129478   7.386   5.522   0.309
 9845TIP3    H229479   7.519   5.463   0.350
 9846TIP3   OH229480   6.089   5.909   2.149
 9846TIP3    H129481   6.046   5.944   2.227
 9846TIP3    H229482   6.181   5.933   2.160
 9847TIP3   OH229483   0.478   5.025   0.219
 9847TIP3    H129484   0.467   5.114   0.253
 9847TIP3    H229485   0.540   5.035   0.147
 9848TIP3   OH229486   1.750   0.739   5.984
 9848TIP3    H129487   1.814   0.719   5.915
 9848TIP3    H229488   1.750   0.834   5.989
 9849TIP3   OH229489   2.864   4.854   1.087
 9849TIP3    H129490   2.943   4.849   1.033
 9849TIP3    H229491   2.841   4.763   1.105
 9850TIP3   OH229492   3.075   5.168   0.252
 9850TIP3    H129493   3.131   5.107   0.203
 9850TIP3    H229494   3.065   5.127   0.338
 9851TIP3   OH229495   3.872   2.447   5.348
 9851TIP3    H129496   3.962   2.477   5.357
 9851TIP3    H229497   3.848   2.417   5.436
 9852TIP3   OH229498   3.941   2.050   4.844
 9852TIP3    H129499   3.971   2.111   4.777
 9852TIP3    H229500   3.995   1.972   4.830
 9853TIP3   OH229501   2.574   5.036   1.075
 9853TIP3    H129502   2.668   5.020   1.064
 9853TIP3    H229503   2.558   5.117   1.027
 9854TIP3   OH229504   4.354   3.460   3.309
 9854TIP3    H129505   4.353   3.414   3.225
 9854TIP3    H229506   4.294   3.533   3.297
 9855TIP3   OH229507   2.607   6.149   3.427
 9855TIP3    H129508   2.620   6.128   3.334
 9855TIP3    H229509   2.669   6.092   3.473
 9856TIP3   OH229510   2.265   6.574   2.392
 9856TIP3    H129511   2.250   6.604   2.481
 9856TIP3    H229512   2.301   6.651   2.347
 9857TIP3   OH229513   4.501   1.431   4.593
 9857TIP3    H129514   4.466   1.408   4.507
 9857TIP3    H229515   4.565   1.363   4.612
 9858TIP3   OH229516   5.061   2.687   2.359
 9858TIP3    H129517   4.983   2.659   2.310
 9858TIP3    H229518   5.122   2.718   2.292
 9859TIP3   OH229519   4.470   2.497   5.275
 9859TIP3    H129520   4.457   2.441   5.198
 9859TIP3    H229521   4.487   2.437   5.347
 9860TIP3   OH229522   4.238   6.705   1.035
 9860TIP3    H129523   4.248   6.796   1.009
 9860TIP3    H229524   4.324   6.681   1.070
 9861TIP3   OH229525   3.704   1.765   2.352
 9861TIP3    H129526   3.759   1.836   2.384
 9861TIP3    H229527   3.658   1.803   2.277
 9862TIP3   OH229528   2.908   1.523   4.718
 9862TIP3    H129529   2.996   1.553   4.698
 9862TIP3    H229530   2.911   1.500   4.811
 9863TIP3   OH229531   4.005   2.315   2.950
 9863TIP3    H129532   4.083   2.367   2.927
 9863TIP3    H229533   3.944   2.332   2.878
 9864TIP3   OH229534   0.573   3.263   0.492
 9864TIP3    H129535   0.483   3.236   0.510
 9864TIP3    H229536   0.581   3.259   0.397
 9865TIP3   OH229537   5.440   7.565   1.242
 9865TIP3    H129538   5.531   7.555   1.271
 9865TIP3    H229539   5.422   7.658   1.254
 9866TIP3   OH229540   6.267   5.151   0.443
 9866TIP3    H129541   6.294   5.132   0.533
 9866TIP3    H229542   6.223   5.071   0.414
 9867TIP3   OH229543   7.511   1.897   2.433
 9867TIP3    H129544   7.448   1.922   2.366
 9867TIP3    H229545   7.464   1.834   2.488
 9868TIP3   OH229546   3.578   2.488   2.374
 9868TIP3    H129547   3.641   2.515   2.307
 9868TIP3    H229548   3.627   2.492   2.456
 9869TIP3   OH229549   8.252   7.443   1.276
 9869TIP3    H129550   8.328   7.496   1.250
 9869TIP3    H229551   8.209   7.495   1.343
 9870TIP3   OH229552   3.488   6.644   0.438
 9870TIP3    H129553   3.460   6.556   0.461
 9870TIP3    H229554   3.526   6.678   0.519
 9871TIP3   OH229555   7.097   0.040   5.981
 9871TIP3    H129556   7.061   0.129   5.970
 9871TIP3    H229557   7.173   0.052   6.036
 9872TIP3   OH229558   1.090   6.700   0.740
 9872TIP3    H129559   1.059   6.664   0.657
 9872TIP3    H229560   1.185   6.684   0.740
 9873TIP3   OH229561   5.314   7.773   3.976
 9873TIP3    H129562   5.301   7.845   3.914
 9873TIP3    H229563   5.379   7.716   3.933
 9874TIP3   OH229564   8.053   1.024   4.368
 9874TIP3    H129565   8.118   1.094   4.371
 9874TIP3    H229566   8.104   0.943   4.377
 9875TIP3   OH229567   6.218   5.351   0.958
 9875TIP3    H129568   6.221   5.285   1.027
 9875TIP3    H229569   6.145   5.407   0.981
 9876TIP3   OH229570   5.278   1.995   2.547
 9876TIP3    H129571   5.372   2.005   2.555
 9876TIP3    H229572   5.265   1.961   2.458
 9877TIP3   OH229573   6.016   2.780   1.773
 9877TIP3    H129574   5.994   2.812   1.860
 9877TIP3    H229575   5.982   2.846   1.713
 9878TIP3   OH229576   7.059   5.195   6.642
 9878TIP3    H129577   7.041   5.129   6.708
 9878TIP3    H229578   6.973   5.219   6.607
 9879TIP3   OH229579   4.269   2.932   0.207
 9879TIP3    H129580   4.182   2.894   0.193
 9879TIP3    H229581   4.323   2.895   0.137
 9880TIP3   OH229582   8.137   0.436   4.735
 9880TIP3    H129583   8.209   0.478   4.689
 9880TIP3    H229584   8.064   0.498   4.729
 9881TIP3   OH229585   6.697   4.780   1.642
 9881TIP3    H129586   6.671   4.725   1.716
 9881TIP3    H229587   6.778   4.823   1.671
 9882TIP3   OH229588   4.861   4.492   4.475
 9882TIP3    H129589   4.945   4.503   4.433
 9882TIP3    H229590   4.882   4.469   4.566
 9883TIP3   OH229591   2.761   5.828   2.924
 9883TIP3    H129592   2.829   5.852   2.987
 9883TIP3    H229593   2.679   5.854   2.967
 9884TIP3   OH229594   8.153   6.549   0.670
 9884TIP3    H129595   8.061   6.556   0.697
 9884TIP3    H229596   8.153   6.485   0.599
 9885TIP3   OH229597   6.224   5.172   6.749
 9885TIP3    H129598   6.290   5.109   6.780
 9885TIP3    H229599   6.142   5.143   6.789
 9886TIP3   OH229600   2.617   4.097   3.296
 9886TIP3    H129601   2.671   4.093   3.376
 9886TIP3    H229602   2.643   4.020   3.246
 9887TIP3   OH229603   1.759   6.324   1.521
 9887TIP3    H129604   1.711   6.336   1.603
 9887TIP3    H229605   1.787   6.412   1.497
 9888TIP3   OH229606   6.863   1.840   5.842
 9888TIP3    H129607   6.848   1.859   5.934
 9888TIP3    H229608   6.948   1.879   5.823
 9889TIP3   OH229609   7.260   1.076   1.492
 9889TIP3    H129610   7.210   1.087   1.411
 9889TIP3    H229611   7.324   1.008   1.472
 9890TIP3   OH229612   2.243   2.969   2.703
 9890TIP3    H129613   2.276   2.905   2.640
 9890TIP3    H229614   2.191   3.030   2.650
 9891TIP3   OH229615   7.304   2.525   5.127
 9891TIP3    H129616   7.388   2.518   5.173
 9891TIP3    H229617   7.255   2.591   5.177
 9892TIP3   OH229618   1.162   0.272   3.509
 9892TIP3    H129619   1.253   0.272   3.478
 9892TIP3    H229620   1.144   0.180   3.528
 9893TIP3   OH229621   1.069   7.334   0.248
 9893TIP3    H129622   1.110   7.252   0.276
 9893TIP3    H229623   1.042   7.377   0.329
 9894TIP3   OH229624   3.091   0.801   3.417
 9894TIP3    H129625   3.104   0.885   3.373
 9894TIP3    H229626   3.002   0.804   3.450
 9895TIP3   OH229627   3.657   4.955   0.990
 9895TIP3    H129628   3.675   5.017   1.060
 9895TIP3    H229629   3.658   5.007   0.910
 9896TIP3   OH229630   2.242   2.428   3.449
 9896TIP3    H129631   2.251   2.514   3.409
 9896TIP3    H229632   2.190   2.377   3.387
 9897TIP3   OH229633   7.480   0.426   5.232
 9897TIP3    H129634   7.416   0.369   5.190
 9897TIP3    H229635   7.494   0.497   5.169
 9898TIP3   OH229636   8.038   2.480   4.795
 9898TIP3    H129637   7.948   2.504   4.817
 9898TIP3    H229638   8.031   2.395   4.751
 9899TIP3   OH229639   7.497   4.037   1.258
 9899TIP3    H129640   7.468   4.129   1.260
 9899TIP3    H229641   7.459   3.998   1.336
 9900TIP3   OH229642   6.510   1.379   5.560
 9900TIP3    H129643   6.603   1.392   5.579
 9900TIP3    H229644   6.467   1.456   5.596
 9901TIP3   OH229645   5.308   0.781   1.845
 9901TIP3    H129646   5.281   0.722   1.914
 9901TIP3    H229647   5.369   0.842   1.887
 9902TIP3   OH229648   0.942   6.216   1.162
 9902TIP3    H129649   1.019   6.234   1.107
 9902TIP3    H229650   0.975   6.156   1.230
 9903TIP3   OH229651   2.081   5.904   5.279
 9903TIP3    H129652   2.146   5.902   5.209
 9903TIP3    H229653   2.082   5.995   5.310
 9904TIP3   OH229654   4.873   3.092   4.416
 9904TIP3    H129655   4.824   3.083   4.334
 9904TIP3    H229656   4.818   3.047   4.481
 9905TIP3   OH229657   4.833   0.086   1.306
 9905TIP3    H129658   4.869   0.158   1.358
 9905TIP3    H229659   4.881   0.008   1.336
 9906TIP3   OH229660   7.705   1.643   5.013
 9906TIP3    H129661   7.682   1.717   4.957
 9906TIP3    H229662   7.739   1.683   5.093
 9907TIP3   OH229663   4.772   5.718   3.376
 9907TIP3    H129664   4.834   5.668   3.323
 9907TIP3    H229665   4.690   5.671   3.367
 9908TIP3   OH229666   6.582   3.487   1.505
 9908TIP3    H129667   6.654   3.446   1.553
 9908TIP3    H229668   6.583   3.444   1.419
 9909TIP3   OH229669   5.621   0.048   2.309
 9909TIP3    H129670   5.566  -0.025   2.279
 9909TIP3    H229671   5.594   0.121   2.254
 9910TIP3   OH229672   3.340   4.146   3.732
 9910TIP3    H129673   3.282   4.071   3.721
 9910TIP3    H229674   3.407   4.135   3.664
 9911TIP3   OH229675   2.875   0.021   6.619
 9911TIP3    H129676   2.859   0.006   6.712
 9911TIP3    H229677   2.970   0.015   6.611
 9912TIP3   OH229678   6.216   1.296   1.151
 9912TIP3    H129679   6.264   1.222   1.113
 9912TIP3    H229680   6.280   1.341   1.206
 9913TIP3   OH229681   5.066   7.380   1.184
 9913TIP3    H129682   5.107   7.349   1.103
 9913TIP3    H229683   5.037   7.468   1.164
 9914TIP3   OH229684   4.429   2.947   6.262
 9914TIP3    H129685   4.386   3.023   6.223
 9914TIP3    H229686   4.491   2.984   6.326
 9915TIP3   OH229687   4.701   0.355   2.454
 9915TIP3    H129688   4.663   0.436   2.419
 9915TIP3    H229689   4.749   0.317   2.380
 9916TIP3   OH229690   1.596   4.055   4.985
 9916TIP3    H129691   1.603   4.136   4.934
 9916TIP3    H229692   1.551   4.081   5.065
 9917TIP3   OH229693   6.372   1.146   6.211
 9917TIP3    H129694   6.394   1.131   6.119
 9917TIP3    H229695   6.279   1.125   6.217
 9918TIP3   OH229696   7.083   7.463   0.401
 9918TIP3    H129697   7.123   7.424   0.324
 9918TIP3    H229698   7.021   7.527   0.367
 9919TIP3   OH229699   3.531   6.381   4.356
 9919TIP3    H129700   3.558   6.388   4.264
 9919TIP3    H229701   3.443   6.418   4.357
 9920TIP3   OH229702   8.081   7.028   5.458
 9920TIP3    H129703   8.065   7.121   5.470
 9920TIP3    H229704   8.068   6.989   5.544
 9921TIP3   OH229705   1.888   3.093   1.043
 9921TIP3    H129706   1.814   3.038   1.017
 9921TIP3    H229707   1.951   3.083   0.972
 9922TIP3   OH229708   5.813   3.075   5.292
 9922TIP3    H129709   5.836   3.160   5.329
 9922TIP3    H229710   5.777   3.025   5.365
 9923TIP3   OH229711   4.205   0.785   3.118
 9923TIP3    H129712   4.271   0.850   3.094
 9923TIP3    H229713   4.133   0.799   3.056
 9924TIP3   OH229714   0.824   3.557   6.085
 9924TIP3    H129715   0.774   3.592   6.159
 9924TIP3    H229716   0.853   3.634   6.037
 9925TIP3   OH229717   0.517   3.381   0.937
 9925TIP3    H129718   0.565   3.363   0.856
 9925TIP3    H229719   0.485   3.295   0.964
 9926TIP3   OH229720   7.971   4.568   1.984
 9926TIP3    H129721   8.065   4.551   1.997
 9926TIP3    H229722   7.945   4.615   2.063
 9927TIP3   OH229723   0.983   6.844   4.699
 9927TIP3    H129724   1.065   6.795   4.690
 9927TIP3    H229725   1.010   6.931   4.730
 9928TIP3   OH229726   2.333   6.286   6.019
 9928TIP3    H129727   2.422   6.285   5.983
 9928TIP3    H229728   2.279   6.322   5.950
 9929TIP3   OH229729   3.293   0.228   4.399
 9929TIP3    H129730   3.219   0.252   4.456
 9929TIP3    H229731   3.356   0.188   4.458
 9930TIP3   OH229732   2.979   4.302   3.436
 9930TIP3    H129733   3.042   4.314   3.507
 9930TIP3    H229734   3.033   4.278   3.360
 9931TIP3   OH229735   8.137   4.697   4.788
 9931TIP3    H129736   8.217   4.748   4.779
 9931TIP3    H229737   8.160   4.611   4.753
 9932TIP3   OH229738   6.987   2.899   5.434
 9932TIP3    H129739   6.945   2.916   5.519
 9932TIP3    H229740   6.928   2.939   5.370
 9933TIP3   OH229741   3.259   5.719   5.395
 9933TIP3    H129742   3.289   5.678   5.476
 9933TIP3    H229743   3.336   5.766   5.363
 9934TIP3   OH229744   6.680   4.614   1.398
 9934TIP3    H129745   6.767   4.579   1.384
 9934TIP3    H229746   6.691   4.681   1.466
 9935TIP3   OH229747   7.175   5.553   1.661
 9935TIP3    H129748   7.238   5.516   1.722
 9935TIP3    H229749   7.122   5.479   1.633
 9936TIP3   OH229750   2.801   2.278   4.715
 9936TIP3    H129751   2.853   2.274   4.795
 9936TIP3    H229752   2.770   2.368   4.710
 9937TIP3   OH229753   4.873   2.072   6.647
 9937TIP3    H129754   4.891   2.057   6.740
 9937TIP3    H229755   4.832   2.158   6.644
 9938TIP3   OH229756   0.396   7.595   3.417
 9938TIP3    H129757   0.416   7.524   3.478
 9938TIP3    H229758   0.475   7.649   3.416
 9939TIP3   OH229759   4.188   3.464   4.359
 9939TIP3    H129760   4.129   3.539   4.371
 9939TIP3    H229761   4.272   3.503   4.338
 9940TIP3   OH229762   2.374   5.853   0.934
 9940TIP3    H129763   2.414   5.779   0.980
 9940TIP3    H229764   2.282   5.851   0.963
 9941TIP3   OH229765   8.207   2.937   2.541
 9941TIP3    H129766   8.209   2.975   2.453
 9941TIP3    H229767   8.152   2.859   2.532
 9942TIP3   OH229768   1.140   6.374   1.634
 9942TIP3    H129769   1.151   6.382   1.539
 9942TIP3    H229770   1.202   6.306   1.659
 9943TIP3   OH229771   6.226   0.734   1.110
 9943TIP3    H129772   6.265   0.804   1.162
 9943TIP3    H229773   6.135   0.729   1.139
 9944TIP3   OH229774   6.855   4.668   4.132
 9944TIP3    H129775   6.770   4.657   4.175
 9944TIP3    H229776   6.869   4.762   4.130
 9945TIP3   OH229777   6.109   0.206   0.873
 9945TIP3    H129778   6.155   0.273   0.924
 9945TIP3    H229779   6.018   0.238   0.869
 9946TIP3   OH229780   3.872   1.638   3.077
 9946TIP3    H129781   3.960   1.600   3.082
 9946TIP3    H229782   3.826   1.599   3.152
 9947TIP3   OH229783   7.911   2.091   1.504
 9947TIP3    H129784   7.984   2.152   1.510
 9947TIP3    H229785   7.834   2.141   1.530
 9948TIP3   OH229786   6.321   6.481   1.040
 9948TIP3    H129787   6.245   6.461   1.095
 9948TIP3    H229788   6.366   6.397   1.029
 9949TIP3   OH229789   1.857   5.041   2.510
 9949TIP3    H129790   1.849   4.991   2.591
 9949TIP3    H229791   1.812   4.988   2.444
 9950TIP3   OH229792   4.924   5.938   2.321
 9950TIP3    H129793   4.965   5.854   2.301
 9950TIP3    H229794   4.884   5.966   2.238
 9951TIP3   OH229795   5.510   6.455   5.629
 9951TIP3    H129796   5.522   6.380   5.687
 9951TIP3    H229797   5.483   6.416   5.546
 9952TIP3   OH229798   1.878   2.278   2.617
 9952TIP3    H129799   1.828   2.211   2.662
 9952TIP3    H229800   1.820   2.354   2.614
 9953TIP3   OH229801   6.115   4.233   4.815
 9953TIP3    H129802   6.054   4.306   4.820
 9953TIP3    H229803   6.184   4.255   4.878
 9954TIP3   OH229804   6.263   2.923   5.873
 9954TIP3    H129805   6.274   2.978   5.950
 9954TIP3    H229806   6.289   2.835   5.903
 9955TIP3   OH229807   3.482   3.015   5.303
 9955TIP3    H129808   3.404   2.960   5.292
 9955TIP3    H229809   3.453   3.102   5.274
 9956TIP3   OH229810   4.425   2.922   1.619
 9956TIP3    H129811   4.368   2.926   1.543
 9956TIP3    H229812   4.501   2.976   1.596
 9957TIP3   OH229813   7.368   2.463   2.409
 9957TIP3    H129814   7.336   2.415   2.486
 9957TIP3    H229815   7.450   2.419   2.385
 9958TIP3   OH229816   7.280   1.559   3.239
 9958TIP3    H129817   7.187   1.564   3.260
 9958TIP3    H229818   7.314   1.646   3.260
 9959TIP3   OH229819   4.423   2.832   2.093
 9959TIP3    H129820   4.387   2.768   2.031
 9959TIP3    H229821   4.518   2.824   2.082
 9960TIP3   OH229822   3.806   0.613   5.119
 9960TIP3    H129823   3.724   0.563   5.119
 9960TIP3    H229824   3.873   0.548   5.100
 9961TIP3   OH229825   6.776   0.551   5.637
 9961TIP3    H129826   6.793   0.493   5.563
 9961TIP3    H229827   6.856   0.548   5.689
 9962TIP3   OH229828   3.918   5.810   1.431
 9962TIP3    H129829   3.852   5.810   1.500
 9962TIP3    H229830   3.898   5.888   1.379
 9963TIP3   OH229831   7.190   5.286   2.455
 9963TIP3    H129832   7.143   5.253   2.531
 9963TIP3    H229833   7.146   5.368   2.432
 9964TIP3   OH229834   7.814   0.256   5.171
 9964TIP3    H129835   7.866   0.187   5.213
 9964TIP3    H229836   7.840   0.336   5.216
 9965TIP3   OH229837   6.028   6.791   0.739
 9965TIP3    H129838   6.056   6.878   0.765
 9965TIP3    H229839   6.107   6.738   0.741
 9966TIP3   OH229840   6.841   3.994   2.026
 9966TIP3    H129841   6.800   3.997   2.113
 9966TIP3    H229842   6.794   4.061   1.976
 9967TIP3   OH229843   7.525   3.120   4.437
 9967TIP3    H129844   7.512   3.088   4.347
 9967TIP3    H229845   7.610   3.165   4.434
 9968TIP3   OH229846   3.459   6.803   2.325
 9968TIP3    H129847   3.494   6.836   2.407
 9968TIP3    H229848   3.374   6.765   2.348
 9969TIP3   OH229849   4.263   2.691   5.328
 9969TIP3    H129850   4.212   2.629   5.379
 9969TIP3    H229851   4.345   2.645   5.310
 9970TIP3   OH229852   4.158   7.604   3.158
 9970TIP3    H129853   4.121   7.527   3.114
 9970TIP3    H229854   4.241   7.574   3.193
 9971TIP3   OH229855   1.268   0.469   6.558
 9971TIP3    H129856   1.234   0.517   6.633
 9971TIP3    H229857   1.362   0.460   6.575
 9972TIP3   OH229858   6.996   5.853   3.682
 9972TIP3    H129859   7.012   5.885   3.593
 9972TIP3    H229860   7.083   5.852   3.723
 9973TIP3   OH229861   7.629   5.364   0.249
 9973TIP3    H129862   7.688   5.289   0.239
 9973TIP3    H229863   7.600   5.384   0.160
 9974TIP3   OH229864   6.689   4.702   3.736
 9974TIP3    H129865   6.652   4.754   3.664
 9974TIP3    H229866   6.760   4.756   3.771
 9975TIP3   OH229867   3.035   1.861   1.587
 9975TIP3    H129868   2.966   1.850   1.652
 9975TIP3    H229869   2.989   1.879   1.506
 9976TIP3   OH229870   4.858   3.233   4.145
 9976TIP3    H129871   4.845   3.273   4.059
 9976TIP3    H229872   4.826   3.144   4.135
 9977TIP3   OH229873   6.127   1.737   1.486
 9977TIP3    H129874   6.193   1.670   1.505
 9977TIP3    H229875   6.103   1.722   1.395
 9978TIP3   OH229876   2.613   6.298   5.886
 9978TIP3    H129877   2.602   6.381   5.933
 9978TIP3    H229878   2.637   6.235   5.953
 9979TIP3   OH229879   4.953   6.916   4.778
 9979TIP3    H129880   4.859   6.907   4.761
 9979TIP3    H229881   4.974   6.844   4.836
 9980TIP3   OH229882   5.997   5.393   6.245
 9980TIP3    H129883   6.031   5.347   6.322
 9980TIP3    H229884   6.073   5.400   6.186
 9981TIP3   OH229885   2.487   4.168   0.263
 9981TIP3    H129886   2.566   4.131   0.301
 9981TIP3    H229887   2.511   4.258   0.241
 9982TIP3   OH229888   6.059   3.181   5.706
 9982TIP3    H129889   6.069   3.276   5.695
 9982TIP3    H229890   5.965   3.167   5.707
 9983TIP3   OH229891   1.718   4.199   6.102
 9983TIP3    H129892   1.774   4.274   6.122
 9983TIP3    H229893   1.773   4.140   6.051
 9984TIP3   OH229894   0.150   0.845   4.597
 9984TIP3    H129895   0.147   0.819   4.689
 9984TIP3    H229896   0.102   0.928   4.594
 9985TIP3   OH229897   6.851   3.778   6.362
 9985TIP3    H129898   6.775   3.777   6.419
 9985TIP3    H229899   6.919   3.822   6.412
 9986TIP3   OH229900   5.270   2.062   3.907
 9986TIP3    H129901   5.334   2.128   3.879
 9986TIP3    H229902   5.271   1.997   3.837
 9987TIP3   OH229903   1.123   7.449   0.692
 9987TIP3    H129904   1.165   7.533   0.671
 9987TIP3    H229905   1.066   7.431   0.617
 9988TIP3   OH229906   7.738   6.761   0.217
 9988TIP3    H129907   7.723   6.824   0.287
 9988TIP3    H229908   7.811   6.707   0.248
 9989TIP3   OH229909   2.410   6.015   6.323
 9989TIP3    H129910   2.503   5.998   6.336
 9989TIP3    H229911   2.406   6.078   6.252
 9990TIP3   OH229912   2.082   5.634   5.657
 9990TIP3    H129913   2.058   5.586   5.578
 9990TIP3    H229914   2.071   5.571   5.728
 9991TIP3   OH229915   2.477   4.206   3.860
 9991TIP3    H129916   2.482   4.195   3.765
 9991TIP3    H229917   2.527   4.131   3.895
 9992TIP3   OH229918   7.395   5.983   1.613
 9992TIP3    H129919   7.424   5.941   1.695
 9992TIP3    H229920   7.442   6.067   1.612
 9993TIP3   OH229921   3.347   4.030   2.927
 9993TIP3    H129922   3.312   4.091   2.862
 9993TIP3    H229923   3.362   3.949   2.879
 9994TIP3   OH229924   2.344   4.330   0.553
 9994TIP3    H129925   2.286   4.325   0.628
 9994TIP3    H229926   2.292   4.298   0.479
 9995TIP3   OH229927   3.372   1.569   4.076
 9995TIP3    H129928   3.399   1.496   4.132
 9995TIP3    H229929   3.453   1.597   4.033
 9996TIP3   OH229930   7.627   3.947   4.053
 9996TIP3    H129931   7.644   3.884   3.982
 9996TIP3    H229932   7.704   4.004   4.053
 9997TIP3   OH229933   0.729   0.735   4.093
 9997TIP3    H129934   0.748   0.658   4.038
 9997TIP3    H229935   0.649   0.711   4.140
 9998TIP3   OH229936   8.049   3.329   0.645
 9998TIP3    H129937   8.137   3.297   0.626
 9998TIP3    H229938   8.062   3.420   0.671
 9999TIP3   OH229939   5.225   7.462   5.264
 9999TIP3    H129940   5.298   7.401   5.258
 9999TIP3    H229941   5.166   7.422   5.328
10000TIP3   OH229942   1.149   6.810   4.284
10000TIP3    H129943   1.209   6.836   4.355
10000TIP3    H229944   1.095   6.887   4.269
10001TIP3   OH229945   8.047   7.437   2.142
10001TIP3    H129946   8.049   7.446   2.238
10001TIP3    H229947   7.956   7.415   2.122
10002TIP3   OH229948   0.314   0.020   1.076
10002TIP3    H129949   0.366   0.091   1.114
10002TIP3    H229950   0.346   0.012   0.986
10003TIP3   OH229951   2.348   1.576   2.240
10003TIP3    H129952   2.370   1.606   2.152
10003TIP3    H229953   2.295   1.497   2.226
10004TIP3   OH229954   7.313   3.352   6.077
10004TIP3    H129955   7.348   3.263   6.089
10004TIP3    H229956   7.377   3.409   6.119
10005TIP3   OH229957   0.273   5.506   2.930
10005TIP3    H129958   0.179   5.506   2.914
10005TIP3    H229959   0.284   5.457   3.011
10006TIP3   OH229960   7.253   5.808   2.384
10006TIP3    H129961   7.237   5.889   2.336
10006TIP3    H229962   7.221   5.827   2.473
10007TIP3   OH229963   5.311   1.320   1.096
10007TIP3    H129964   5.257   1.344   1.171
10007TIP3    H229965   5.283   1.379   1.026
10008TIP3   OH229966   8.312   7.319   5.415
10008TIP3    H129967   8.301   7.225   5.432
10008TIP3    H229968   8.273   7.362   5.492
10009TIP3   OH229969   7.681   6.682   1.405
10009TIP3    H129970   7.744   6.754   1.404
10009TIP3    H229971   7.699   6.633   1.325
10010TIP3   OH229972   7.501   1.187   0.078
10010TIP3    H129973   7.500   1.139  -0.005
10010TIP3    H229974   7.452   1.267   0.060
10011TIP3   OH229975   1.225   1.389   1.241
10011TIP3    H129976   1.246   1.408   1.150
10011TIP3    H229977   1.250   1.297   1.253
10012TIP3   OH229978   0.053   7.592   3.746
10012TIP3    H129979   0.000   7.628   3.674
10012TIP3    H229980   0.103   7.666   3.779
10013TIP3   OH229981   7.671   4.048   4.803
10013TIP3    H129982   7.594   4.086   4.847
10013TIP3    H229983   7.744   4.068   4.861
10014TIP3   OH229984   5.673   0.913   3.417
10014TIP3    H129985   5.673   0.883   3.508
10014TIP3    H229986   5.737   0.984   3.414
10015TIP3   OH229987   6.064   5.750   1.738
10015TIP3    H129988   6.008   5.804   1.793
10015TIP3    H229989   6.153   5.782   1.755
10016TIP3   OH229990   6.566   7.774   6.246
10016TIP3    H129991   6.520   7.782   6.163
10016TIP3    H229992   6.580   7.864   6.276
10017TIP3   OH229993   3.908   4.238   2.794
10017TIP3    H129994   3.857   4.315   2.821
10017TIP3    H229995   3.999   4.262   2.810
10018TIP3   OH229996   0.916   5.506   5.372
10018TIP3    H129997   0.968   5.585   5.390
10018TIP3    H229998   0.980   5.442   5.341
10019TIP3   OH229999   4.508   7.729   0.621
10019TIP3    H130000   4.590   7.686   0.597
10019TIP3    H230001   4.534   7.804   0.674
10020TIP3   OH230002   2.346   7.220   4.537
10020TIP3    H130003   2.267   7.264   4.568
10020TIP3    H230004   2.415   7.246   4.598
10021TIP3   OH230005   0.648   3.045   1.405
10021TIP3    H130006   0.639   3.129   1.450
10021TIP3    H230007   0.729   3.007   1.440
10022TIP3   OH230008   1.366   1.340   6.641
10022TIP3    H130009   1.428   1.408   6.665
10022TIP3    H230010   1.300   1.342   6.710
10023TIP3   OH230011   7.466   1.022   2.090
10023TIP3    H130012   7.553   0.986   2.072
10023TIP3    H230013   7.446   0.992   2.179
10024TIP3   OH230014   6.845   5.518   4.305
10024TIP3    H130015   6.765   5.488   4.262
10024TIP3    H230016   6.893   5.565   4.237
10025TIP3   OH230017   1.178   3.691   3.385
10025TIP3    H130018   1.233   3.721   3.313
10025TIP3    H230019   1.096   3.666   3.343
10026TIP3   OH230020   0.943   7.366   0.503
10026TIP3    H130021   0.946   7.273   0.526
10026TIP3    H230022   0.852   7.392   0.517
10027TIP3   OH230023   7.222   3.681   5.969
10027TIP3    H130024   7.190   3.706   6.055
10027TIP3    H230025   7.221   3.762   5.918
10028TIP3   OH230026   4.066   6.284   0.257
10028TIP3    H130027   4.120   6.215   0.218
10028TIP3    H230028   4.033   6.245   0.338
10029TIP3   OH230029   5.640   4.656   1.349
10029TIP3    H130030   5.636   4.752   1.342
10029TIP3    H230031   5.716   4.640   1.404
10030TIP3   OH230032   6.371   1.729   0.556
10030TIP3    H130033   6.460   1.751   0.582
10030TIP3    H230034   6.364   1.635   0.571
10031TIP3   OH230035   7.371   3.288   2.569
10031TIP3    H130036   7.424   3.331   2.501
10031TIP3    H230037   7.392   3.335   2.649
10032TIP3   OH230038   8.011   2.436   6.368
10032TIP3    H130039   8.063   2.439   6.288
10032TIP3    H230040   8.053   2.500   6.426
10033TIP3   OH230041   5.507   2.279   0.385
10033TIP3    H130042   5.569   2.208   0.403
10033TIP3    H230043   5.509   2.333   0.464
10034TIP3   OH230044   1.073   7.634   2.287
10034TIP3    H130045   1.104   7.678   2.366
10034TIP3    H230046   1.111   7.546   2.292
10035TIP3   OH230047   4.568   5.385   0.475
10035TIP3    H130048   4.614   5.302   0.465
10035TIP3    H230049   4.475   5.361   0.471
10036TIP3   OH230050   6.979   4.588   0.231
10036TIP3    H130051   7.022   4.536   0.163
10036TIP3    H230052   6.971   4.528   0.306
10037TIP3   OH230053   5.491   6.105   0.515
10037TIP3    H130054   5.452   6.146   0.592
10037TIP3    H230055   5.562   6.165   0.490
10038TIP3   OH230056   1.253   6.893   2.367
10038TIP3    H130057   1.339   6.935   2.375
10038TIP3    H230058   1.197   6.961   2.329
10039TIP3   OH230059   1.865   6.379   5.723
10039TIP3    H130060   1.901   6.426   5.798
10039TIP3    H230061   1.898   6.289   5.732
10040TIP3   OH230062   2.736   6.433   4.238
10040TIP3    H130063   2.641   6.444   4.234
10040TIP3    H230064   2.758   6.381   4.160
10041TIP3   OH230065   7.413   2.186   4.614
10041TIP3    H130066   7.388   2.255   4.552
10041TIP3    H230067   7.386   2.105   4.570
10042TIP3   OH230068   3.617   1.722   3.025
10042TIP3    H130069   3.617   1.797   2.966
10042TIP3    H230070   3.709   1.697   3.032
10043TIP3   OH230071   1.217   0.770   6.344
10043TIP3    H130072   1.159   0.832   6.300
10043TIP3    H230073   1.244   0.815   6.424
10044TIP3   OH230074   1.199   7.612   0.341
10044TIP3    H130075   1.292   7.616   0.361
10044TIP3    H230076   1.192   7.546   0.271
10045TIP3   OH230077   7.979   4.349   1.197
10045TIP3    H130078   7.911   4.402   1.157
10045TIP3    H230079   7.999   4.282   1.132
10046TIP3   OH230080   3.921   1.070  -0.012
10046TIP3    H130081   3.930   1.037   0.078
10046TIP3    H230082   3.933   0.993  -0.067
10047TIP3   OH230083   3.207   0.724   2.582
10047TIP3    H130084   3.298   0.751   2.592
10047TIP3    H230085   3.173   0.779   2.510
10048TIP3   OH230086   2.474   3.100   1.594
10048TIP3    H130087   2.393   3.055   1.572
10048TIP3    H230088   2.484   3.088   1.689
10049TIP3   OH230089   6.933   3.552   5.722
10049TIP3    H130090   7.006   3.491   5.733
10049TIP3    H230091   6.971   3.626   5.675
10050TIP3   OH230092   4.571   4.245   1.996
10050TIP3    H130093   4.499   4.289   2.042
10050TIP3    H230094   4.567   4.280   1.907
10051TIP3   OH230095   7.383   4.435   2.618
10051TIP3    H130096   7.311   4.374   2.635
10051TIP3    H230097   7.340   4.521   2.609
10052TIP3   OH230098   0.286   1.188   2.410
10052TIP3    H130099   0.339   1.260   2.446
10052TIP3    H230100   0.316   1.178   2.320
10053TIP3   OH230101   0.870   2.874   3.713
10053TIP3    H130102   0.873   2.873   3.618
10053TIP3    H230103   0.936   2.938   3.739
10054TIP3   OH230104   5.343   6.263   3.005
10054TIP3    H130105   5.352   6.217   3.089
10054TIP3    H230106   5.270   6.218   2.962
10055TIP3   OH230107   2.477   6.745   1.362
10055TIP3    H130108   2.510   6.706   1.281
10055TIP3    H230109   2.469   6.839   1.342
10056TIP3   OH230110   2.917   4.018   2.107
10056TIP3    H130111   2.887   3.998   2.196
10056TIP3    H230112   2.986   4.083   2.120
10057TIP3   OH230113   2.555   4.392   0.017
10057TIP3    H130114   2.564   4.306  -0.024
10057TIP3    H230115   2.484   4.435  -0.032
10058TIP3   OH230116   4.636   5.520   3.221
10058TIP3    H130117   4.662   5.429   3.204
10058TIP3    H230118   4.639   5.562   3.135
10059TIP3   OH230119   4.605   7.350   3.293
10059TIP3    H130120   4.683   7.343   3.238
10059TIP3    H230121   4.589   7.261   3.323
10060TIP3   OH230122   4.393   1.098   6.521
10060TIP3    H130123   4.458   1.029   6.528
10060TIP3    H230124   4.437   1.176   6.556
10061TIP3   OH230125   2.424   7.594   0.397
10061TIP3    H130126   2.444   7.570   0.488
10061TIP3    H230127   2.466   7.680   0.386
10062TIP3   OH230128   1.821   4.673   1.798
10062TIP3    H130129   1.858   4.754   1.834
10062TIP3    H230130   1.806   4.693   1.706
10063TIP3   OH230131   5.572   7.083   6.585
10063TIP3    H130132   5.621   7.133   6.519
10063TIP3    H230133   5.638   7.054   6.647
10064TIP3   OH230134   4.761   1.956   5.577
10064TIP3    H130135   4.851   1.926   5.586
10064TIP3    H230136   4.766   2.027   5.512
10065TIP3   OH230137   6.085   1.785   6.140
10065TIP3    H130138   6.174   1.789   6.173
10065TIP3    H230139   6.094   1.794   6.045
10066TIP3   OH230140   1.558   3.367   6.726
10066TIP3    H130141   1.549   3.342   6.634
10066TIP3    H230142   1.525   3.457   6.728
10067TIP3   OH230143   5.974   5.864   4.156
10067TIP3    H130144   5.912   5.937   4.154
10067TIP3    H230145   6.060   5.905   4.146
10068TIP3   OH230146   8.004   5.583   4.328
10068TIP3    H130147   7.923   5.632   4.343
10068TIP3    H230148   8.045   5.627   4.253
10069TIP3   OH230149   3.854   2.290   0.918
10069TIP3    H130150   3.821   2.228   0.853
10069TIP3    H230151   3.788   2.291   0.987
10070TIP3   OH230152   5.614   2.372   1.844
10070TIP3    H130153   5.668   2.292   1.845
10070TIP3    H230154   5.525   2.340   1.831
10071TIP3   OH230155   3.080   4.302   5.087
10071TIP3    H130156   3.058   4.213   5.116
10071TIP3    H230157   3.153   4.290   5.026
10072TIP3   OH230158   4.803   2.635   5.595
10072TIP3    H130159   4.872   2.680   5.642
10072TIP3    H230160   4.723   2.685   5.614
10073TIP3   OH230161   6.824   3.511   6.284
10073TIP3    H130162   6.799   3.603   6.298
10073TIP3    H230163   6.915   3.506   6.313
10074TIP3   OH230164   2.169   3.208   5.354
10074TIP3    H130165   2.133   3.246   5.273
10074TIP3    H230166   2.111   3.239   5.423
10075TIP3   OH230167   1.978   6.116   3.023
10075TIP3    H130168   1.933   6.065   3.090
10075TIP3    H230169   2.061   6.140   3.063
10076TIP3   OH230170   8.254   7.454   0.261
10076TIP3    H130171   8.311   7.510   0.209
10076TIP3    H230172   8.166   7.490   0.247
10077TIP3   OH230173   2.974   7.775   0.606
10077TIP3    H130174   3.011   7.752   0.691
10077TIP3    H230175   3.044   7.758   0.544
10078TIP3   OH230176   0.756   5.945   3.869
10078TIP3    H130177   0.768   6.029   3.824
10078TIP3    H230178   0.828   5.942   3.932
10079TIP3   OH230179   7.084   3.299   5.158
10079TIP3    H130180   7.130   3.219   5.133
10079TIP3    H230181   7.133   3.332   5.233
10080TIP3   OH230182   2.085   0.534   4.626
10080TIP3    H130183   2.060   0.545   4.534
10080TIP3    H230184   2.001   0.531   4.672
10081TIP3   OH230185   1.858   3.584   5.753
10081TIP3    H130186   1.851   3.576   5.658
10081TIP3    H230187   1.775   3.623   5.780
10082TIP3   OH230188   4.174   4.214   2.426
10082TIP3    H130189   4.099   4.169   2.466
10082TIP3    H230190   4.214   4.263   2.498
10083TIP3   OH230191   0.426   7.590   2.048
10083TIP3    H130192   0.365   7.520   2.072
10083TIP3    H230193   0.500   7.579   2.108
10084TIP3   OH230194   4.308   7.277   6.310
10084TIP3    H130195   4.215   7.262   6.328
10084TIP3    H230196   4.320   7.371   6.320
10085TIP3   OH230197   5.690   2.385   5.398
10085TIP3    H130198   5.711   2.295   5.423
10085TIP3    H230199   5.731   2.397   5.312
10086TIP3   OH230200   7.931   3.954   2.221
10086TIP3    H130201   7.931   3.859   2.214
10086TIP3    H230202   7.890   3.985   2.141
10087TIP3   OH230203   4.023   7.843   3.296
10087TIP3    H130204   4.071   7.768   3.259
10087TIP3    H230205   4.089   7.890   3.347
10088TIP3   OH230206   5.467   3.257   4.512
10088TIP3    H130207   5.485   3.336   4.564
10088TIP3    H230208   5.424   3.198   4.574
10089TIP3   OH230209   6.014   2.288   2.214
10089TIP3    H130210   5.963   2.349   2.268
10089TIP3    H230211   6.052   2.226   2.276
10090TIP3   OH230212   7.252   6.238   6.040
10090TIP3    H130213   7.254   6.174   5.968
10090TIP3    H230214   7.341   6.272   6.045
10091TIP3   OH230215   0.683   1.048   5.434
10091TIP3    H130216   0.748   0.983   5.462
10091TIP3    H230217   0.709   1.071   5.345
10092TIP3   OH230218   3.681   5.172   3.404
10092TIP3    H130219   3.752   5.112   3.384
10092TIP3    H230220   3.709   5.217   3.484
10093TIP3   OH230221   2.182   1.597   5.868
10093TIP3    H130222   2.187   1.556   5.954
10093TIP3    H230223   2.101   1.648   5.870
10094TIP3   OH230224   2.789   6.429   1.084
10094TIP3    H130225   2.705   6.395   1.115
10094TIP3    H230226   2.830   6.355   1.039
10095TIP3   OH230227   7.402   0.055   4.937
10095TIP3    H130228   7.434   0.120   4.875
10095TIP3    H230229   7.453   0.071   5.017
10096TIP3   OH230230   0.613   4.135   5.573
10096TIP3    H130231   0.683   4.200   5.565
10096TIP3    H230232   0.553   4.172   5.638
10097TIP3   OH230233   5.669   1.515   0.273
10097TIP3    H130234   5.635   1.543   0.359
10097TIP3    H230235   5.735   1.581   0.251
10098TIP3   OH230236   3.410   5.830   6.058
10098TIP3    H130237   3.395   5.913   6.104
10098TIP3    H230238   3.347   5.831   5.986
10099TIP3   OH230239   2.325   3.706   5.278
10099TIP3    H130240   2.333   3.615   5.308
10099TIP3    H230241   2.401   3.720   5.222
10100TIP3   OH230242   3.765   2.601   3.543
10100TIP3    H130243   3.811   2.622   3.462
10100TIP3    H230244   3.739   2.686   3.579
10101TIP3   OH230245   3.139   1.520   5.682
10101TIP3    H130246   3.131   1.505   5.588
10101TIP3    H230247   3.049   1.533   5.712
10102TIP3   OH230248   0.973   5.287   2.654
10102TIP3    H130249   1.030   5.344   2.706
10102TIP3    H230250   1.032   5.224   2.613
10103TIP3   OH230251   3.374   2.494   0.117
10103TIP3    H130252   3.420   2.494   0.033
10103TIP3    H230253   3.336   2.406   0.123
10104TIP3   OH230254   4.527   0.232   3.122
10104TIP3    H130255   4.470   0.263   3.052
10104TIP3    H230256   4.526   0.137   3.114
10105TIP3   OH230257   2.503   6.769   4.385
10105TIP3    H130258   2.533   6.775   4.294
10105TIP3    H230259   2.431   6.832   4.390
10106TIP3   OH230260   0.130   5.118   6.462
10106TIP3    H130261   0.218   5.093   6.490
10106TIP3    H230262   0.081   5.131   6.544
10107TIP3   OH230263   1.090   0.175   6.601
10107TIP3    H130264   1.077   0.088   6.639
10107TIP3    H230265   1.130   0.226   6.671
10108TIP3   OH230266   1.302   2.879   3.323
10108TIP3    H130267   1.398   2.882   3.315
10108TIP3    H230268   1.277   2.799   3.277
10109TIP3   OH230269   0.056   1.416   5.258
10109TIP3    H130270   0.079   1.456   5.174
10109TIP3    H230271   0.132   1.431   5.313
10110TIP3   OH230272   8.127   4.380   4.968
10110TIP3    H130273   8.086   4.317   5.028
10110TIP3    H230274   8.199   4.417   5.018
10111TIP3   OH230275   7.806   1.173   5.615
10111TIP3    H130276   7.769   1.172   5.703
10111TIP3    H230277   7.733   1.149   5.558
10112TIP3   OH230278   3.295   3.809   1.004
10112TIP3    H130279   3.386   3.840   1.004
10112TIP3    H230280   3.272   3.802   1.096
10113TIP3   OH230281   6.267   1.585   4.993
10113TIP3    H130282   6.312   1.538   5.064
10113TIP3    H230283   6.180   1.604   5.029
10114TIP3   OH230284   4.588   1.045   0.221
10114TIP3    H130285   4.627   0.963   0.252
10114TIP3    H230286   4.599   1.106   0.295
10115TIP3   OH230287   7.501   7.413   4.108
10115TIP3    H130288   7.548   7.483   4.063
10115TIP3    H230289   7.409   7.428   4.086
10116TIP3   OH230290   6.099   1.845   5.888
10116TIP3    H130291   6.079   1.932   5.854
10116TIP3    H230292   6.095   1.787   5.811
10117TIP3   OH230293   3.728   0.288   0.705
10117TIP3    H130294   3.643   0.269   0.743
10117TIP3    H230295   3.717   0.374   0.664
10118TIP3   OH230296   7.358   1.617   6.765
10118TIP3    H130297   7.322   1.702   6.790
10118TIP3    H230298   7.443   1.613   6.809
10119TIP3   OH230299   3.378   3.783   2.842
10119TIP3    H130300   3.357   3.691   2.858
10119TIP3    H230301   3.472   3.784   2.826
10120TIP3   OH230302   0.108   2.533   6.058
10120TIP3    H130303   0.166   2.569   6.125
10120TIP3    H230304   0.132   2.441   6.051
10121TIP3   OH230305   8.248   1.013   5.534
10121TIP3    H130306   8.274   1.073   5.604
10121TIP3    H230307   8.262   1.061   5.453
10122TIP3   OH230308   3.219   2.700   2.535
10122TIP3    H130309   3.146   2.750   2.498
10122TIP3    H230310   3.242   2.636   2.467
10123TIP3   OH230311   5.438   1.172   4.249
10123TIP3    H130312   5.446   1.220   4.331
10123TIP3    H230313   5.355   1.201   4.211
10124TIP3   OH230314   3.430   5.331   4.929
10124TIP3    H130315   3.380   5.408   4.957
10124TIP3    H230316   3.384   5.300   4.851
10125TIP3   OH230317   3.075   2.715   4.884
10125TIP3    H130318   3.058   2.656   4.810
10125TIP3    H230319   2.998   2.706   4.940
10126TIP3   OH230320   0.633   1.971   6.356
10126TIP3    H130321   0.655   2.023   6.278
10126TIP3    H230322   0.639   2.034   6.428
10127TIP3   OH230323   6.841   4.897   2.526
10127TIP3    H130324   6.854   4.821   2.582
10127TIP3    H230325   6.836   4.861   2.437
10128TIP3   OH230326   2.851   2.591   0.890
10128TIP3    H130327   2.826   2.507   0.853
10128TIP3    H230328   2.931   2.615   0.843
10129TIP3   OH230329   1.860   2.359   3.849
10129TIP3    H130330   1.838   2.266   3.851
10129TIP3    H230331   1.847   2.385   3.758
10130TIP3   OH230332   1.227   4.878   0.158
10130TIP3    H130333   1.264   4.851   0.073
10130TIP3    H230334   1.134   4.888   0.142
10131TIP3   OH230335   0.401   4.266   6.037
10131TIP3    H130336   0.462   4.259   6.110
10131TIP3    H230337   0.388   4.360   6.025
10132TIP3   OH230338   0.148   6.437   0.389
10132TIP3    H130339   0.150   6.403   0.299
10132TIP3    H230340   0.221   6.393   0.432
10133TIP3   OH230341   4.871   3.356   2.681
10133TIP3    H130342   4.819   3.404   2.617
10133TIP3    H230343   4.954   3.403   2.685
10134TIP3   OH230344   5.709   6.228   5.612
10134TIP3    H130345   5.726   6.169   5.539
10134TIP3    H230346   5.756   6.190   5.686
10135TIP3   OH230347   7.140   6.549   4.438
10135TIP3    H130348   7.061   6.570   4.388
10135TIP3    H230349   7.198   6.508   4.374
10136TIP3   OH230350   1.254   5.980   4.032
10136TIP3    H130351   1.216   5.987   4.120
10136TIP3    H230352   1.308   6.059   4.023
10137TIP3   OH230353   1.147   4.036   5.371
10137TIP3    H130354   1.207   4.101   5.409
10137TIP3    H230355   1.169   4.035   5.278
10138TIP3   OH230356   1.027   4.321   5.266
10138TIP3    H130357   1.074   4.260   5.208
10138TIP3    H230358   1.096   4.374   5.306
10139TIP3   OH230359   4.930   6.362   6.203
10139TIP3    H130360   4.888   6.404   6.279
10139TIP3    H230361   5.021   6.391   6.207
10140TIP3   OH230362   7.253   7.453   3.072
10140TIP3    H130363   7.192   7.454   3.146
10140TIP3    H230364   7.338   7.470   3.111
10141TIP3   OH230365   6.495   1.890   3.543
10141TIP3    H130366   6.467   1.832   3.471
10141TIP3    H230367   6.576   1.850   3.575
10142TIP3   OH230368   4.571   3.263   2.025
10142TIP3    H130369   4.502   3.322   1.994
10142TIP3    H230370   4.527   3.207   2.089
10143TIP3   OH230371   3.247   3.817   5.089
10143TIP3    H130372   3.237   3.874   5.013
10143TIP3    H230373   3.333   3.839   5.125
10144TIP3   OH230374   7.734   2.055   2.431
10144TIP3    H130375   7.659   1.996   2.419
10144TIP3    H230376   7.705   2.118   2.497
10145TIP3   OH230377   3.745   0.730   4.186
10145TIP3    H130378   3.796   0.807   4.210
10145TIP3    H230379   3.654   0.758   4.194
10146TIP3   OH230380   6.214   5.105   2.800
10146TIP3    H130381   6.299   5.077   2.833
10146TIP3    H230382   6.212   5.200   2.817
10147TIP3   OH230383   5.670   3.295   2.221
10147TIP3    H130384   5.639   3.224   2.277
10147TIP3    H230385   5.684   3.253   2.136
10148TIP3   OH230386   7.161   3.008   6.693
10148TIP3    H130387   7.178   2.935   6.634
10148TIP3    H230388   7.112   2.970   6.766
10149TIP3   OH230389   8.081   1.426   4.546
10149TIP3    H130390   8.074   1.421   4.642
10149TIP3    H230391   8.013   1.366   4.515
10150TIP3   OH230392   2.472   2.881   5.043
10150TIP3    H130393   2.448   2.823   4.971
10150TIP3    H230394   2.394   2.935   5.057
10151TIP3   OH230395   7.530   5.941   1.893
10151TIP3    H130396   7.535   5.856   1.851
10151TIP3    H230397   7.514   5.922   1.986
10152TIP3   OH230398   1.147   5.716   3.320
10152TIP3    H130399   1.160   5.651   3.388
10152TIP3    H230400   1.229   5.767   3.320
10153TIP3   OH230401   6.144   4.738   1.769
10153TIP3    H130402   6.105   4.820   1.738
10153TIP3    H230403   6.129   4.676   1.698
10154TIP3   OH230404   2.494   3.242   1.355
10154TIP3    H130405   2.432   3.314   1.367
10154TIP3    H230406   2.489   3.192   1.436
10155TIP3   OH230407   2.993   0.046   4.732
10155TIP3    H130408   3.025   0.099   4.805
10155TIP3    H230409   3.072   0.011   4.691
10156TIP3   OH230410   2.735   1.922   5.049
10156TIP3    H130411   2.669   1.941   5.116
10156TIP3    H230412   2.686   1.924   4.966
10157TIP3   OH230413   7.090   4.960   0.663
10157TIP3    H130414   7.165   4.902   0.655
10157TIP3    H230415   7.081   5.000   0.577
10158TIP3   OH230416   1.991   5.763   0.670
10158TIP3    H130417   2.047   5.686   0.676
10158TIP3    H230418   1.902   5.730   0.678
10159TIP3   OH230419   5.728   2.549   2.024
10159TIP3    H130420   5.678   2.494   1.964
10159TIP3    H230421   5.811   2.564   1.979
10160TIP3   OH230422   3.175   7.329   3.037
10160TIP3    H130423   3.101   7.360   3.090
10160TIP3    H230424   3.166   7.233   3.038
10161TIP3   OH230425   7.855   2.946   3.151
10161TIP3    H130426   7.787   2.967   3.216
10161TIP3    H230427   7.880   2.856   3.172
10162TIP3   OH230428   0.242   7.500   0.485
10162TIP3    H130429   0.238   7.537   0.573
10162TIP3    H230430   0.336   7.492   0.467
10163TIP3   OH230431   1.605   5.374   0.537
10163TIP3    H130432   1.597   5.465   0.506
10163TIP3    H230433   1.572   5.377   0.626
10164TIP3   OH230434   4.890   6.496   2.130
10164TIP3    H130435   4.811   6.447   2.152
10164TIP3    H230436   4.962   6.435   2.145
10165TIP3   OH230437   3.709   7.210   6.214
10165TIP3    H130438   3.684   7.180   6.302
10165TIP3    H230439   3.733   7.131   6.167
10166TIP3   OH230440   2.641   3.317   2.511
10166TIP3    H130441   2.573   3.354   2.568
10166TIP3    H230442   2.694   3.263   2.569
10167TIP3   OH230443   5.131   1.214   3.205
10167TIP3    H130444   5.044   1.207   3.167
10167TIP3    H230445   5.184   1.149   3.159
10168TIP3   OH230446   4.651   4.705   0.287
10168TIP3    H130447   4.729   4.656   0.311
10168TIP3    H230448   4.662   4.724   0.194
10169TIP3   OH230449   5.114   4.203   4.083
10169TIP3    H130450   5.088   4.259   4.011
10169TIP3    H230451   5.036   4.198   4.139
10170TIP3   OH230452   5.360   2.446   4.836
10170TIP3    H130453   5.272   2.440   4.798
10170TIP3    H230454   5.394   2.357   4.834
10171TIP3   OH230455   3.645   3.425   5.364
10171TIP3    H130456   3.610   3.361   5.425
10171TIP3    H230457   3.732   3.445   5.397
10172TIP3   OH230458   3.368   2.879   0.996
10172TIP3    H130459   3.420   2.942   1.045
10172TIP3    H230460   3.433   2.817   0.961
10173TIP3   OH230461   0.792   0.114   4.514
10173TIP3    H130462   0.845   0.068   4.579
10173TIP3    H230463   0.822   0.080   4.430
10174TIP3   OH230464   8.015   0.254   0.369
10174TIP3    H130465   8.006   0.280   0.277
10174TIP3    H230466   7.926   0.249   0.401
10175TIP3   OH230467   4.593   2.825   2.870
10175TIP3    H130468   4.647   2.749   2.893
10175TIP3    H230469   4.599   2.883   2.946
10176TIP3   OH230470   7.446   5.873   2.132
10176TIP3    H130471   7.504   5.828   2.193
10176TIP3    H230472   7.420   5.953   2.178
10177TIP3   OH230473   1.801   1.835   1.898
10177TIP3    H130474   1.779   1.773   1.968
10177TIP3    H230475   1.844   1.908   1.943
10178TIP3   OH230476   4.355   2.628   3.228
10178TIP3    H130477   4.368   2.638   3.134
10178TIP3    H230478   4.365   2.535   3.245
10179TIP3   OH230479   3.735   3.377   6.733
10179TIP3    H130480   3.665   3.313   6.743
10179TIP3    H230481   3.716   3.420   6.649
10180TIP3   OH230482   3.518   4.866   3.082
10180TIP3    H130483   3.485   4.864   3.172
10180TIP3    H230484   3.558   4.780   3.070
10181TIP3   OH230485   0.744   5.091   1.527
10181TIP3    H130486   0.722   5.178   1.560
10181TIP3    H230487   0.745   5.101   1.432
10182TIP3   OH230488   4.583   7.753   3.002
10182TIP3    H130489   4.489   7.744   2.990
10182TIP3    H230490   4.607   7.831   2.952
10183TIP3   OH230491   5.099   0.899   5.807
10183TIP3    H130492   5.192   0.912   5.825
10183TIP3    H230493   5.055   0.968   5.856
10184TIP3   OH230494   4.128   7.517   0.490
10184TIP3    H130495   4.068   7.550   0.423
10184TIP3    H230496   4.147   7.593   0.545
10185TIP3   OH230497   1.109   7.747   4.017
10185TIP3    H130498   1.159   7.818   3.975
10185TIP3    H230499   1.169   7.674   4.021
10186TIP3   OH230500   2.473   4.668   6.623
10186TIP3    H130501   2.560   4.705   6.638
10186TIP3    H230502   2.490   4.579   6.594
10187TIP3   OH230503   2.074   2.274   1.236
10187TIP3    H130504   2.045   2.250   1.148
10187TIP3    H230505   2.029   2.357   1.255
10188TIP3   OH230506   2.306   5.411   4.875
10188TIP3    H130507   2.273   5.324   4.856
10188TIP3    H230508   2.379   5.423   4.813
10189TIP3   OH230509   0.856   6.154   0.349
10189TIP3    H130510   0.912   6.098   0.295
10189TIP3    H230511   0.893   6.145   0.437
10190TIP3   OH230512   4.473   3.864   4.848
10190TIP3    H130513   4.534   3.913   4.792
10190TIP3    H230514   4.404   3.836   4.788
10191TIP3   OH230515   8.023   4.961   1.476
10191TIP3    H130516   7.970   4.886   1.450
10191TIP3    H230517   7.964   5.036   1.466
10192TIP3   OH230518   2.629   7.602   4.284
10192TIP3    H130519   2.702   7.660   4.306
10192TIP3    H230520   2.578   7.650   4.218
10193TIP3   OH230521   6.212   2.837   3.663
10193TIP3    H130522   6.132   2.890   3.669
10193TIP3    H230523   6.267   2.883   3.600
10194TIP3   OH230524   4.770   3.971   3.636
10194TIP3    H130525   4.803   4.043   3.690
10194TIP3    H230526   4.794   3.994   3.547
10195TIP3   OH230527   4.097   1.987   1.254
10195TIP3    H130528   4.025   2.045   1.232
10195TIP3    H230529   4.105   1.994   1.349
10196TIP3   OH230530   6.869   4.196   2.772
10196TIP3    H130531   6.909   4.151   2.846
10196TIP3    H230532   6.835   4.126   2.717
10197TIP3   OH230533   3.047   1.117   1.639
10197TIP3    H130534   2.993   1.066   1.699
10197TIP3    H230535   3.097   1.175   1.695
10198TIP3   OH230536   0.482   6.234   0.149
10198TIP3    H130537   0.388   6.223   0.159
10198TIP3    H230538   0.520   6.182   0.219
10199TIP3   OH230539   7.259   0.571   4.422
10199TIP3    H130540   7.318   0.498   4.402
10199TIP3    H230541   7.249   0.569   4.517
10200TIP3   OH230542   6.255   4.488   1.886
10200TIP3    H130543   6.249   4.397   1.859
10200TIP3    H230544   6.298   4.486   1.971
10201TIP3   OH230545   4.979   0.121   0.125
10201TIP3    H130546   4.893   0.124   0.083
10201TIP3    H230547   4.961   0.110   0.218
10202TIP3   OH230548   2.973   3.681   3.232
10202TIP3    H130549   2.930   3.621   3.171
10202TIP3    H230550   3.030   3.625   3.285
10203TIP3   OH230551   0.567   4.932   2.296
10203TIP3    H130552   0.506   4.986   2.347
10203TIP3    H230553   0.514   4.858   2.267
10204TIP3   OH230554   0.237   2.947   5.572
10204TIP3    H130555   0.159   2.894   5.555
10204TIP3    H230556   0.299   2.887   5.613
10205TIP3   OH230557   0.928   7.637   5.394
10205TIP3    H130558   1.007   7.661   5.443
10205TIP3    H230559   0.931   7.541   5.391
10206TIP3   OH230560   6.334   6.467   4.962
10206TIP3    H130561   6.425   6.495   4.952
10206TIP3    H230562   6.305   6.447   4.873
10207TIP3   OH230563   1.623   2.503   4.059
10207TIP3    H130564   1.569   2.431   4.026
10207TIP3    H230565   1.664   2.540   3.981
10208TIP3   OH230566   4.420   0.163   1.072
10208TIP3    H130567   4.492   0.143   1.132
10208TIP3    H230568   4.439   0.251   1.041
10209TIP3   OH230569   3.033   6.036   1.305
10209TIP3    H130570   3.081   6.117   1.287
10209TIP3    H230571   3.072   5.972   1.246
10210TIP3   OH230572   1.229   5.055   4.347
10210TIP3    H130573   1.169   5.073   4.419
10210TIP3    H230574   1.237   4.959   4.346
10211TIP3   OH230575   1.144   3.411   4.014
10211TIP3    H130576   1.122   3.501   4.039
10211TIP3    H230577   1.154   3.364   4.097
10212TIP3   OH230578   4.841   5.718   3.643
10212TIP3    H130579   4.931   5.747   3.661
10212TIP3    H230580   4.830   5.733   3.549
10213TIP3   OH230581   2.572   4.163   0.959
10213TIP3    H130582   2.609   4.078   0.982
10213TIP3    H230583   2.605   4.223   1.026
10214TIP3   OH230584   1.057   3.935   6.285
10214TIP3    H130585   1.125   3.995   6.254
10214TIP3    H230586   1.096   3.893   6.362
10215TIP3   OH230587   6.256   1.122   3.277
10215TIP3    H130588   6.315   1.135   3.351
10215TIP3    H230589   6.296   1.049   3.228
10216TIP3   OH230590   1.967   1.786   3.736
10216TIP3    H130591   2.036   1.821   3.678
10216TIP3    H230592   1.975   1.839   3.816
10217TIP3   OH230593   2.468   0.675   5.986
10217TIP3    H130594   2.538   0.739   5.974
10217TIP3    H230595   2.504   0.611   6.048
10218TIP3   OH230596   3.546   2.050   4.353
10218TIP3    H130597   3.489   2.047   4.429
10218TIP3    H230598   3.591   1.966   4.353
10219TIP3   OH230599   3.505   5.161   6.259
10219TIP3    H130600   3.425   5.213   6.263
10219TIP3    H230601   3.509   5.115   6.343
10220TIP3   OH230602   1.482   7.130   0.973
10220TIP3    H130603   1.436   7.072   1.034
10220TIP3    H230604   1.412   7.174   0.925
10221TIP3   OH230605   4.506   4.997   6.284
10221TIP3    H130606   4.556   4.927   6.327
10221TIP3    H230607   4.426   5.005   6.336
10222TIP3   OH230608   3.496   2.219   0.439
10222TIP3    H130609   3.590   2.241   0.446
10222TIP3    H230610   3.486   2.143   0.497
10223TIP3   OH230611   2.409   5.290   1.294
10223TIP3    H130612   2.390   5.320   1.205
10223TIP3    H230613   2.358   5.347   1.351
10224TIP3   OH230614   4.459   1.923   3.630
10224TIP3    H130615   4.550   1.940   3.654
10224TIP3    H230616   4.416   2.008   3.634
10225TIP3   OH230617   0.500   6.417   4.467
10225TIP3    H130618   0.485   6.386   4.378
10225TIP3    H230619   0.476   6.510   4.464
10226TIP3   OH230620   6.584   4.234   3.748
10226TIP3    H130621   6.674   4.200   3.743
10226TIP3    H230622   6.592   4.314   3.801
10227TIP3   OH230623   2.261   2.966   5.406
10227TIP3    H130624   2.234   3.054   5.379
10227TIP3    H230625   2.290   2.976   5.496
10228TIP3   OH230626   4.586   4.488   2.803
10228TIP3    H130627   4.541   4.485   2.887
10228TIP3    H230628   4.628   4.574   2.801
10229TIP3   OH230629   5.289   2.724   3.037
10229TIP3    H130630   5.282   2.639   3.081
10229TIP3    H230631   5.301   2.787   3.108
10230TIP3   OH230632   5.041   1.653   1.683
10230TIP3    H130633   4.980   1.580   1.670
10230TIP3    H230634   5.053   1.657   1.778
10231TIP3   OH230635   6.338   6.096   0.449
10231TIP3    H130636   6.275   6.028   0.473
10231TIP3    H230637   6.424   6.057   0.465
10232TIP3   OH230638   1.438   6.475   1.534
10232TIP3    H130639   1.505   6.543   1.540
10232TIP3    H230640   1.457   6.417   1.609
10233TIP3   OH230641   5.891   6.478   3.804
10233TIP3    H130642   5.957   6.547   3.804
10233TIP3    H230643   5.808   6.523   3.816
10234TIP3   OH230644   6.903   5.661   6.129
10234TIP3    H130645   6.812   5.637   6.145
10234TIP3    H230646   6.898   5.740   6.075
10235TIP3   OH230647   2.122   4.329   0.712
10235TIP3    H130648   2.092   4.400   0.768
10235TIP3    H230649   2.044   4.276   0.696
10236TIP3   OH230650   5.504   7.813   3.481
10236TIP3    H130651   5.444   7.748   3.445
10236TIP3    H230652   5.590   7.790   3.445
10237TIP3   OH230653   6.388   0.202   4.495
10237TIP3    H130654   6.379   0.268   4.426
10237TIP3    H230655   6.480   0.208   4.522
10238TIP3   OH230656   3.210   3.049   0.817
10238TIP3    H130657   3.271   3.013   0.881
10238TIP3    H230658   3.125   3.048   0.861
10239TIP3   OH230659   2.018   2.173   6.573
10239TIP3    H130660   2.028   2.078   6.569
10239TIP3    H230661   1.953   2.193   6.505
10240TIP3   OH230662   1.357   3.326   3.088
10240TIP3    H130663   1.343   3.308   3.181
10240TIP3    H230664   1.304   3.404   3.070
10241TIP3   OH230665   2.079   3.580   2.170
10241TIP3    H130666   2.145   3.520   2.137
10241TIP3    H230667   2.081   3.654   2.110
10242TIP3   OH230668   2.839   0.534   2.949
10242TIP3    H130669   2.874   0.447   2.971
10242TIP3    H230670   2.810   0.525   2.858
10243TIP3   OH230671   0.775   7.711   0.137
10243TIP3    H130672   0.773   7.617   0.152
10243TIP3    H230673   0.866   7.729   0.111
10244TIP3   OH230674   3.354   2.893   2.701
10244TIP3    H130675   3.426   2.875   2.639
10244TIP3    H230676   3.278   2.851   2.661
10245TIP3   OH230677   0.809   0.375   1.345
10245TIP3    H130678   0.769   0.455   1.379
10245TIP3    H230679   0.858   0.339   1.419
10246TIP3   OH230680   5.414   7.678   4.415
10246TIP3    H130681   5.479   7.608   4.411
10246TIP3    H230682   5.330   7.634   4.406
10247TIP3   OH230683   5.914   0.560   3.991
10247TIP3    H130684   5.871   0.593   4.070
10247TIP3    H230685   5.854   0.583   3.920
10248TIP3   OH230686   3.440   2.440   6.752
10248TIP3    H130687   3.516   2.400   6.710
10248TIP3    H230688   3.476   2.484   6.830
10249TIP3   OH230689   7.827   0.924   4.857
10249TIP3    H130690   7.922   0.919   4.844
10249TIP3    H230691   7.800   0.835   4.879
10250TIP3   OH230692   0.929   1.060   6.559
10250TIP3    H130693   0.997   0.996   6.579
10250TIP3    H230694   0.976   1.143   6.548
10251TIP3   OH230695   7.721   7.408   1.097
10251TIP3    H130696   7.729   7.354   1.019
10251TIP3    H230697   7.795   7.381   1.153
10252TIP3   OH230698   0.277   0.458   5.348
10252TIP3    H130699   0.250   0.382   5.400
10252TIP3    H230700   0.344   0.423   5.288
10253TIP3   OH230701   3.286   4.223   5.853
10253TIP3    H130702   3.205   4.199   5.898
10253TIP3    H230703   3.286   4.170   5.774
10254TIP3   OH230704   3.468   1.907   0.254
10254TIP3    H130705   3.474   1.817   0.221
10254TIP3    H230706   3.558   1.939   0.255
10255TIP3   OH230707   3.762   4.302   2.343
10255TIP3    H130708   3.833   4.244   2.373
10255TIP3    H230709   3.713   4.321   2.423
10256TIP3   OH230710   1.958   1.318   5.732
10256TIP3    H130711   1.894   1.250   5.712
10256TIP3    H230712   1.918   1.399   5.701
10257TIP3   OH230713   3.145   5.922   0.364
10257TIP3    H130714   3.142   5.948   0.271
10257TIP3    H230715   3.168   5.829   0.362
10258TIP3   OH230716   4.563   5.123   0.603
10258TIP3    H130717   4.619   5.184   0.650
10258TIP3    H230718   4.474   5.154   0.620
10259TIP3   OH230719   7.669   2.578   0.659
10259TIP3    H130720   7.657   2.545   0.570
10259TIP3    H230721   7.763   2.595   0.666
10260TIP3   OH230722   3.877   6.002   2.395
10260TIP3    H130723   3.868   5.996   2.490
10260TIP3    H230724   3.833   5.923   2.362
10261TIP3   OH230725   6.895   0.921   2.018
10261TIP3    H130726   6.882   0.843   1.964
10261TIP3    H230727   6.854   0.992   1.970
10262TIP3   OH230728   5.587   3.204   3.301
10262TIP3    H130729   5.581   3.182   3.208
10262TIP3    H230730   5.555   3.294   3.306
10263TIP3   OH230731   0.303   4.512   0.373
10263TIP3    H130732   0.383   4.493   0.325
10263TIP3    H230733   0.288   4.606   0.359
10264TIP3   OH230734   2.323   3.551   4.579
10264TIP3    H130735   2.283   3.464   4.575
10264TIP3    H230736   2.277   3.595   4.651
10265TIP3   OH230737   8.109   0.770   2.534
10265TIP3    H130738   8.018   0.783   2.508
10265TIP3    H230739   8.115   0.807   2.622
10266TIP3   OH230740   6.978   0.970   3.712
10266TIP3    H130741   7.011   1.052   3.675
10266TIP3    H230742   7.042   0.904   3.684
10267TIP3   OH230743   6.852   5.999   0.659
10267TIP3    H130744   6.852   5.996   0.563
10267TIP3    H230745   6.933   5.956   0.685
10268TIP3   OH230746   7.320   3.861   5.482
10268TIP3    H130747   7.281   3.782   5.445
10268TIP3    H230748   7.411   3.837   5.498
10269TIP3   OH230749   0.796   1.689   3.320
10269TIP3    H130750   0.711   1.733   3.325
10269TIP3    H230751   0.827   1.708   3.232
10270TIP3   OH230752   4.012   4.930   4.349
10270TIP3    H130753   4.034   4.882   4.269
10270TIP3    H230754   3.944   4.876   4.391
10271TIP3   OH230755   1.099   4.113   1.432
10271TIP3    H130756   1.089   4.056   1.509
10271TIP3    H230757   1.067   4.060   1.359
10272TIP3   OH230758   2.255   2.507   1.099
10272TIP3    H130759   2.324   2.501   1.032
10272TIP3    H230760   2.300   2.540   1.176
10273TIP3   OH230761   1.630   0.085   1.571
10273TIP3    H130762   1.625   0.175   1.540
10273TIP3    H230763   1.651   0.034   1.493
10274TIP3   OH230764   4.301   7.182   3.240
10274TIP3    H130765   4.246   7.107   3.259
10274TIP3    H230766   4.366   7.149   3.178
10275TIP3   OH230767   1.420   0.656   0.221
10275TIP3    H130768   1.401   0.612   0.303
10275TIP3    H230769   1.500   0.706   0.239
10276TIP3   OH230770   4.635   4.046   5.049
10276TIP3    H130771   4.579   3.970   5.063
10276TIP3    H230772   4.641   4.088   5.134
10277TIP3   OH230773   6.102   4.974   0.315
10277TIP3    H130774   6.008   4.990   0.317
10277TIP3    H230775   6.129   4.998   0.226
10278TIP3   OH230776   6.431   1.695   1.342
10278TIP3    H130777   6.367   1.751   1.298
10278TIP3    H230778   6.383   1.614   1.362
10279TIP3   OH230779   3.479   3.580   0.200
10279TIP3    H130780   3.446   3.645   0.138
10279TIP3    H230781   3.570   3.566   0.175
10280TIP3   OH230782   4.374   6.703   5.154
10280TIP3    H130783   4.452   6.708   5.209
10280TIP3    H230784   4.368   6.789   5.113
10281TIP3   OH230785   2.147   4.298   6.088
10281TIP3    H130786   2.149   4.220   6.144
10281TIP3    H230787   2.078   4.352   6.126
10282TIP3   OH230788   2.302   0.156   4.720
10282TIP3    H130789   2.355   0.229   4.751
10282TIP3    H230790   2.253   0.192   4.646
10283TIP3   OH230791   7.096   0.702   6.541
10283TIP3    H130792   7.088   0.777   6.600
10283TIP3    H230793   7.052   0.630   6.587
10284TIP3   OH230794   5.476   1.670   1.090
10284TIP3    H130795   5.448   1.748   1.043
10284TIP3    H230796   5.433   1.677   1.176
10285TIP3   OH230797   3.351   4.199   0.378
10285TIP3    H130798   3.410   4.191   0.303
10285TIP3    H230799   3.289   4.267   0.354
10286TIP3   OH230800   7.027   2.168   6.428
10286TIP3    H130801   7.029   2.117   6.348
10286TIP3    H230802   7.117   2.201   6.438
10287TIP3   OH230803   0.178   4.276   1.727
10287TIP3    H130804   0.219   4.302   1.809
10287TIP3    H230805   0.094   4.237   1.753
10288TIP3   OH230806   2.382   1.074   0.881
10288TIP3    H130807   2.292   1.044   0.876
10288TIP3    H230808   2.385   1.152   0.825
10289TIP3   OH230809   2.127   6.903   4.910
10289TIP3    H130810   2.183   6.944   4.843
10289TIP3    H230811   2.159   6.813   4.915
10290TIP3   OH230812   1.770   2.012   1.244
10290TIP3    H130813   1.793   1.937   1.189
10290TIP3    H230814   1.758   1.974   1.331
10291TIP3   OH230815   4.292   1.867   0.190
10291TIP3    H130816   4.375   1.877   0.143
10291TIP3    H230817   4.235   1.934   0.152
10292TIP3   OH230818   2.152   6.988   3.952
10292TIP3    H130819   2.177   6.980   3.860
10292TIP3    H230820   2.164   7.081   3.972
10293TIP3   OH230821   4.699   1.412   5.718
10293TIP3    H130822   4.730   1.494   5.680
10293TIP3    H230823   4.776   1.373   5.759
10294TIP3   OH230824   8.275   2.623   4.836
10294TIP3    H130825   8.349   2.564   4.852
10294TIP3    H230826   8.199   2.576   4.869
10295TIP3   OH230827   7.684   4.550   0.741
10295TIP3    H130828   7.631   4.577   0.816
10295TIP3    H230829   7.735   4.475   0.773
10296TIP3   OH230830   4.729   4.574   6.176
10296TIP3    H130831   4.782   4.522   6.236
10296TIP3    H230832   4.649   4.522   6.164
10297TIP3   OH230833   5.052   4.025   0.667
10297TIP3    H130834   4.990   4.091   0.636
10297TIP3    H230835   5.082   3.981   0.588
10298TIP3   OH230836   0.816   5.111   5.359
10298TIP3    H130837   0.758   5.165   5.413
10298TIP3    H230838   0.757   5.058   5.306
10299TIP3   OH230839   7.779   5.811   3.182
10299TIP3    H130840   7.792   5.863   3.262
10299TIP3    H230841   7.762   5.876   3.114
10300TIP3   OH230842   1.217   2.083   5.930
10300TIP3    H130843   1.260   2.036   5.858
10300TIP3    H230844   1.202   2.015   5.996
10301TIP3   OH230845   2.967   5.974   5.187
10301TIP3    H130846   2.910   5.904   5.154
10301TIP3    H230847   2.926   6.055   5.157
10302TIP3   OH230848   0.405   0.497   2.264
10302TIP3    H130849   0.427   0.444   2.341
10302TIP3    H230850   0.472   0.565   2.262
10303TIP3   OH230851   3.163   6.133   5.747
10303TIP3    H130852   3.083   6.155   5.796
10303TIP3    H230853   3.134   6.131   5.656
10304TIP3   OH230854   5.808   3.886   5.058
10304TIP3    H130855   5.888   3.859   5.102
10304TIP3    H230856   5.831   3.889   4.965
10305TIP3   OH230857   1.955   5.404   2.625
10305TIP3    H130858   2.044   5.379   2.600
10305TIP3    H230859   1.900   5.371   2.553
10306TIP3   OH230860   1.316   7.273   0.557
10306TIP3    H130861   1.321   7.239   0.647
10306TIP3    H230862   1.303   7.367   0.568
10307TIP3   OH230863   2.678   0.770   5.264
10307TIP3    H130864   2.663   0.864   5.267
10307TIP3    H230865   2.704   0.753   5.173
10308TIP3   OH230866   1.840   7.648   2.337
10308TIP3    H130867   1.821   7.740   2.318
10308TIP3    H230868   1.795   7.599   2.268
10309TIP3   OH230869   7.825   4.668   0.331
10309TIP3    H130870   7.823   4.763   0.340
10309TIP3    H230871   7.755   4.648   0.269
10310TIP3   OH230872   3.225   6.426   5.584
10310TIP3    H130873   3.219   6.519   5.565
10310TIP3    H230874   3.171   6.414   5.663
10311TIP3   OH230875   1.569   7.316   6.415
10311TIP3    H130876   1.480   7.300   6.384
10311TIP3    H230877   1.620   7.332   6.335
10312TIP3   OH230878   6.708   0.622   4.249
10312TIP3    H130879   6.678   0.629   4.159
10312TIP3    H230880   6.670   0.541   4.281
10313TIP3   OH230881   3.170   6.404   3.003
10313TIP3    H130882   3.119   6.456   2.942
10313TIP3    H230883   3.107   6.374   3.068
10314TIP3   OH230884   3.982   7.702   3.989
10314TIP3    H130885   3.937   7.684   3.906
10314TIP3    H230886   3.994   7.617   4.030
10315TIP3   OH230887   1.556   0.358   0.509
10315TIP3    H130888   1.498   0.383   0.438
10315TIP3    H230889   1.501   0.360   0.587
10316TIP3   OH230890   2.691   3.223   4.229
10316TIP3    H130891   2.680   3.279   4.306
10316TIP3    H230892   2.785   3.220   4.214
10317TIP3   OH230893   3.167   2.847   1.832
10317TIP3    H130894   3.221   2.921   1.807
10317TIP3    H230895   3.210   2.811   1.910
10318TIP3   OH230896   4.288   0.888   3.803
10318TIP3    H130897   4.205   0.918   3.765
10318TIP3    H230898   4.317   0.817   3.746
10319TIP3   OH230899   0.721   4.714   0.675
10319TIP3    H130900   0.641   4.706   0.727
10319TIP3    H230901   0.788   4.740   0.738
10320TIP3   OH230902   5.073   0.312   4.502
10320TIP3    H130903   5.016   0.271   4.437
10320TIP3    H230904   5.054   0.406   4.494
10321TIP3   OH230905   6.139   6.275   5.814
10321TIP3    H130906   6.233   6.258   5.803
10321TIP3    H230907   6.135   6.350   5.873
10322TIP3   OH230908   2.143   1.809   2.168
10322TIP3    H130909   2.096   1.726   2.182
10322TIP3    H230910   2.207   1.813   2.238
10323TIP3   OH230911   8.245   7.657   1.751
10323TIP3    H130912   8.178   7.707   1.797
10323TIP3    H230913   8.302   7.723   1.711
10324TIP3   OH230914   1.502   6.510   1.919
10324TIP3    H130915   1.434   6.568   1.884
10324TIP3    H230916   1.492   6.517   2.014
10325TIP3   OH230917   0.162   5.857   5.889
10325TIP3    H130918   0.171   5.845   5.984
10325TIP3    H230919   0.118   5.941   5.880
10326TIP3   OH230920   1.095   1.557   1.424
10326TIP3    H130921   1.141   1.497   1.365
10326TIP3    H230922   1.140   1.641   1.414
10327TIP3   OH230923   1.963   6.913   2.124
10327TIP3    H130924   1.986   6.990   2.072
10327TIP3    H230925   1.885   6.878   2.081
10328TIP3   OH230926   8.001   3.429   5.046
10328TIP3    H130927   8.027   3.487   4.975
10328TIP3    H230928   8.054   3.350   5.034
10329TIP3   OH230929   8.030   4.306   4.318
10329TIP3    H130930   7.941   4.296   4.354
10329TIP3    H230931   8.081   4.344   4.389
10330TIP3   OH230932   4.686   6.944   4.724
10330TIP3    H130933   4.600   6.929   4.684
10330TIP3    H230934   4.676   7.027   4.770
10331TIP3   OH230935   4.147   4.166   1.031
10331TIP3    H130936   4.169   4.220   0.955
10331TIP3    H230937   4.180   4.215   1.106
10332TIP3   OH230938   0.125   3.932   2.141
10332TIP3    H130939   0.143   3.977   2.059
10332TIP3    H230940   0.191   3.863   2.146
10333TIP3   OH230941   6.558   4.029   1.214
10333TIP3    H130942   6.604   3.947   1.231
10333TIP3    H230943   6.469   4.003   1.191
10334TIP3   OH230944   8.115   3.626   4.891
10334TIP3    H130945   8.091   3.716   4.913
10334TIP3    H230946   8.207   3.619   4.918
10335TIP3   OH230947   8.099   6.848   0.158
10335TIP3    H130948   8.082   6.773   0.215
10335TIP3    H230949   8.056   6.922   0.202
10336TIP3   OH230950   5.713   1.787   4.823
10336TIP3    H130951   5.663   1.744   4.892
10336TIP3    H230952   5.675   1.875   4.817
10337TIP3   OH230953   1.099   2.966   1.410
10337TIP3    H130954   1.107   2.982   1.316
10337TIP3    H230955   1.151   3.036   1.451
10338TIP3   OH230956   5.830   6.717   2.418
10338TIP3    H130957   5.818   6.627   2.449
10338TIP3    H230958   5.804   6.714   2.326
10339TIP3   OH230959   7.989   4.231   1.703
10339TIP3    H130960   8.035   4.307   1.669
10339TIP3    H230961   7.920   4.214   1.639
10340TIP3   OH230962   7.212   7.645   4.921
10340TIP3    H130963   7.240   7.593   4.845
10340TIP3    H230964   7.119   7.625   4.931
10341TIP3   OH230965   1.376   7.824   4.202
10341TIP3    H130966   1.378   7.778   4.287
10341TIP3    H230967   1.297   7.879   4.207
10342TIP3   OH230968   2.853   1.413   0.106
10342TIP3    H130969   2.788   1.423   0.036
10342TIP3    H230970   2.801   1.399   0.185
10343TIP3   OH230971   5.207   5.041   4.844
10343TIP3    H130972   5.202   5.043   4.748
10343TIP3    H230973   5.136   4.983   4.870
10344TIP3   OH230974   2.425   4.200   2.078
10344TIP3    H130975   2.389   4.288   2.092
10344TIP3    H230976   2.518   4.214   2.060
10345TIP3   OH230977   1.557   3.602   5.759
10345TIP3    H130978   1.512   3.534   5.810
10345TIP3    H230979   1.521   3.594   5.671
10346TIP3   OH230980   6.328   3.687   1.875
10346TIP3    H130981   6.369   3.631   1.809
10346TIP3    H230982   6.247   3.642   1.898
10347TIP3   OH230983   5.546   3.901   4.180
10347TIP3    H130984   5.612   3.859   4.235
10347TIP3    H230985   5.553   3.856   4.096
10348TIP3   OH230986   7.021   5.577   0.735
10348TIP3    H130987   7.060   5.665   0.732
10348TIP3    H230988   7.096   5.518   0.723
10349TIP3   OH230989   0.778   1.596   2.884
10349TIP3    H130990   0.849   1.602   2.821
10349TIP3    H230991   0.731   1.516   2.860
10350TIP3   OH230992   1.576   6.076   5.883
10350TIP3    H130993   1.527   6.137   5.828
10350TIP3    H230994   1.603   6.127   5.959
10351TIP3   OH230995   4.285   1.087   5.213
10351TIP3    H130996   4.375   1.063   5.195
10351TIP3    H230997   4.236   1.005   5.208
10352TIP3   OH230998   5.960   3.731   3.314
10352TIP3    H130999   6.009   3.664   3.362
10352TIP3    H231000   5.875   3.735   3.359
10353TIP3   OH231001   3.426   5.300   5.802
10353TIP3    H131002   3.495   5.247   5.842
10353TIP3    H231003   3.413   5.373   5.864
10354TIP3   OH231004   3.875   5.473   4.124
10354TIP3    H131005   3.868   5.378   4.126
10354TIP3    H231006   3.887   5.494   4.031
10355TIP3   OH231007   0.558   0.389   5.649
10355TIP3    H131008   0.526   0.469   5.691
10355TIP3    H231009   0.653   0.393   5.659
10356TIP3   OH231010   8.169   1.769   6.087
10356TIP3    H131011   8.173   1.676   6.109
10356TIP3    H231012   8.216   1.813   6.158
10357TIP3   OH231013   2.721   3.873   4.592
10357TIP3    H131014   2.720   3.899   4.684
10357TIP3    H231015   2.775   3.794   4.590
10358TIP3   OH231016   0.765   4.239   0.256
10358TIP3    H131017   0.851   4.278   0.237
10358TIP3    H231018   0.785   4.164   0.311
10359TIP3   OH231019   3.544   1.057   0.591
10359TIP3    H131020   3.588   1.035   0.674
10359TIP3    H231021   3.516   0.973   0.556
10360TIP3   OH231022   6.132   2.604   2.799
10360TIP3    H131023   6.194   2.533   2.818
10360TIP3    H231024   6.143   2.621   2.706
10361TIP3   OH231025   0.260   6.162   4.976
10361TIP3    H131026   0.200   6.091   4.954
10361TIP3    H231027   0.330   6.119   5.026
10362TIP3   OH231028   2.403   7.711   5.818
10362TIP3    H131029   2.385   7.630   5.864
10362TIP3    H231030   2.419   7.775   5.887
10363TIP3   OH231031   7.472   2.925   6.355
10363TIP3    H131032   7.494   2.845   6.402
10363TIP3    H231033   7.381   2.915   6.329
10364TIP3   OH231034   8.229   4.512   3.016
10364TIP3    H131035   8.300   4.505   3.080
10364TIP3    H231036   8.225   4.605   2.995
10365TIP3   OH231037   0.240   5.393   4.436
10365TIP3    H131038   0.252   5.485   4.413
10365TIP3    H231039   0.289   5.344   4.370
10366TIP3   OH231040   0.638   7.727   3.358
10366TIP3    H131041   0.635   7.814   3.399
10366TIP3    H231042   0.731   7.706   3.353
10367TIP3   OH231043   3.120   6.125   2.761
10367TIP3    H131044   3.179   6.117   2.837
10367TIP3    H231045   3.177   6.152   2.689
10368TIP3   OH231046   6.646   4.959   3.582
10368TIP3    H131047   6.604   5.016   3.518
10368TIP3    H231048   6.737   4.954   3.553
10369TIP3   OH231049   2.347   7.700   1.281
10369TIP3    H131050   2.355   7.707   1.376
10369TIP3    H231051   2.328   7.789   1.251
10370TIP3   OH231052   3.227   6.587   0.254
10370TIP3    H131053   3.249   6.633   0.173
10370TIP3    H231054   3.223   6.494   0.229
10371TIP3   OH231055   1.693   7.354   6.171
10371TIP3    H131056   1.647   7.360   6.088
10371TIP3    H231057   1.783   7.378   6.151
10372TIP3   OH231058   0.049   7.606   0.050
10372TIP3    H131059   0.143   7.623   0.059
10372TIP3    H231060   0.008   7.692   0.049
10373TIP3   OH231061   1.273   2.939   6.443
10373TIP3    H131062   1.194   2.923   6.494
10373TIP3    H231063   1.329   2.992   6.500
10374TIP3   OH231064   7.318   0.858   3.334
10374TIP3    H131065   7.301   0.945   3.297
10374TIP3    H231066   7.231   0.820   3.346
10375TIP3   OH231067   0.355   1.950   3.659
10375TIP3    H131068   0.421   1.981   3.722
10375TIP3    H231069   0.368   1.855   3.656
10376TIP3   OH231070   1.015   4.319   0.200
10376TIP3    H131071   1.078   4.291   0.266
10376TIP3    H231072   1.040   4.410   0.181
10377TIP3   OH231073   1.309   7.616   2.765
10377TIP3    H131074   1.392   7.570   2.778
10377TIP3    H231075   1.243   7.548   2.774
10378TIP3   OH231076   2.559   6.843   3.714
10378TIP3    H131077   2.635   6.831   3.771
10378TIP3    H231078   2.495   6.778   3.745
10379TIP3   OH231079   0.283   1.165   6.380
10379TIP3    H131080   0.260   1.081   6.340
10379TIP3    H231081   0.254   1.230   6.316
10380TIP3   OH231082   5.012   6.299   2.726
10380TIP3    H131083   5.101   6.334   2.715
10380TIP3    H231084   4.967   6.364   2.780
10381TIP3   OH231085   0.108   6.818   1.631
10381TIP3    H131086   0.178   6.786   1.688
10381TIP3    H231087   0.109   6.913   1.642
10382TIP3   OH231088   2.468   4.102   6.317
10382TIP3    H131089   2.480   4.107   6.411
10382TIP3    H231090   2.555   4.081   6.283
10383TIP3   OH231091   5.867   2.430   2.816
10383TIP3    H131092   5.952   2.474   2.821
10383TIP3    H231093   5.836   2.428   2.907
10384TIP3   OH231094   6.198   5.980   6.174
10384TIP3    H131095   6.120   5.991   6.120
10384TIP3    H231096   6.165   5.966   6.263
10385TIP3   OH231097   6.176   6.059   4.282
10385TIP3    H131098   6.097   6.103   4.315
10385TIP3    H231099   6.249   6.108   4.320
10386TIP3   OH231100   1.942   5.861   6.687
10386TIP3    H131101   1.856   5.872   6.647
10386TIP3    H231102   1.953   5.939   6.742
10387TIP3   OH231103   8.135   4.439   4.700
10387TIP3    H131104   8.149   4.352   4.663
10387TIP3    H231105   8.133   4.425   4.794
10388TIP3   OH231106   3.984   3.524   0.380
10388TIP3    H131107   4.043   3.448   0.383
10388TIP3    H231108   3.924   3.504   0.308
10389TIP3   OH231109   1.220   6.960   4.853
10389TIP3    H131110   1.267   6.908   4.918
10389TIP3    H231111   1.215   7.048   4.891
10390TIP3   OH231112   2.094   1.393   3.370
10390TIP3    H131113   2.175   1.441   3.354
10390TIP3    H231114   2.052   1.387   3.284
10391TIP3   OH231115   6.402   4.133   0.426
10391TIP3    H131116   6.318   4.133   0.382
10391TIP3    H231117   6.467   4.140   0.356
10392TIP3   OH231118   0.638   4.010   0.840
10392TIP3    H131119   0.711   3.967   0.796
10392TIP3    H231120   0.671   4.028   0.928
10393TIP3   OH231121   2.200   4.605   4.624
10393TIP3    H131122   2.120   4.553   4.610
10393TIP3    H231123   2.269   4.553   4.583
10394TIP3   OH231124   1.579   7.769   6.393
10394TIP3    H131125   1.522   7.695   6.374
10394TIP3    H231126   1.579   7.820   6.311
10395TIP3   OH231127   7.387   6.895   0.756
10395TIP3    H131128   7.314   6.954   0.743
10395TIP3    H231129   7.354   6.830   0.819
10396TIP3   OH231130   5.577   0.729   2.317
10396TIP3    H131131   5.541   0.641   2.301
10396TIP3    H231132   5.527   0.761   2.393
10397TIP3   OH231133   4.649   5.630   6.680
10397TIP3    H131134   4.619   5.570   6.612
10397TIP3    H231135   4.619   5.591   6.762
10398TIP3   OH231136   8.161   7.041   3.013
10398TIP3    H131137   8.239   7.095   3.007
10398TIP3    H231138   8.093   7.092   2.969
10399TIP3   OH231139   6.679   4.436   1.639
10399TIP3    H131140   6.692   4.446   1.545
10399TIP3    H231141   6.600   4.382   1.646
10400TIP3   OH231142   6.377   4.087   2.233
10400TIP3    H131143   6.442   4.124   2.173
10400TIP3    H231144   6.400   4.122   2.319
10401TIP3   OH231145   3.110   4.174   1.119
10401TIP3    H131146   3.070   4.094   1.154
10401TIP3    H231147   3.133   4.152   1.029
10402TIP3   OH231148   2.153   4.523   3.950
10402TIP3    H131149   2.092   4.458   3.914
10402TIP3    H231150   2.238   4.480   3.947
10403TIP3   OH231151   3.393   1.936   5.988
10403TIP3    H131152   3.405   1.846   5.958
10403TIP3    H231153   3.330   1.929   6.060
10404TIP3   OH231154   7.169   7.200   4.184
10404TIP3    H131155   7.081   7.162   4.188
10404TIP3    H231156   7.227   7.127   4.205
10405TIP3   OH231157   2.627   5.510   3.601
10405TIP3    H131158   2.709   5.461   3.608
10405TIP3    H231159   2.559   5.448   3.629
10406TIP3   OH231160   4.012   4.570  -0.019
10406TIP3    H131161   4.099   4.598  -0.046
10406TIP3    H231162   4.004   4.601   0.071
10407TIP3   OH231163   0.409   3.138   0.995
10407TIP3    H131164   0.400   3.099   1.082
10407TIP3    H231165   0.320   3.139   0.960
10408TIP3   OH231166   6.561   1.594   4.288
10408TIP3    H131167   6.511   1.515   4.266
10408TIP3    H231168   6.502   1.644   4.345
10409TIP3   OH231169   0.899   7.743   2.103
10409TIP3    H131170   0.973   7.727   2.162
10409TIP3    H231171   0.822   7.732   2.159
10410TIP3   OH231172   7.218   0.556   3.167
10410TIP3    H131173   7.223   0.487   3.100
10410TIP3    H231174   7.305   0.596   3.167
10411TIP3   OH231175   5.705   1.673   5.324
10411TIP3    H131176   5.734   1.583   5.339
10411TIP3    H231177   5.632   1.665   5.262
10412TIP3   OH231178   0.307   4.621   3.016
10412TIP3    H131179   0.401   4.627   3.028
10412TIP3    H231180   0.274   4.709   3.036
10413TIP3   OH231181  -0.004   1.182   4.306
10413TIP3    H131182   0.006   1.087   4.312
10413TIP3    H231183   0.016   1.203   4.214
10414TIP3   OH231184   2.769   1.602   3.843
10414TIP3    H131185   2.848   1.550   3.858
10414TIP3    H231186   2.789   1.654   3.765
10415TIP3   OH231187   6.092   2.663   6.139
10415TIP3    H131188   6.175   2.666   6.091
10415TIP3    H231189   6.026   2.645   6.072
10416TIP3   OH231190   1.470   1.534   6.418
10416TIP3    H131191   1.484   1.498   6.505
10416TIP3    H231192   1.397   1.595   6.429
10417TIP3   OH231193   1.344   2.835   1.473
10417TIP3    H131194   1.271   2.891   1.446
10417TIP3    H231195   1.316   2.746   1.450
10418TIP3   OH231196   7.422   1.130   5.945
10418TIP3    H131197   7.394   1.070   6.014
10418TIP3    H231198   7.343   1.177   5.920
10419TIP3   OH231199   3.487   4.224   1.906
10419TIP3    H131200   3.436   4.169   1.966
10419TIP3    H231201   3.423   4.283   1.867
10420TIP3   OH231202   6.064   5.368   0.429
10420TIP3    H131203   6.067   5.374   0.334
10420TIP3    H231204   6.134   5.307   0.452
10421TIP3   OH231205   0.139   4.214   6.113
10421TIP3    H131206   0.087   4.191   6.036
10421TIP3    H231207   0.225   4.237   6.079
10422TIP3   OH231208   7.270   6.484   4.672
10422TIP3    H131209   7.256   6.539   4.595
10422TIP3    H231210   7.301   6.400   4.637
10423TIP3   OH231211   2.420   3.625   1.855
10423TIP3    H131212   2.444   3.584   1.937
10423TIP3    H231213   2.420   3.719   1.874
10424TIP3   OH231214   2.955   7.333   5.056
10424TIP3    H131215   2.901   7.366   5.128
10424TIP3    H231216   2.894   7.323   4.983
10425TIP3   OH231217   8.095   7.357   5.186
10425TIP3    H131218   8.074   7.268   5.158
10425TIP3    H231219   8.178   7.376   5.143
10426TIP3   OH231220   3.710   2.589   2.865
10426TIP3    H131221   3.643   2.652   2.891
10426TIP3    H231222   3.663   2.505   2.861
10427TIP3   OH231223   1.703   5.729   1.071
10427TIP3    H131224   1.668   5.816   1.091
10427TIP3    H231225   1.759   5.708   1.146
10428TIP3   OH231226   1.686   7.184   2.752
10428TIP3    H131227   1.719   7.118   2.814
10428TIP3    H231228   1.596   7.159   2.735
10429TIP3   OH231229   4.551   5.021   4.023
10429TIP3    H131230   4.627   4.963   4.025
10429TIP3    H231231   4.578   5.099   4.070
10430TIP3   OH231232   8.189   1.732   4.753
10430TIP3    H131233   8.100   1.702   4.766
10430TIP3    H231234   8.188   1.823   4.782
10431TIP3   OH231235   1.097   4.883   0.684
10431TIP3    H131236   1.013   4.895   0.729
10431TIP3    H231237   1.151   4.957   0.713
10432TIP3   OH231238   1.983   4.482   3.096
10432TIP3    H131239   1.925   4.549   3.058
10432TIP3    H231240   2.012   4.521   3.179
10433TIP3   OH231241   4.243   0.164   0.718
10433TIP3    H131242   4.320   0.214   0.744
10433TIP3    H231243   4.187   0.227   0.673
10434TIP3   OH231244   5.882   6.445   0.305
10434TIP3    H131245   5.893   6.475   0.396
10434TIP3    H231246   5.910   6.354   0.307
10435TIP3   OH231247   4.546   0.092   2.803
10435TIP3    H131248   4.573   0.172   2.758
10435TIP3    H231249   4.610   0.082   2.874
10436TIP3   OH231250   0.943   2.656   2.479
10436TIP3    H131251   0.865   2.605   2.460
10436TIP3    H231252   0.938   2.674   2.573
10437TIP3   OH231253   3.173   1.841   0.799
10437TIP3    H131254   3.222   1.868   0.721
10437TIP3    H231255   3.204   1.752   0.816
10438TIP3   OH231256   3.037   0.534   4.216
10438TIP3    H131257   3.000   0.593   4.282
10438TIP3    H231258   3.131   0.536   4.233
10439TIP3   OH231259   2.845   4.551   3.042
10439TIP3    H131260   2.822   4.523   2.953
10439TIP3    H231261   2.779   4.509   3.097
10440TIP3   OH231262   0.378   7.714   6.077
10440TIP3    H131263   0.461   7.744   6.114
10440TIP3    H231264   0.375   7.754   5.990
10441TIP3   OH231265   0.595   4.451   1.223
10441TIP3    H131266   0.574   4.370   1.177
10441TIP3    H231267   0.689   4.462   1.211
10442TIP3   OH231268   7.734   3.600   4.225
10442TIP3    H131269   7.805   3.601   4.289
10442TIP3    H231270   7.654   3.605   4.277
10443TIP3   OH231271   1.187   5.929   6.100
10443TIP3    H131272   1.105   5.888   6.076
10443TIP3    H231273   1.187   6.014   6.055
10444TIP3   OH231274   3.135   3.517   0.666
10444TIP3    H131275   3.160   3.608   0.679
10444TIP3    H231276   3.162   3.473   0.747
10445TIP3   OH231277   7.264   1.201   2.951
10445TIP3    H131278   7.228   1.286   2.977
10445TIP3    H231279   7.301   1.216   2.864
10446TIP3   OH231280   7.509   5.419   6.694
10446TIP3    H131281   7.460   5.341   6.669
10446TIP3    H231282   7.455   5.492   6.662
10447TIP3   OH231283   3.883   6.117   3.233
10447TIP3    H131284   3.834   6.189   3.273
10447TIP3    H231285   3.815   6.058   3.199
10448TIP3   OH231286   6.862   5.601   1.416
10448TIP3    H131287   6.852   5.692   1.389
10448TIP3    H231288   6.934   5.603   1.479
10449TIP3   OH231289   7.002   0.173   3.376
10449TIP3    H131290   7.010   0.236   3.448
10449TIP3    H231291   7.006   0.226   3.297
10450TIP3   OH231292   5.409   1.404   5.006
10450TIP3    H131293   5.339   1.376   5.065
10450TIP3    H231294   5.488   1.367   5.043
10451TIP3   OH231295   3.300   5.018   1.112
10451TIP3    H131296   3.374   4.979   1.158
10451TIP3    H231297   3.340   5.082   1.053
10452TIP3   OH231298   7.352   7.271   5.415
10452TIP3    H131299   7.379   7.221   5.338
10452TIP3    H231300   7.390   7.358   5.402
10453TIP3   OH231301   3.547   4.848   4.728
10453TIP3    H131302   3.504   4.860   4.643
10453TIP3    H231303   3.592   4.931   4.744
10454TIP3   OH231304   4.216   4.620   5.417
10454TIP3    H131305   4.188   4.573   5.339
10454TIP3    H231306   4.186   4.710   5.403
10455TIP3   OH231307   2.323   0.466   6.226
10455TIP3    H131308   2.244   0.416   6.248
10455TIP3    H231309   2.376   0.464   6.306
10456TIP3   OH231310   2.879   4.763   6.063
10456TIP3    H131311   2.818   4.789   5.993
10456TIP3    H231312   2.892   4.842   6.114
10457TIP3   OH231313   7.982   4.567   4.476
10457TIP3    H131314   8.025   4.646   4.509
10457TIP3    H231315   7.983   4.506   4.550
10458TIP3   OH231316   2.758   1.527   0.643
10458TIP3    H131317   2.770   1.475   0.563
10458TIP3    H231318   2.671   1.565   0.633
10459TIP3   OH231319   2.794   6.102   0.387
10459TIP3    H131320   2.726   6.072   0.448
10459TIP3    H231321   2.876   6.069   0.426
10460TIP3   OH231322   0.337   5.988   2.732
10460TIP3    H131323   0.295   5.920   2.786
10460TIP3    H231324   0.269   6.016   2.672
10461TIP3   OH231325   3.941   0.634   0.521
10461TIP3    H131326   3.846   0.628   0.514
10461TIP3    H231327   3.961   0.606   0.611
10462TIP3   OH231328   3.600   2.551   4.305
10462TIP3    H131329   3.603   2.476   4.364
10462TIP3    H231330   3.507   2.572   4.298
10463TIP3   OH231331   0.657   7.039   0.406
10463TIP3    H131332   0.595   7.029   0.479
10463TIP3    H231333   0.686   6.949   0.387
10464TIP3   OH231334   7.694   7.102   0.176
10464TIP3    H131335   7.641   7.042   0.124
10464TIP3    H231336   7.709   7.056   0.258
10465TIP3   OH231337   7.876   7.033   4.727
10465TIP3    H131338   7.897   6.954   4.676
10465TIP3    H231339   7.863   7.001   4.816
10466TIP3   OH231340   5.999   4.158   6.203
10466TIP3    H131341   6.083   4.130   6.166
10466TIP3    H231342   6.024   4.209   6.281
10467TIP3   OH231343   7.810   5.810   5.143
10467TIP3    H131344   7.783   5.805   5.052
10467TIP3    H231345   7.888   5.755   5.148
10468TIP3   OH231346   3.577   0.353   1.695
10468TIP3    H131347   3.503   0.313   1.741
10468TIP3    H231348   3.566   0.447   1.710
10469TIP3   OH231349   3.036   4.323   2.844
10469TIP3    H131350   3.129   4.302   2.829
10469TIP3    H231351   3.038   4.403   2.895
10470TIP3   OH231352   4.693   4.724   2.842
10470TIP3    H131353   4.779   4.760   2.862
10470TIP3    H231354   4.634   4.799   2.851
10471TIP3   OH231355   5.640   1.029   0.713
10471TIP3    H131356   5.607   0.940   0.699
10471TIP3    H231357   5.654   1.063   0.624
10472TIP3   OH231358   3.787   6.222   4.478
10472TIP3    H131359   3.786   6.231   4.573
10472TIP3    H231360   3.824   6.135   4.463
10473TIP3   OH231361   6.722   4.412   3.904
10473TIP3    H131362   6.760   4.498   3.889
10473TIP3    H231363   6.796   4.358   3.932
10474TIP3   OH231364   7.921   5.046   6.457
10474TIP3    H131365   7.864   5.074   6.528
10474TIP3    H231366   7.923   5.120   6.397
10475TIP3   OH231367   5.527   0.853   4.304
10475TIP3    H131368   5.565   0.826   4.388
10475TIP3    H231369   5.558   0.942   4.291
10476TIP3   OH231370   3.144   6.396   1.541
10476TIP3    H131371   3.112   6.384   1.452
10476TIP3    H231372   3.076   6.357   1.596
10477TIP3   OH231373   5.899   4.698   2.283
10477TIP3    H131374   5.919   4.753   2.208
10477TIP3    H231375   5.820   4.650   2.258
10478TIP3   OH231376   1.576   5.253   2.162
10478TIP3    H131377   1.541   5.297   2.085
10478TIP3    H231378   1.538   5.301   2.236
10479TIP3   OH231379   1.482   6.013   4.913
10479TIP3    H131380   1.572   5.998   4.941
10479TIP3    H231381   1.490   6.077   4.842
10480TIP3   OH231382   5.535   6.438   6.342
10480TIP3    H131383   5.597   6.506   6.369
10480TIP3    H231384   5.590   6.362   6.322
10481TIP3   OH231385   6.833   1.537   0.773
10481TIP3    H131386   6.873   1.578   0.696
10481TIP3    H231387   6.755   1.494   0.739
10482TIP3   OH231388   1.629   1.822   4.388
10482TIP3    H131389   1.662   1.732   4.387
10482TIP3    H231390   1.691   1.870   4.442
10483TIP3   OH231391   6.983   5.317   3.741
10483TIP3    H131392   6.924   5.274   3.804
10483TIP3    H231393   6.949   5.407   3.735
10484TIP3   OH231394   6.122   0.692   3.637
10484TIP3    H131395   6.101   0.607   3.677
10484TIP3    H231396   6.054   0.751   3.670
10485TIP3   OH231397   2.453   6.975   0.527
10485TIP3    H131398   2.493   7.025   0.455
10485TIP3    H231399   2.439   7.040   0.596
10486TIP3   OH231400  -0.002   3.796   5.165
10486TIP3    H131401   0.055   3.814   5.091
10486TIP3    H231402  -0.091   3.802   5.130
10487TIP3   OH231403   4.727   5.374   0.099
10487TIP3    H131404   4.762   5.302   0.047
10487TIP3    H231405   4.784   5.378   0.176
10488TIP3   OH231406   4.400   5.450   3.554
10488TIP3    H131407   4.474   5.395   3.528
10488TIP3    H231408   4.358   5.474   3.471
10489TIP3   OH231409   1.388   1.011   0.615
10489TIP3    H131410   1.363   1.088   0.563
10489TIP3    H231411   1.472   0.984   0.578
10490TIP3   OH231412   6.859   0.935   3.443
10490TIP3    H131413   6.864   0.860   3.384
10490TIP3    H231414   6.890   0.901   3.527
10491TIP3   OH231415   3.776   0.774   2.374
10491TIP3    H131416   3.753   0.850   2.428
10491TIP3    H231417   3.860   0.796   2.335
10492TIP3   OH231418   2.962   1.163   0.661
10492TIP3    H131419   3.025   1.091   0.671
10492TIP3    H231420   2.877   1.123   0.680
10493TIP3   OH231421   7.377   1.796   1.846
10493TIP3    H131422   7.290   1.786   1.883
10493TIP3    H231423   7.425   1.718   1.874
10494TIP3   OH231424   2.037   4.309   5.672
10494TIP3    H131425   2.089   4.232   5.652
10494TIP3    H231426   2.091   4.359   5.733
10495TIP3   OH231427   0.078   1.236   0.413
10495TIP3    H131428   0.029   1.317   0.400
10495TIP3    H231429   0.152   1.243   0.353
10496TIP3   OH231430   3.502   4.947   5.064
10496TIP3    H131431   3.547   4.882   5.119
10496TIP3    H231432   3.425   4.901   5.032
10497TIP3   OH231433   7.483   2.447   0.804
10497TIP3    H131434   7.454   2.407   0.722
10497TIP3    H231435   7.547   2.513   0.778
10498TIP3   OH231436   4.230   6.101   0.125
10498TIP3    H131437   4.312   6.053   0.117
10498TIP3    H231438   4.163   6.033   0.133
10499TIP3   OH231439   3.404   7.783   3.756
10499TIP3    H131440   3.375   7.716   3.694
10499TIP3    H231441   3.333   7.846   3.759
10500TIP3   OH231442   7.378   1.633   4.109
10500TIP3    H131443   7.284   1.642   4.093
10500TIP3    H231444   7.390   1.541   4.132
10501TIP3   OH231445   7.722   6.227   0.209
10501TIP3    H131446   7.758   6.144   0.241
10501TIP3    H231447   7.632   6.207   0.186
10502TIP3   OH231448   3.854   2.849   0.978
10502TIP3    H131449   3.882   2.802   1.057
10502TIP3    H231450   3.840   2.939   1.008
10503TIP3   OH231451   1.391   4.490   2.307
10503TIP3    H131452   1.473   4.440   2.299
10503TIP3    H231453   1.333   4.432   2.356
10504TIP3   OH231454   6.715   3.319   6.741
10504TIP3    H131455   6.761   3.273   6.672
10504TIP3    H231456   6.770   3.307   6.819
10505TIP3   OH231457   0.354   1.900   4.109
10505TIP3    H131458   0.289   1.836   4.079
10505TIP3    H231459   0.303   1.973   4.142
10506TIP3   OH231460   1.507   5.328   0.806
10506TIP3    H131461   1.463   5.256   0.851
10506TIP3    H231462   1.598   5.300   0.799
10507TIP3   OH231463   4.216   5.032   2.507
10507TIP3    H131464   4.219   4.942   2.474
10507TIP3    H231465   4.291   5.075   2.466
10508TIP3   OH231466   5.587   4.835   0.531
10508TIP3    H131467   5.494   4.827   0.510
10508TIP3    H231468   5.623   4.748   0.514
10509TIP3   OH231469   7.340   4.222   3.926
10509TIP3    H131470   7.396   4.195   3.854
10509TIP3    H231471   7.359   4.160   3.996
10510TIP3   OH231472   3.948   4.375   4.289
10510TIP3    H131473   3.918   4.344   4.204
10510TIP3    H231474   4.044   4.370   4.284
10511TIP3   OH231475   4.167   5.830   4.416
10511TIP3    H131476   4.213   5.887   4.355
10511TIP3    H231477   4.100   5.787   4.362
10512TIP3   OH231478   1.985   7.323   4.579
10512TIP3    H131479   2.035   7.290   4.654
10512TIP3    H231480   1.899   7.345   4.616
10513TIP3   OH231481   5.017   0.657   4.123
10513TIP3    H131482   4.970   0.727   4.077
10513TIP3    H231483   4.958   0.582   4.120
10514TIP3   OH231484   2.645   2.500   1.106
10514TIP3    H131485   2.709   2.507   1.036
10514TIP3    H231486   2.658   2.578   1.159
10515TIP3   OH231487   0.474   4.435   2.589
10515TIP3    H131488   0.436   4.444   2.502
10515TIP3    H231489   0.402   4.457   2.649
10516TIP3   OH231490   7.195   7.123   3.866
10516TIP3    H131491   7.184   7.094   3.775
10516TIP3    H231492   7.229   7.047   3.912
10517TIP3   OH231493   2.615   2.019   3.213
10517TIP3    H131494   2.693   2.031   3.266
10517TIP3    H231495   2.648   2.005   3.124
10518TIP3   OH231496   8.291   3.908   4.714
10518TIP3    H131497   8.323   3.963   4.642
10518TIP3    H231498   8.280   3.822   4.675
10519TIP3   OH231499   7.536   6.394   0.686
10519TIP3    H131500   7.617   6.379   0.638
10519TIP3    H231501   7.539   6.486   0.712
10520TIP3   OH231502   7.359   0.428   1.788
10520TIP3    H131503   7.325   0.376   1.715
10520TIP3    H231504   7.284   0.440   1.846
10521TIP3   OH231505   5.705   3.905   5.723
10521TIP3    H131506   5.738   3.976   5.668
10521TIP3    H231507   5.752   3.828   5.693
10522TIP3   OH231508   1.010   1.232   5.303
10522TIP3    H131509   0.914   1.226   5.299
10522TIP3    H231510   1.034   1.293   5.234
10523TIP3   OH231511   4.956   2.195   0.488
10523TIP3    H131512   4.926   2.161   0.403
10523TIP3    H231513   4.972   2.288   0.473
10524TIP3   OH231514   7.457   1.298   5.435
10524TIP3    H131515   7.386   1.268   5.492
10524TIP3    H231516   7.532   1.242   5.458
10525TIP3   OH231517   0.933   3.251   5.400
10525TIP3    H131518   0.916   3.293   5.316
10525TIP3    H231519   0.984   3.173   5.378
10526TIP3   OH231520   3.336   6.262   6.586
10526TIP3    H131521   3.400   6.332   6.576
10526TIP3    H231522   3.253   6.307   6.599
10527TIP3   OH231523   5.255   7.430   2.967
10527TIP3    H131524   5.217   7.395   3.047
10527TIP3    H231525   5.325   7.369   2.945
10528TIP3   OH231526   4.991   1.251   5.936
10528TIP3    H131527   4.996   1.345   5.953
10528TIP3    H231528   5.081   1.224   5.921
10529TIP3   OH231529   7.114   1.398   2.136
10529TIP3    H131530   7.175   1.419   2.065
10529TIP3    H231531   7.062   1.326   2.101
10530TIP3   OH231532   2.726   1.047   1.464
10530TIP3    H131533   2.759   1.102   1.534
10530TIP3    H231534   2.718   1.107   1.389
10531TIP3   OH231535   4.911   7.788   1.413
10531TIP3    H131536   4.922   7.709   1.362
10531TIP3    H231537   4.825   7.822   1.386
10532TIP3   OH231538   2.214   2.541   6.382
10532TIP3    H131539   2.245   2.452   6.361
10532TIP3    H231540   2.204   2.583   6.296
10533TIP3   OH231541   6.880   1.535   6.056
10533TIP3    H131542   6.959   1.589   6.063
10533TIP3    H231543   6.834   1.550   6.139
10534TIP3   OH231544   2.890   4.051   0.652
10534TIP3    H131545   2.807   4.098   0.642
10534TIP3    H231546   2.866   3.964   0.683
10535TIP3   OH231547   5.887   1.784   4.516
10535TIP3    H131548   5.860   1.867   4.554
10535TIP3    H231549   5.890   1.723   4.590
10536TIP3   OH231550   1.455  -0.012   5.768
10536TIP3    H131551   1.488   0.052   5.705
10536TIP3    H231552   1.508   0.003   5.846
10537TIP3   OH231553   6.846   5.425   4.596
10537TIP3    H131554   6.776   5.365   4.569
10537TIP3    H231555   6.839   5.500   4.537
10538TIP3   OH231556   7.271   1.586   0.704
10538TIP3    H131557   7.202   1.521   0.687
10538TIP3    H231558   7.350   1.533   0.719
10539TIP3   OH231559   5.073   7.082   5.968
10539TIP3    H131560   5.166   7.104   5.980
10539TIP3    H231561   5.070   7.038   5.883
10540TIP3   OH231562   0.446   5.683   6.013
10540TIP3    H131563   0.396   5.754   6.052
10540TIP3    H231564   0.445   5.702   5.919
10541TIP3   OH231565   4.321   2.269   1.464
10541TIP3    H131566   4.280   2.335   1.520
10541TIP3    H231567   4.254   2.201   1.455
10542TIP3   OH231568   6.945   7.372   3.456
10542TIP3    H131569   6.962   7.466   3.464
10542TIP3    H231570   7.010   7.341   3.393
10543TIP3   OH231571   3.090   5.665   1.500
10543TIP3    H131572   3.095   5.625   1.587
10543TIP3    H231573   2.999   5.652   1.473
10544TIP3   OH231574   4.878   0.996   5.240
10544TIP3    H131575   4.954   1.052   5.254
10544TIP3    H231576   4.878   0.936   5.315
10545TIP3   OH231577   5.707   5.543   3.463
10545TIP3    H131578   5.781   5.504   3.510
10545TIP3    H231579   5.660   5.593   3.529
10546TIP3   OH231580   4.846   7.227   5.905
10546TIP3    H131581   4.930   7.181   5.910
10546TIP3    H231582   4.822   7.243   5.997
10547TIP3   OH231583   6.987   1.736   2.375
10547TIP3    H131584   6.954   1.806   2.319
10547TIP3    H231585   6.934   1.660   2.353
10548TIP3   OH231586   7.742   0.906   5.791
10548TIP3    H131587   7.807   0.886   5.859
10548TIP3    H231588   7.712   0.994   5.813
10549TIP3   OH231589  -0.003   1.163   1.902
10549TIP3    H131590   0.046   1.199   1.976
10549TIP3    H231591  -0.065   1.232   1.877
10550TIP3   OH231592   2.338   1.513   3.357
10550TIP3    H131593   2.372   1.600   3.380
10550TIP3    H231594   2.399   1.480   3.291
10551TIP3   OH231595   5.912   1.867   5.013
10551TIP3    H131596   5.850   1.849   4.943
10551TIP3    H231597   5.979   1.923   4.973
10552TIP3   OH231598   2.431   4.810   1.911
10552TIP3    H131599   2.499   4.775   1.854
10552TIP3    H231600   2.354   4.818   1.854
10553TIP3   OH231601   7.779   4.208   5.759
10553TIP3    H131602   7.751   4.137   5.816
10553TIP3    H231603   7.842   4.258   5.812
10554TIP3   OH231604   8.264   7.339   0.572
10554TIP3    H131605   8.266   7.321   0.666
10554TIP3    H231606   8.184   7.296   0.541
10555TIP3   OH231607   0.242   1.658   5.931
10555TIP3    H131608   0.287   1.736   5.964
10555TIP3    H231609   0.154   1.688   5.910
10556TIP3   OH231610   0.110   6.368   6.748
10556TIP3    H131611   0.031   6.418   6.727
10556TIP3    H231612   0.169   6.385   6.674
10557TIP3   OH231613   4.898   4.463   2.888
10557TIP3    H131614   4.803   4.455   2.885
10557TIP3    H231615   4.919   4.526   2.819
10558TIP3   OH231616   5.595   3.320   1.759
10558TIP3    H131617   5.574   3.413   1.773
10558TIP3    H231618   5.510   3.278   1.746
10559TIP3   OH231619   2.132   2.739   5.151
10559TIP3    H131620   2.038   2.720   5.153
10559TIP3    H231621   2.170   2.678   5.215
10560TIP3   OH231622   7.400   6.463   4.943
10560TIP3    H131623   7.467   6.411   4.899
10560TIP3    H231624   7.318   6.439   4.898
10561TIP3   OH231625   4.859   5.425   6.351
10561TIP3    H131626   4.788   5.376   6.393
10561TIP3    H231627   4.939   5.380   6.378
10562TIP3   OH231628   3.106   4.889   2.578
10562TIP3    H131629   3.016   4.890   2.545
10562TIP3    H231630   3.153   4.951   2.522
10563TIP3   OH231631   5.096   1.785   5.414
10563TIP3    H131632   5.111   1.809   5.505
10563TIP3    H231633   5.055   1.863   5.375
10564TIP3   OH231634   3.617   0.928   6.154
10564TIP3    H131635   3.599   0.914   6.061
10564TIP3    H231636   3.607   1.022   6.166
10565TIP3   OH231637   1.367   0.310   0.718
10565TIP3    H131638   1.362   0.371   0.792
10565TIP3    H231639   1.276   0.296   0.692
10566TIP3   OH231640   7.765   5.280   1.623
10566TIP3    H131641   7.763   5.226   1.543
10566TIP3    H231642   7.829   5.348   1.604
10567TIP3   OH231643   7.078   7.415   5.413
10567TIP3    H131644   7.154   7.372   5.451
10567TIP3    H231645   7.058   7.487   5.473
10568TIP3   OH231646   6.980   0.322   5.961
10568TIP3    H131647   7.029   0.387   6.011
10568TIP3    H231648   6.897   0.312   6.008
10569TIP3   OH231649   2.377   0.041   5.023
10569TIP3    H131650   2.400  -0.046   5.055
10569TIP3    H231651   2.379   0.032   4.928
10570TIP3   OH231652   4.741   1.172   6.675
10570TIP3    H131653   4.819   1.118   6.661
10570TIP3    H231654   4.690   1.124   6.740
10571TIP3   OH231655   2.469   5.545   6.085
10571TIP3    H131656   2.409   5.486   6.039
10571TIP3    H231657   2.414   5.620   6.110
10572TIP3   OH231658   2.226   1.679   1.475
10572TIP3    H131659   2.204   1.634   1.393
10572TIP3    H231660   2.150   1.732   1.495
10573TIP3   OH231661   5.387   4.446   6.573
10573TIP3    H131662   5.437   4.487   6.644
10573TIP3    H231663   5.399   4.504   6.498
10574TIP3   OH231664   3.529   4.871   5.518
10574TIP3    H131665   3.438   4.873   5.490
10574TIP3    H231666   3.552   4.778   5.516
10575TIP3   OH231667   2.413   1.088   1.840
10575TIP3    H131668   2.362   1.047   1.909
10575TIP3    H231669   2.349   1.136   1.787
10576TIP3   OH231670   6.169   6.482   6.038
10576TIP3    H131671   6.180   6.394   6.075
10576TIP3    H231672   6.238   6.534   6.079
10577TIP3   OH231673   7.089   0.006   6.309
10577TIP3    H131674   7.145  -0.054   6.261
10577TIP3    H231675   7.140   0.087   6.314
10578TIP3   OH231676   5.043   0.619   6.241
10578TIP3    H131677   5.123   0.608   6.189
10578TIP3    H231678   5.001   0.696   6.203
10579TIP3   OH231679   0.017   5.839   3.902
10579TIP3    H131680  -0.029   5.923   3.904
10579TIP3    H231681   0.017   5.813   3.810
10580TIP3   OH231682   0.659   0.960   2.408
10580TIP3    H131683   0.706   0.879   2.429
10580TIP3    H231684   0.702   1.027   2.461
10581TIP3   OH231685   0.466   5.327   5.316
10581TIP3    H131686   0.540   5.380   5.288
10581TIP3    H231687   0.494   5.286   5.398
10582TIP3   OH231688   8.119   2.210   2.082
10582TIP3    H131689   8.195   2.244   2.129
10582TIP3    H231690   8.051   2.202   2.148
10583TIP3   OH231691   5.371   4.298   1.847
10583TIP3    H131692   5.291   4.322   1.802
10583TIP3    H231693   5.440   4.347   1.802
10584TIP3   OH231694   7.308   4.702   4.439
10584TIP3    H131695   7.324   4.763   4.511
10584TIP3    H231696   7.219   4.723   4.410
10585TIP3   OH231697   6.248   4.835   3.740
10585TIP3    H131698   6.321   4.857   3.798
10585TIP3    H231699   6.276   4.865   3.653
10586TIP3   OH231700   7.869   1.391   3.426
10586TIP3    H131701   7.941   1.331   3.445
10586TIP3    H231702   7.793   1.354   3.471
10587TIP3   OH231703   3.672   6.246   0.684
10587TIP3    H131704   3.731   6.303   0.634
10587TIP3    H231705   3.656   6.293   0.765
10588TIP3   OH231706   0.348   2.123   4.301
10588TIP3    H131707   0.380   2.059   4.364
10588TIP3    H231708   0.414   2.193   4.303
10589TIP3   OH231709   7.507   3.997   6.791
10589TIP3    H131710   7.435   4.058   6.804
10589TIP3    H231711   7.466   3.910   6.793
10590TIP3   OH231712   2.120   1.149   2.630
10590TIP3    H131713   2.087   1.162   2.719
10590TIP3    H231714   2.206   1.192   2.631
10591TIP3   OH231715   6.719   4.567   6.409
10591TIP3    H131716   6.797   4.570   6.354
10591TIP3    H231717   6.695   4.475   6.412
10592TIP3   OH231718   7.653   5.923   2.957
10592TIP3    H131719   7.581   5.888   2.904
10592TIP3    H231720   7.727   5.865   2.937
10593TIP3   OH231721   2.708   0.901   5.593
10593TIP3    H131722   2.632   0.901   5.535
10593TIP3    H231723   2.755   0.820   5.571
10594TIP3   OH231724   6.346   3.870   3.115
10594TIP3    H131725   6.323   3.777   3.115
10594TIP3    H231726   6.264   3.915   3.135
10595TIP3   OH231727   3.190   3.252   5.351
10595TIP3    H131728   3.173   3.158   5.341
10595TIP3    H231729   3.254   3.272   5.283
10596TIP3   OH231730   3.056   0.646   5.113
10596TIP3    H131731   3.126   0.616   5.170
10596TIP3    H231732   3.075   0.607   5.027
10597TIP3   OH231733   0.444   4.518   1.474
10597TIP3    H131734   0.415   4.605   1.500
10597TIP3    H231735   0.535   4.528   1.448
10598TIP3   OH231736   6.406   4.961   3.249
10598TIP3    H131737   6.397   4.905   3.172
10598TIP3    H231738   6.481   5.017   3.231
10599TIP3   OH231739   6.101   4.317   5.140
10599TIP3    H131740   6.144   4.403   5.138
10599TIP3    H231741   6.009   4.337   5.156
10600TIP3   OH231742   6.403   1.466   5.221
10600TIP3    H131743   6.339   1.451   5.290
10600TIP3    H231744   6.473   1.516   5.263
10601TIP3   OH231745   6.740   1.377   0.536
10601TIP3    H131746   6.716   1.286   0.555
10601TIP3    H231747   6.665   1.414   0.491
10602TIP3   OH231748   0.459   2.663   0.860
10602TIP3    H131749   0.370   2.671   0.825
10602TIP3    H231750   0.486   2.753   0.878
10603TIP3   OH231751   6.367   2.202   2.650
10603TIP3    H131752   6.438   2.263   2.629
10603TIP3    H231753   6.288   2.242   2.613
10604TIP3   OH231754   1.237   6.354   4.481
10604TIP3    H131755   1.251   6.421   4.415
10604TIP3    H231756   1.165   6.387   4.535
10605TIP3   OH231757   2.528   4.488   0.875
10605TIP3    H131758   2.540   4.416   0.937
10605TIP3    H231759   2.593   4.471   0.807
10606TIP3   OH231760   8.028   1.011   0.819
10606TIP3    H131761   8.032   0.941   0.884
10606TIP3    H231762   8.110   1.058   0.829
10607TIP3   OH231763   1.590   0.652   3.999
10607TIP3    H131764   1.677   0.672   4.034
10607TIP3    H231765   1.534   0.649   4.077
10608TIP3   OH231766   6.950   3.260   3.053
10608TIP3    H131767   6.869   3.303   3.078
10608TIP3    H231768   6.934   3.228   2.964
10609TIP3   OH231769   5.899   1.168   2.562
10609TIP3    H131770   5.886   1.205   2.475
10609TIP3    H231771   5.811   1.151   2.595
10610TIP3   OH231772   7.235   5.683   3.865
10610TIP3    H131773   7.266   5.594   3.846
10610TIP3    H231774   7.234   5.727   3.781
10611TIP3   OH231775   1.451   2.835   3.584
10611TIP3    H131776   1.449   2.777   3.508
10611TIP3    H231777   1.363   2.828   3.622
10612TIP3   OH231778   2.181   3.945   2.833
10612TIP3    H131779   2.114   3.997   2.789
10612TIP3    H231780   2.191   3.987   2.919
10613TIP3   OH231781   6.336   4.933   2.265
10613TIP3    H131782   6.278   4.887   2.203
10613TIP3    H231783   6.397   4.865   2.294
10614TIP3   OH231784   5.599   0.053   2.927
10614TIP3    H131785   5.535   0.035   2.996
10614TIP3    H231786   5.670   0.099   2.973
10615TIP3   OH231787   7.267   7.287   3.368
10615TIP3    H131788   7.223   7.206   3.342
10615TIP3    H231789   7.338   7.258   3.426
10616TIP3   OH231790   4.143   1.630   0.228
10616TIP3    H131791   4.175   1.721   0.223
10616TIP3    H231792   4.112   1.611   0.140
10617TIP3   OH231793   2.490   1.716   0.845
10617TIP3    H131794   2.425   1.711   0.915
10617TIP3    H231795   2.478   1.635   0.796
10618TIP3   OH231796   2.476   3.177   4.674
10618TIP3    H131797   2.549   3.115   4.680
10618TIP3    H231798   2.423   3.158   4.751
10619TIP3   OH231799   1.836   5.279   0.414
10619TIP3    H131800   1.808   5.190   0.433
10619TIP3    H231801   1.761   5.334   0.438
10620TIP3   OH231802   1.887   3.889   2.078
10620TIP3    H131803   1.905   3.960   2.016
10620TIP3    H231804   1.946   3.819   2.051
10621TIP3   OH231805   3.724   5.023   5.286
10621TIP3    H131806   3.650   4.985   5.333
10621TIP3    H231807   3.685   5.094   5.234
10622TIP3   OH231808   3.027   5.847   2.429
10622TIP3    H131809   3.011   5.760   2.393
10622TIP3    H231810   2.945   5.894   2.414
10623TIP3   OH231811   0.092   4.851   3.197
10623TIP3    H131812   0.153   4.869   3.126
10623TIP3    H231813   0.114   4.916   3.264
10624TIP3   OH231814   5.906   7.478   4.143
10624TIP3    H131815   5.840   7.547   4.149
10624TIP3    H231816   5.860   7.398   4.169
10625TIP3   OH231817   3.032   3.676   5.486
10625TIP3    H131818   3.021   3.671   5.391
10625TIP3    H231819   2.944   3.674   5.522
10626TIP3   OH231820   7.839   2.634   2.939
10626TIP3    H131821   7.757   2.661   2.980
10626TIP3    H231822   7.852   2.544   2.968
10627TIP3   OH231823   1.704   5.842   3.031
10627TIP3    H131824   1.747   5.854   2.946
10627TIP3    H231825   1.765   5.788   3.080
10628TIP3   OH231826   7.710   1.817   4.800
10628TIP3    H131827   7.708   1.734   4.752
10628TIP3    H231828   7.646   1.872   4.756
10629TIP3   OH231829   3.681   7.734   2.660
10629TIP3    H131830   3.684   7.662   2.723
10629TIP3    H231831   3.772   7.745   2.632
10630TIP3   OH231832   7.001   1.288   5.735
10630TIP3    H131833   6.980   1.195   5.722
10630TIP3    H231834   6.950   1.334   5.669
10631TIP3   OH231835   3.676   0.485   3.915
10631TIP3    H131836   3.768   0.512   3.920
10631TIP3    H231837   3.679   0.389   3.919
10632TIP3   OH231838   4.990   3.939   1.663
10632TIP3    H131839   4.953   3.869   1.609
10632TIP3    H231840   4.926   3.951   1.734
10633TIP3   OH231841   7.350   5.622   3.442
10633TIP3    H131842   7.411   5.638   3.370
10633TIP3    H231843   7.287   5.560   3.406
10634TIP3   OH231844   6.053   6.532   4.339
10634TIP3    H131845   6.064   6.528   4.244
10634TIP3    H231846   6.118   6.470   4.373
10635TIP3   OH231847   0.845   6.429   5.780
10635TIP3    H131848   0.778   6.378   5.736
10635TIP3    H231849   0.856   6.507   5.726
10636TIP3   OH231850   7.261   0.119   6.527
10636TIP3    H131851   7.266   0.160   6.441
10636TIP3    H231852   7.251   0.193   6.588
10637TIP3   OH231853   7.914   3.145   5.630
10637TIP3    H131854   7.958   3.201   5.694
10637TIP3    H231855   7.893   3.203   5.557
10638TIP3   OH231856   4.075   0.808   1.350
10638TIP3    H131857   4.067   0.773   1.261
10638TIP3    H231858   4.148   0.869   1.346
10639TIP3   OH231859   7.105   0.690   0.060
10639TIP3    H131860   7.009   0.685   0.065
10639TIP3    H231861   7.129   0.622  -0.003
10640TIP3   OH231862   4.328   1.241   2.726
10640TIP3    H131863   4.373   1.195   2.656
10640TIP3    H231864   4.398   1.283   2.776
10641TIP3   OH231865   5.771   0.500   3.167
10641TIP3    H131866   5.844   0.548   3.128
10641TIP3    H231867   5.788   0.502   3.261
10642TIP3   OH231868   6.158   5.784   5.904
10642TIP3    H131869   6.161   5.818   5.994
10642TIP3    H231870   6.153   5.689   5.915
10643TIP3   OH231871   3.879   5.545   1.459
10643TIP3    H131872   3.908   5.626   1.416
10643TIP3    H231873   3.949   5.482   1.441
10644TIP3   OH231874   3.429   6.711   3.466
10644TIP3    H131875   3.365   6.741   3.401
10644TIP3    H231876   3.380   6.704   3.548
10645TIP3   OH231877   0.557   1.834   3.364
10645TIP3    H131878   0.508   1.872   3.290
10645TIP3    H231879   0.560   1.904   3.429
10646TIP3   OH231880   3.412   7.189   0.386
10646TIP3    H131881   3.423   7.125   0.457
10646TIP3    H231882   3.325   7.227   0.401
10647TIP3   OH231883   1.634   5.310   3.366
10647TIP3    H131884   1.675   5.325   3.281
10647TIP3    H231885   1.652   5.218   3.386
10648TIP3   OH231886   4.201   3.004   3.130
10648TIP3    H131887   4.145   2.927   3.139
10648TIP3    H231888   4.250   2.988   3.049
10649TIP3   OH231889   3.033   1.267   5.932
10649TIP3    H131890   2.959   1.286   5.989
10649TIP3    H231891   3.111   1.284   5.986
10650TIP3   OH231892   0.898   2.927   1.574
10650TIP3    H131893   0.899   2.854   1.636
10650TIP3    H231894   0.974   2.911   1.517
10651TIP3   OH231895   5.887   4.248   5.399
10651TIP3    H131896   5.965   4.192   5.391
10651TIP3    H231897   5.897   4.291   5.484
10652TIP3   OH231898   7.957   3.741   5.199
10652TIP3    H131899   7.938   3.731   5.106
10652TIP3    H231900   7.974   3.835   5.210
10653TIP3   OH231901   2.893   5.425   2.084
10653TIP3    H131902   2.809   5.378   2.087
10653TIP3    H231903   2.879   5.493   2.017
10654TIP3   OH231904   1.388   1.963   5.148
10654TIP3    H131905   1.453   2.025   5.115
10654TIP3    H231906   1.318   2.018   5.182
10655TIP3   OH231907   7.689   7.669   2.139
10655TIP3    H131908   7.720   7.582   2.162
10655TIP3    H231909   7.762   7.708   2.091
10656TIP3   OH231910   3.988   4.583   3.566
10656TIP3    H131911   4.026   4.500   3.596
10656TIP3    H231912   3.920   4.603   3.630
10657TIP3   OH231913   2.771   2.301   4.031
10657TIP3    H131914   2.816   2.320   3.948
10657TIP3    H231915   2.768   2.205   4.035
10658TIP3   OH231916   0.242   5.813   6.145
10658TIP3    H131917   0.205   5.877   6.206
10658TIP3    H231918   0.257   5.735   6.198
10659TIP3   OH231919   3.481   6.186   4.535
10659TIP3    H131920   3.489   6.269   4.488
10659TIP3    H231921   3.571   6.163   4.558
10660TIP3   OH231922   0.968   6.835   1.461
10660TIP3    H131923   0.978   6.928   1.480
10660TIP3    H231924   0.979   6.827   1.367
10661TIP3   OH231925   1.392   4.183   1.839
10661TIP3    H131926   1.455   4.118   1.872
10661TIP3    H231927   1.392   4.252   1.906
10662TIP3   OH231928   0.929   2.081   1.499
10662TIP3    H131929   0.991   2.014   1.472
10662TIP3    H231930   0.857   2.074   1.436
10663TIP3   OH231931   2.701   0.699   2.313
10663TIP3    H131932   2.687   0.726   2.222
10663TIP3    H231933   2.628   0.639   2.332
10664TIP3   OH231934   3.607   1.513   3.693
10664TIP3    H131935   3.580   1.558   3.773
10664TIP3    H231936   3.530   1.516   3.636
10665TIP3   OH231937   8.357   0.030   5.321
10665TIP3    H131938   8.372   0.068   5.235
10665TIP3    H231939   8.267  -0.002   5.318
10666TIP3   OH231940   2.242   1.464   2.791
10666TIP3    H131941   2.205   1.420   2.868
10666TIP3    H231942   2.297   1.399   2.749
10667TIP3   OH231943   5.861   6.890   3.691
10667TIP3    H131944   5.901   6.807   3.717
10667TIP3    H231945   5.770   6.867   3.669
10668TIP3   OH231946   7.568   1.519   3.290
10668TIP3    H131947   7.604   1.453   3.230
10668TIP3    H231948   7.474   1.519   3.272
10669TIP3   OH231949   7.819   5.738   2.840
10669TIP3    H131950   7.741   5.718   2.788
10669TIP3    H231951   7.842   5.654   2.880
10670TIP3   OH231952   1.553   2.740   4.287
10670TIP3    H131953   1.548   2.650   4.318
10670TIP3    H231954   1.619   2.739   4.218
10671TIP3   OH231955   3.374   4.582   3.031
10671TIP3    H131956   3.362   4.664   2.984
10671TIP3    H231957   3.292   4.534   3.018
10672TIP3   OH231958   6.097   3.828   3.997
10672TIP3    H131959   6.192   3.831   3.987
10672TIP3    H231960   6.069   3.919   3.983
10673TIP3   OH231961   1.361   7.450   1.922
10673TIP3    H131962   1.281   7.477   1.965
10673TIP3    H231963   1.419   7.526   1.929
10674TIP3   OH231964   3.060   1.181   4.678
10674TIP3    H131965   3.067   1.247   4.747
10674TIP3    H231966   3.069   1.231   4.597
10675TIP3   OH231967   5.322   3.224   5.427
10675TIP3    H131968   5.370   3.152   5.467
10675TIP3    H231969   5.273   3.183   5.356
10676TIP3   OH231970   1.651   3.550   1.654
10676TIP3    H131971   1.689   3.463   1.660
10676TIP3    H231972   1.706   3.605   1.710
10677TIP3   OH231973   5.314   0.224   5.612
10677TIP3    H131974   5.242   0.219   5.550
10677TIP3    H231975   5.388   0.255   5.561
10678TIP3   OH231976   5.534   6.150   5.270
10678TIP3    H131977   5.482   6.118   5.196
10678TIP3    H231978   5.625   6.136   5.242
10679TIP3   OH231979   4.504   2.715   4.600
10679TIP3    H131980   4.496   2.670   4.684
10679TIP3    H231981   4.414   2.734   4.574
10680TIP3   OH231982   7.587   4.767   1.709
10680TIP3    H131983   7.620   4.756   1.798
10680TIP3    H231984   7.597   4.861   1.692
10681TIP3   OH231985   3.778   3.161   3.756
10681TIP3    H131986   3.734   3.242   3.781
10681TIP3    H231987   3.780   3.108   3.836
10682TIP3   OH231988   6.022   6.938   5.877
10682TIP3    H131989   6.087   6.990   5.829
10682TIP3    H231990   6.017   6.980   5.963
10683TIP3   OH231991   6.009   2.891   1.069
10683TIP3    H131992   6.070   2.818   1.083
10683TIP3    H231993   5.982   2.883   0.978
10684TIP3   OH231994   1.504   4.112   2.784
10684TIP3    H131995   1.542   4.084   2.868
10684TIP3    H231996   1.410   4.099   2.795
10685TIP3   OH231997   7.984   5.209   4.066
10685TIP3    H131998   7.934   5.195   3.986
10685TIP3    H231999   7.948   5.289   4.103
10686TIP3   OH232000   6.889   3.472   5.099
10686TIP3    H132001   6.951   3.402   5.122
10686TIP3    H232002   6.880   3.466   5.004
10687TIP3   OH232003   4.837   3.799   2.126
10687TIP3    H132004   4.924   3.838   2.127
10687TIP3    H232005   4.782   3.860   2.076
10688TIP3   OH232006   1.483   3.207   4.461
10688TIP3    H132007   1.514   3.147   4.394
10688TIP3    H232008   1.497   3.159   4.543
10689TIP3   OH232009   6.108   7.650   0.617
10689TIP3    H132010   6.181   7.626   0.560
10689TIP3    H232011   6.098   7.576   0.676
10690TIP3   OH232012   5.467   5.164   5.597
10690TIP3    H132013   5.552   5.187   5.559
10690TIP3    H232014   5.442   5.241   5.648
10691TIP3   OH232015   0.590   3.297   6.267
10691TIP3    H132016   0.583   3.313   6.173
10691TIP3    H232017   0.559   3.207   6.278
10692TIP3   OH232018   2.460   5.327   3.688
10692TIP3    H132019   2.374   5.321   3.646
10692TIP3    H232020   2.520   5.286   3.626
10693TIP3   OH232021   5.487   4.224   3.972
10693TIP3    H132022   5.482   4.306   4.021
10693TIP3    H232023   5.580   4.203   3.970
10694TIP3   OH232024   7.182   7.076   0.721
10694TIP3    H132025   7.096   7.035   0.735
10694TIP3    H232026   7.168   7.135   0.647
10695TIP3   OH232027   1.752   2.186   6.064
10695TIP3    H132028   1.764   2.168   5.971
10695TIP3    H232029   1.825   2.141   6.107
10696TIP3   OH232030   4.059   4.479   5.194
10696TIP3    H132031   4.137   4.512   5.149
10696TIP3    H232032   4.090   4.400   5.239
10697TIP3   OH232033   3.623   7.023   0.188
10697TIP3    H132034   3.698   6.992   0.240
10697TIP3    H232035   3.552   6.964   0.211
10698TIP3   OH232036   5.267   2.661   3.850
10698TIP3    H132037   5.274   2.644   3.756
10698TIP3    H232038   5.356   2.688   3.876
10699TIP3   OH232039   7.976   5.053   3.128
10699TIP3    H132040   7.944   4.962   3.130
10699TIP3    H232041   7.924   5.097   3.195
10700TIP3   OH232042   6.887   5.128   2.003
10700TIP3    H132043   6.889   5.137   2.098
10700TIP3    H232044   6.903   5.035   1.987
10701TIP3   OH232045   1.223   5.312   4.218
10701TIP3    H132046   1.159   5.366   4.264
10701TIP3    H232047   1.217   5.226   4.260
10702TIP3   OH232048   1.282   2.409   3.332
10702TIP3    H132049   1.302   2.449   3.417
10702TIP3    H232050   1.210   2.349   3.350
10703TIP3   OH232051   4.578   5.999   1.268
10703TIP3    H132052   4.587   6.083   1.223
10703TIP3    H232053   4.647   5.999   1.334
10704TIP3   OH232054   8.085   2.570   2.369
10704TIP3    H132055   8.178   2.556   2.349
10704TIP3    H232056   8.045   2.589   2.284
10705TIP3   OH232057   6.728   3.127   1.147
10705TIP3    H132058   6.659   3.129   1.081
10705TIP3    H232059   6.769   3.214   1.142
10706TIP3   OH232060   4.090   3.818   3.620
10706TIP3    H132061   4.026   3.842   3.687
10706TIP3    H232062   4.055   3.856   3.539
10707TIP3   OH232063   0.234   5.982   1.830
10707TIP3    H132064   0.245   6.076   1.842
10707TIP3    H232065   0.303   5.957   1.769
10708TIP3   OH232066   2.669   4.875   3.762
10708TIP3    H132067   2.636   4.827   3.838
10708TIP3    H232068   2.595   4.876   3.701
10709TIP3   OH232069   0.684   2.722   3.864
10709TIP3    H132070   0.756   2.782   3.842
10709TIP3    H232071   0.696   2.703   3.957
10710TIP3   OH232072   4.608   2.494   2.935
10710TIP3    H132073   4.690   2.544   2.929
10710TIP3    H232074   4.633   2.412   2.978
10711TIP3   OH232075   3.589   0.451   5.318
10711TIP3    H132076   3.513   0.482   5.367
10711TIP3    H232077   3.634   0.391   5.378
10712TIP3   OH232078   2.397   5.018   4.086
10712TIP3    H132079   2.319   5.067   4.112
10712TIP3    H232080   2.411   4.956   4.157
10713TIP3   OH232081   4.228   6.616   4.088
10713TIP3    H132082   4.241   6.636   4.181
10713TIP3    H232083   4.144   6.570   4.085
10714TIP3   OH232084   4.495   5.545   2.285
10714TIP3    H132085   4.566   5.519   2.227
10714TIP3    H232086   4.435   5.595   2.229
10715TIP3   OH232087   0.644   7.325   1.965
10715TIP3    H132088   0.689   7.242   1.978
10715TIP3    H232089   0.624   7.356   2.053
10716TIP3   OH232090   0.071   2.579   3.788
10716TIP3    H132091   0.010   2.506   3.800
10716TIP3    H232092   0.126   2.577   3.866
10717TIP3   OH232093   7.255   6.309   3.346
10717TIP3    H132094   7.221   6.368   3.413
10717TIP3    H232095   7.330   6.357   3.309
10718TIP3   OH232096   2.175   1.809   3.337
10718TIP3    H132097   2.263   1.771   3.329
10718TIP3    H232098   2.160   1.853   3.254
10719TIP3   OH232099   4.192   5.789   5.769
10719TIP3    H132100   4.254   5.825   5.705
10719TIP3    H232101   4.106   5.804   5.729
10720TIP3   OH232102   6.206   5.217   1.838
10720TIP3    H132103   6.142   5.287   1.828
10720TIP3    H232104   6.164   5.153   1.895
10721TIP3   OH232105   6.680   2.179   4.281
10721TIP3    H132106   6.743   2.181   4.353
10721TIP3    H232107   6.614   2.115   4.309
10722TIP3   OH232108   2.865   4.930   1.360
10722TIP3    H132109   2.941   4.987   1.373
10722TIP3    H232110   2.857   4.924   1.264
10723TIP3   OH232111   2.936   2.784   4.536
10723TIP3    H132112   3.008   2.747   4.484
10723TIP3    H232113   2.980   2.824   4.611
10724TIP3   OH232114   6.064   2.239   3.610
10724TIP3    H132115   6.081   2.270   3.699
10724TIP3    H232116   5.970   2.249   3.599
10725TIP3   OH232117   7.625   6.949   6.052
10725TIP3    H132118   7.577   6.866   6.048
10725TIP3    H232119   7.570   7.006   6.106
10726TIP3   OH232120   2.809   3.438   6.005
10726TIP3    H132121   2.724   3.448   5.963
10726TIP3    H232122   2.789   3.405   6.093
10727TIP3   OH232123   1.905   7.664   0.578
10727TIP3    H132124   1.909   7.717   0.658
10727TIP3    H232125   1.857   7.719   0.516
10728TIP3   OH232126   2.983   4.784   2.324
10728TIP3    H132127   3.041   4.710   2.340
10728TIP3    H232128   3.037   4.846   2.275
10729TIP3   OH232129   6.052   1.305   2.105
10729TIP3    H132130   6.087   1.275   2.189
10729TIP3    H232131   6.127   1.301   2.046
10730TIP3   OH232132   8.250   3.788   2.361
10730TIP3    H132133   8.289   3.825   2.282
10730TIP3    H232134   8.266   3.855   2.428
10731TIP3   OH232135   4.751   7.199   1.733
10731TIP3    H132136   4.767   7.259   1.660
10731TIP3    H232137   4.680   7.240   1.782
10732TIP3   OH232138   6.452   0.783   3.231
10732TIP3    H132139   6.446   0.708   3.171
10732TIP3    H232140   6.398   0.759   3.306
10733TIP3   OH232141   2.707   2.412   2.712
10733TIP3    H132142   2.711   2.324   2.749
10733TIP3    H232143   2.798   2.440   2.705
10734TIP3   OH232144   0.991   1.608   6.466
10734TIP3    H132145   0.915   1.662   6.487
10734TIP3    H232146   1.065   1.669   6.465
10735TIP3   OH232147   0.883   4.817   0.886
10735TIP3    H132148   0.927   4.860   0.959
10735TIP3    H232149   0.841   4.741   0.925
10736TIP3   OH232150   8.095   6.564   5.089
10736TIP3    H132151   8.130   6.560   5.000
10736TIP3    H232152   8.115   6.478   5.126
10737TIP3   OH232153   2.980   0.243   3.079
10737TIP3    H132154   3.030   0.280   3.006
10737TIP3    H232155   3.047   0.218   3.143
10738TIP3   OH232156   7.505   4.027   0.735
10738TIP3    H132157   7.472   3.963   0.672
10738TIP3    H232158   7.594   4.046   0.705
10739TIP3   OH232159   2.877   5.794   3.447
10739TIP3    H132160   2.785   5.793   3.420
10739TIP3    H232161   2.918   5.723   3.397
10740TIP3   OH232162   4.399   4.487   4.060
10740TIP3    H132163   4.415   4.518   3.971
10740TIP3    H232164   4.353   4.560   4.103
10741TIP3   OH232165   6.065   4.386   2.447
10741TIP3    H132166   6.025   4.472   2.464
10741TIP3    H232167   6.158   4.405   2.438
10742TIP3   OH232168   2.528   6.364   1.947
10742TIP3    H132169   2.458   6.404   1.999
10742TIP3    H232170   2.554   6.433   1.886
10743TIP3   OH232171   6.598   7.619   1.435
10743TIP3    H132172   6.635   7.540   1.397
10743TIP3    H232173   6.590   7.679   1.361
10744TIP3   OH232174   1.915   3.511   5.492
10744TIP3    H132175   1.992   3.456   5.504
10744TIP3    H232176   1.848   3.451   5.458
10745TIP3   OH232177   7.063   2.593   1.668
10745TIP3    H132178   7.095   2.645   1.595
10745TIP3    H232179   7.140   2.576   1.722
10746TIP3   OH232180   1.632   0.880   6.287
10746TIP3    H132181   1.589   0.939   6.349
10746TIP3    H232182   1.582   0.799   6.294
10747TIP3   OH232183   0.099   1.984   4.348
10747TIP3    H132184   0.087   2.033   4.430
10747TIP3    H232185   0.164   2.035   4.300
10748TIP3   OH232186   2.767   5.842   4.468
10748TIP3    H132187   2.774   5.937   4.475
10748TIP3    H232188   2.850   5.814   4.431
10749TIP3   OH232189   5.706   5.275   3.747
10749TIP3    H132190   5.734   5.327   3.671
10749TIP3    H232191   5.768   5.299   3.816
10750TIP3   OH232192   8.206   2.186   0.973
10750TIP3    H132193   8.173   2.244   0.905
10750TIP3    H232194   8.199   2.098   0.936
10751TIP3   OH232195   2.032   6.987   5.697
10751TIP3    H132196   2.035   6.894   5.674
10751TIP3    H232197   1.968   7.025   5.637
10752TIP3   OH232198   1.979   3.207   3.958
10752TIP3    H132199   1.902   3.189   4.013
10752TIP3    H232200   1.950   3.188   3.869
10753TIP3   OH232201   6.518   6.145   3.911
10753TIP3    H132202   6.462   6.069   3.894
10753TIP3    H232203   6.606   6.107   3.921
10754TIP3   OH232204   6.126   5.217   5.722
10754TIP3    H132205   6.074   5.274   5.665
10754TIP3    H232206   6.204   5.269   5.742
10755TIP3   OH232207   6.910   4.233   4.496
10755TIP3    H132208   6.998   4.198   4.480
10755TIP3    H232209   6.896   4.294   4.424
10756TIP3   OH232210   7.162   4.154   1.065
10756TIP3    H132211   7.222   4.092   1.022
10756TIP3    H232212   7.098   4.099   1.109
10757TIP3   OH232213   5.157   7.637   0.683
10757TIP3    H132214   5.204   7.708   0.638
10757TIP3    H232215   5.206   7.558   0.662
10758TIP3   OH232216   3.055   1.745   0.364
10758TIP3    H132217   2.959   1.745   0.367
10758TIP3    H232218   3.080   1.833   0.391
10759TIP3   OH232219   7.623   4.375   2.496
10759TIP3    H132220   7.549   4.392   2.555
10759TIP3    H232221   7.614   4.441   2.427
10760TIP3   OH232222   0.144   3.523   1.907
10760TIP3    H132223   0.144   3.550   1.999
10760TIP3    H232224   0.053   3.504   1.887
10761TIP3   OH232225   1.968   1.627   4.603
10761TIP3    H132226   1.970   1.713   4.647
10761TIP3    H232227   2.039   1.578   4.643
10762TIP3   OH232228   1.152   1.452   0.832
10762TIP3    H132229   1.230   1.416   0.873
10762TIP3    H232230   1.176   1.465   0.741
10763TIP3   OH232231   0.089   1.447   6.767
10763TIP3    H132232   0.115   1.538   6.779
10763TIP3    H232233   0.084   1.436   6.672
10764TIP3   OH232234   1.906   0.704   2.615
10764TIP3    H132235   1.818   0.737   2.632
10764TIP3    H232236   1.958   0.783   2.597
10765TIP3   OH232237   3.430   1.961   1.833
10765TIP3    H132238   3.521   1.966   1.804
10765TIP3    H232239   3.430   2.003   1.919
10766TIP3   OH232240   4.754   1.720   1.213
10766TIP3    H132241   4.701   1.725   1.133
10766TIP3    H232242   4.697   1.754   1.282
10767TIP3   OH232243   5.980   6.232   2.943
10767TIP3    H132244   5.894   6.275   2.939
10767TIP3    H232245   5.972   6.168   3.014
10768TIP3   OH232246   5.830   5.460   4.912
10768TIP3    H132247   5.838   5.469   5.007
10768TIP3    H232248   5.915   5.426   4.884
10769TIP3   OH232249   8.025   1.831   6.450
10769TIP3    H132250   8.055   1.842   6.360
10769TIP3    H232251   7.991   1.917   6.475
10770TIP3   OH232252   8.054   6.604   5.536
10770TIP3    H132253   7.960   6.596   5.554
10770TIP3    H232254   8.058   6.658   5.457
10771TIP3   OH232255   2.115   2.772   4.402
10771TIP3    H132256   2.203   2.793   4.433
10771TIP3    H232257   2.129   2.740   4.312
10772TIP3   OH232258   1.148   0.533   6.216
10772TIP3    H132259   1.159   0.609   6.274
10772TIP3    H232260   1.067   0.551   6.169
10773TIP3   OH232261   5.210   3.007   2.358
10773TIP3    H132262   5.195   3.057   2.438
10773TIP3    H232263   5.123   3.000   2.318
10774TIP3   OH232264   7.151   1.802   3.955
10774TIP3    H132265   7.200   1.852   4.020
10774TIP3    H232266   7.116   1.727   4.002
10775TIP3   OH232267   4.361   6.061   6.795
10775TIP3    H132268   4.382   5.968   6.804
10775TIP3    H232269   4.280   6.063   6.744
10776TIP3   OH232270   2.186   2.623   2.108
10776TIP3    H132271   2.198   2.717   2.124
10776TIP3    H232272   2.257   2.581   2.157
10777TIP3   OH232273   1.308   4.622   6.622
10777TIP3    H132274   1.258   4.606   6.542
10777TIP3    H232275   1.315   4.535   6.663
10778TIP3   OH232276   1.028   1.596   2.752
10778TIP3    H132277   1.024   1.565   2.662
10778TIP3    H232278   1.078   1.529   2.799
10779TIP3   OH232279   1.615   2.785   0.637
10779TIP3    H132280   1.704   2.792   0.602
10779TIP3    H232281   1.563   2.749   0.565
10780TIP3   OH232282   2.717   1.761   4.185
10780TIP3    H132283   2.759   1.678   4.163
10780TIP3    H232284   2.786   1.813   4.226
10781TIP3   OH232285   0.414   3.679   4.569
10781TIP3    H132286   0.409   3.710   4.479
10781TIP3    H232287   0.505   3.650   4.580
10782TIP3   OH232288   3.245   1.943   0.415
10782TIP3    H132289   3.214   2.014   0.471
10782TIP3    H232290   3.336   1.929   0.443
10783TIP3   OH232291   3.875   5.881   1.812
10783TIP3    H132292   3.914   5.793   1.809
10783TIP3    H232293   3.884   5.908   1.903
10784TIP3   OH232294   3.677   4.189   6.504
10784TIP3    H132295   3.628   4.118   6.546
10784TIP3    H232296   3.761   4.150   6.482
10785TIP3   OH232297   5.067   4.278   3.007
10785TIP3    H132298   5.096   4.208   2.948
10785TIP3    H232299   5.011   4.333   2.952
10786TIP3   OH232300   3.392   6.453   1.036
10786TIP3    H132301   3.428   6.364   1.046
10786TIP3    H232302   3.436   6.487   0.958
10787TIP3   OH232303   2.230   2.160   3.812
10787TIP3    H132304   2.292   2.127   3.877
10787TIP3    H232305   2.279   2.160   3.730
10788TIP3   OH232306   7.280   3.793   2.403
10788TIP3    H132307   7.264   3.778   2.496
10788TIP3    H232308   7.273   3.706   2.364
10789TIP3   OH232309   4.854   4.976   5.639
10789TIP3    H132310   4.839   5.065   5.607
10789TIP3    H232311   4.849   4.921   5.561
10790TIP3   OH232312   7.515   2.272   2.808
10790TIP3    H132313   7.578   2.225   2.863
10790TIP3    H232314   7.431   2.230   2.827
10791TIP3   OH232315   1.534   2.680   3.333
10791TIP3    H132316   1.591   2.757   3.327
10791TIP3    H232317   1.524   2.650   3.243
10792TIP3   OH232318   3.770   4.995   6.800
10792TIP3    H132319   3.812   5.053   6.737
10792TIP3    H232320   3.702   4.950   6.750
10793TIP3   OH232321   2.097   0.374   6.375
10793TIP3    H132322   2.010   0.370   6.415
10793TIP3    H232323   2.152   0.318   6.431
10794TIP3   OH232324   3.845   0.103   6.774
10794TIP3    H132325   3.922   0.120   6.720
10794TIP3    H232326   3.832   0.008   6.768
10795TIP3   OH232327   7.781  -0.028   3.399
10795TIP3    H132328   7.780   0.048   3.340
10795TIP3    H232329   7.761  -0.103   3.342
10796TIP3   OH232330   2.224   6.741   5.967
10796TIP3    H132331   2.241   6.761   5.875
10796TIP3    H232332   2.157   6.804   5.993
10797TIP3   OH232333   3.393   5.551   2.739
10797TIP3    H132334   3.387   5.611   2.813
10797TIP3    H232335   3.346   5.473   2.768
10798TIP3   OH232336   3.090   5.999   6.371
10798TIP3    H132337   3.034   6.072   6.395
10798TIP3    H232338   3.154   5.993   6.443
10799TIP3   OH232339   0.907   0.611   6.749
10799TIP3    H132340   0.825   0.660   6.750
10799TIP3    H232341   0.915   0.578   6.659
10800TIP3   OH232342   8.019   5.400   1.994
10800TIP3    H132343   7.986   5.442   1.915
10800TIP3    H232344   7.975   5.315   1.996
10801TIP3   OH232345   4.390   7.009   2.899
10801TIP3    H132346   4.404   6.921   2.864
10801TIP3    H232347   4.295   7.019   2.899
10802TIP3   OH232348   5.894   7.736   6.238
10802TIP3    H132349   5.961   7.787   6.283
10802TIP3    H232350   5.900   7.649   6.277
10803TIP3   OH232351   5.576   3.717   6.354
10803TIP3    H132352   5.644   3.670   6.306
10803TIP3    H232353   5.593   3.697   6.446
10804TIP3   OH232354   2.777   5.738   0.631
10804TIP3    H132355   2.771   5.728   0.536
10804TIP3    H232356   2.870   5.726   0.651
10805TIP3   OH232357   5.193   3.529   6.591
10805TIP3    H132358   5.198   3.545   6.496
10805TIP3    H232359   5.102   3.547   6.613
10806TIP3   OH232360   3.451   4.782   0.299
10806TIP3    H132361   3.478   4.701   0.257
10806TIP3    H232362   3.478   4.772   0.391
10807TIP3   OH232363   0.868   7.453   4.973
10807TIP3    H132364   0.881   7.379   4.914
10807TIP3    H232365   0.917   7.525   4.934
10808TIP3   OH232366   6.612   4.311   6.366
10808TIP3    H132367   6.642   4.229   6.327
10808TIP3    H232368   6.564   4.283   6.444
10809TIP3   OH232369   1.963   5.391   2.917
10809TIP3    H132370   1.994   5.370   2.829
10809TIP3    H232371   2.042   5.393   2.971
10810TIP3   OH232372   4.206   6.251   5.024
10810TIP3    H132373   4.208   6.296   5.109
10810TIP3    H232374   4.121   6.276   4.987
10811TIP3   OH232375   6.918   5.594   5.041
10811TIP3    H132376   6.833   5.610   5.002
10811TIP3    H232377   6.975   5.571   4.968
10812TIP3   OH232378   6.491   1.533   0.980
10812TIP3    H132379   6.462   1.620   0.952
10812TIP3    H232380   6.498   1.539   1.075
10813TIP3   OH232381   4.362   4.953   1.658
10813TIP3    H132382   4.414   5.004   1.720
10813TIP3    H232383   4.322   5.018   1.601
10814TIP3   OH232384   3.748   3.792   4.300
10814TIP3    H132385   3.791   3.720   4.347
10814TIP3    H232386   3.740   3.760   4.210
10815TIP3   OH232387   3.368   7.026   2.198
10815TIP3    H132388   3.407   6.951   2.243
10815TIP3    H232389   3.439   7.059   2.142
10816TIP3   OH232390   0.766   1.048   0.862
10816TIP3    H132391   0.713   1.053   0.941
10816TIP3    H232392   0.760   1.136   0.823
10817TIP3   OH232393   5.446   1.192   3.966
10817TIP3    H132394   5.470   1.199   4.058
10817TIP3    H232395   5.352   1.211   3.964
10818TIP3   OH232396   0.212   3.430   5.501
10818TIP3    H132397   0.272   3.471   5.564
10818TIP3    H232398   0.126   3.462   5.527
10819TIP3   OH232399   6.294   6.708   0.212
10819TIP3    H132400   6.299   6.613   0.223
10819TIP3    H232401   6.383   6.734   0.189
10820TIP3   OH232402   0.219   2.552   1.814
10820TIP3    H132403   0.252   2.636   1.781
10820TIP3    H232404   0.269   2.536   1.894
10821TIP3   OH232405   1.201   2.687   5.845
10821TIP3    H132406   1.175   2.710   5.756
10821TIP3    H232407   1.255   2.609   5.834
10822TIP3   OH232408   2.127   6.747   5.337
10822TIP3    H132409   2.088   6.804   5.271
10822TIP3    H232410   2.185   6.688   5.289
10823TIP3   OH232411   5.705   6.408   5.149
10823TIP3    H132412   5.676   6.431   5.060
10823TIP3    H232413   5.626   6.376   5.193
10824TIP3   OH232414   1.267   5.226   5.707
10824TIP3    H132415   1.333   5.272   5.656
10824TIP3    H232416   1.184   5.269   5.684
10825TIP3   OH232417   4.142   4.869   5.300
10825TIP3    H132418   4.144   4.927   5.224
10825TIP3    H232419   4.072   4.903   5.355
10826TIP3   OH232420   1.123   6.827   6.536
10826TIP3    H132421   1.113   6.732   6.529
10826TIP3    H232422   1.179   6.838   6.613
10827TIP3   OH232423   7.380   1.008   4.436
10827TIP3    H132424   7.427   1.090   4.447
10827TIP3    H232425   7.287   1.033   4.440
10828TIP3   OH232426   7.724   7.045   2.617
10828TIP3    H132427   7.635   7.038   2.581
10828TIP3    H232428   7.737   7.139   2.631
10829TIP3   OH232429   1.612   5.518   5.731
10829TIP3    H132430   1.674   5.513   5.658
10829TIP3    H232431   1.580   5.608   5.729
10830TIP3   OH232432   5.545   3.900   6.597
10830TIP3    H132433   5.590   3.909   6.681
10830TIP3    H232434   5.536   3.990   6.565
10831TIP3   OH232435   7.547   1.951   5.536
10831TIP3    H132436   7.546   1.859   5.563
10831TIP3    H232437   7.629   1.985   5.570
10832TIP3   OH232438   6.139   5.159   2.291
10832TIP3    H132439   6.223   5.116   2.309
10832TIP3    H232440   6.157   5.252   2.303
10833TIP3   OH232441   2.218   1.136   2.134
10833TIP3    H132442   2.290   1.077   2.159
10833TIP3    H232443   2.181   1.096   2.056
10834TIP3   OH232444   2.481   7.698   2.980
10834TIP3    H132445   2.442   7.717   2.895
10834TIP3    H232446   2.562   7.650   2.960
10835TIP3   OH232447   5.871   0.880   0.390
10835TIP3    H132448   5.807   0.810   0.381
10835TIP3    H232449   5.955   0.835   0.397
10836TIP3   OH232450   3.990   0.326   3.439
10836TIP3    H132451   3.906   0.280   3.443
10836TIP3    H232452   4.034   0.289   3.362
10837TIP3   OH232453   3.107   0.019   4.271
10837TIP3    H132454   3.165  -0.041   4.225
10837TIP3    H232455   3.161   0.060   4.338
10838TIP3   OH232456   3.617   3.867   1.237
10838TIP3    H132457   3.690   3.864   1.175
10838TIP3    H232458   3.655   3.843   1.321
10839TIP3   OH232459   0.232   7.392   6.128
10839TIP3    H132460   0.297   7.323   6.124
10839TIP3    H232461   0.235   7.423   6.218
10840TIP3   OH232462   4.073   5.854   0.344
10840TIP3    H132463   4.052   5.790   0.412
10840TIP3    H232464   4.056   5.939   0.385
10841TIP3   OH232465   1.595   7.652   2.973
10841TIP3    H132466   1.610   7.718   2.905
10841TIP3    H232467   1.599   7.569   2.927
10842TIP3   OH232468   3.383   7.563   4.453
10842TIP3    H132469   3.423   7.619   4.386
10842TIP3    H232470   3.338   7.624   4.512
10843TIP3   OH232471   3.118   3.999   4.224
10843TIP3    H132472   3.159   4.045   4.297
10843TIP3    H232473   3.040   3.958   4.263
10844TIP3   OH232474   7.658   4.374   0.220
10844TIP3    H132475   7.730   4.339   0.168
10844TIP3    H232476   7.692   4.375   0.310
10845TIP3   OH232477   3.982   0.160   6.502
10845TIP3    H132478   3.999   0.254   6.491
10845TIP3    H232479   3.912   0.141   6.439
10846TIP3   OH232480   6.411   7.794   6.027
10846TIP3    H132481   6.421   7.703   5.999
10846TIP3    H232482   6.327   7.821   5.991
10847TIP3   OH232483   5.223   3.741   0.192
10847TIP3    H132484   5.239   3.772   0.103
10847TIP3    H232485   5.132   3.711   0.191
10848TIP3   OH232486   5.272   1.309   5.244
10848TIP3    H132487   5.239   1.298   5.333
10848TIP3    H232488   5.198   1.286   5.188
10849TIP3   OH232489   3.224   6.795   3.959
10849TIP3    H132490   3.194   6.760   4.043
10849TIP3    H232491   3.177   6.878   3.949
10850TIP3   OH232492   7.673   3.813   3.429
10850TIP3    H132493   7.766   3.838   3.432
10850TIP3    H232494   7.643   3.823   3.520
10851TIP3   OH232495   2.293   2.556   3.146
10851TIP3    H132496   2.305   2.463   3.167
10851TIP3    H232497   2.202   2.562   3.118
10852TIP3   OH232498   0.931   2.222   2.370
10852TIP3    H132499   0.954   2.174   2.450
10852TIP3    H232500   0.876   2.161   2.320
10853TIP3   OH232501   0.576   3.449   1.218
10853TIP3    H132502   0.665   3.483   1.209
10853TIP3    H232503   0.561   3.402   1.137
10854TIP3   OH232504   8.289   6.084   0.671
10854TIP3    H132505   8.373   6.079   0.715
10854TIP3    H232506   8.230   6.032   0.726
10855TIP3   OH232507   2.852   5.124   0.671
10855TIP3    H132508   2.808   5.064   0.732
10855TIP3    H232509   2.935   5.145   0.713
10856TIP3   OH232510   7.804   5.975   0.342
10856TIP3    H132511   7.736   5.918   0.376
10856TIP3    H232512   7.844   6.015   0.419
10857TIP3   OH232513   0.971   0.514   6.507
10857TIP3    H132514   1.067   0.510   6.503
10857TIP3    H232515   0.941   0.465   6.430
10858TIP3   OH232516   2.318   4.108   0.008
10858TIP3    H132517   2.280   4.126   0.094
10858TIP3    H232518   2.411   4.127   0.018
10859TIP3   OH232519   3.465   3.623   5.893
10859TIP3    H132520   3.497   3.578   5.815
10859TIP3    H232521   3.370   3.627   5.882
10860TIP3   OH232522   6.672   0.150   2.621
10860TIP3    H132523   6.740   0.170   2.685
10860TIP3    H232524   6.592   0.185   2.660
10861TIP3   OH232525   5.050   1.523   6.002
10861TIP3    H132526   5.001   1.531   6.083
10861TIP3    H232527   5.141   1.538   6.027
10862TIP3   OH232528   4.490   2.357   4.057
10862TIP3    H132529   4.567   2.356   4.114
10862TIP3    H232530   4.526   2.343   3.969
10863TIP3   OH232531   3.059   1.091   6.782
10863TIP3    H132532   2.972   1.081   6.821
10863TIP3    H232533   3.046   1.066   6.690
10864TIP3   OH232534   4.117   6.460   1.024
10864TIP3    H132535   4.130   6.547   0.988
10864TIP3    H232536   4.160   6.463   1.110
10865TIP3   OH232537   1.591   3.574   4.351
10865TIP3    H132538   1.561   3.582   4.441
10865TIP3    H232539   1.603   3.664   4.322
10866TIP3   OH232540   1.306   4.997   5.853
10866TIP3    H132541   1.225   4.960   5.887
10866TIP3    H232542   1.279   5.074   5.803
10867TIP3   OH232543   1.952   4.485   4.551
10867TIP3    H132544   1.871   4.440   4.527
10867TIP3    H232545   1.935   4.577   4.530
10868TIP3   OH232546   6.500   6.849   0.114
10868TIP3    H132547   6.559   6.842   0.190
10868TIP3    H232548   6.559   6.854   0.039
10869TIP3   OH232549   4.951   4.710   5.141
10869TIP3    H132550   4.949   4.659   5.222
10869TIP3    H232551   4.881   4.674   5.087
10870TIP3   OH232552   6.866   6.452   5.010
10870TIP3    H132553   6.898   6.434   5.098
10870TIP3    H232554   6.944   6.457   4.956
10871TIP3   OH232555   0.132   4.181   0.656
10871TIP3    H132556   0.072   4.163   0.584
10871TIP3    H232557   0.201   4.236   0.618
10872TIP3   OH232558   0.426   0.832   4.340
10872TIP3    H132559   0.508   0.803   4.379
10872TIP3    H232560   0.446   0.845   4.247
10873TIP3   OH232561   6.609   7.382   2.796
10873TIP3    H132562   6.646   7.321   2.860
10873TIP3    H232563   6.518   7.394   2.825
10874TIP3   OH232564   1.803   5.654   4.527
10874TIP3    H132565   1.865   5.726   4.537
10874TIP3    H232566   1.795   5.617   4.615
10875TIP3   OH232567   1.781   7.643   3.724
10875TIP3    H132568   1.745   7.681   3.804
10875TIP3    H232569   1.828   7.714   3.681
10876TIP3   OH232570   5.324   4.808   0.524
10876TIP3    H132571   5.300   4.835   0.613
10876TIP3    H232572   5.266   4.734   0.505
10877TIP3   OH232573   0.362   1.218   4.580
10877TIP3    H132574   0.366   1.160   4.657
10877TIP3    H232575   0.300   1.287   4.605
10878TIP3   OH232576   4.149   6.679   2.137
10878TIP3    H132577   4.105   6.735   2.201
10878TIP3    H232578   4.078   6.643   2.084
10879TIP3   OH232579   4.952   5.530   5.465
10879TIP3    H132580   4.990   5.475   5.397
10879TIP3    H232581   4.885   5.475   5.506
10880TIP3   OH232582   4.382   1.445   5.930
10880TIP3    H132583   4.322   1.479   5.996
10880TIP3    H232584   4.332   1.450   5.848
10881TIP3   OH232585   3.662   0.317   6.053
10881TIP3    H132586   3.644   0.229   6.088
10881TIP3    H232587   3.679   0.370   6.131
10882TIP3   OH232588   3.293   0.287   2.138
10882TIP3    H132589   3.220   0.240   2.098
10882TIP3    H232590   3.301   0.368   2.087
10883TIP3   OH232591   0.997   7.300   1.335
10883TIP3    H132592   1.014   7.270   1.245
10883TIP3    H232593   1.019   7.225   1.390
10884TIP3   OH232594   1.968   1.576   0.854
10884TIP3    H132595   2.017   1.503   0.894
10884TIP3    H232596   2.031   1.647   0.849
10885TIP3   OH232597   1.332   7.183   1.911
10885TIP3    H132598   1.381   7.144   1.840
10885TIP3    H232599   1.358   7.275   1.911
10886TIP3   OH232600   1.567   2.058   1.022
10886TIP3    H132601   1.516   2.063   1.103
10886TIP3    H232602   1.653   2.093   1.045
10887TIP3   OH232603   5.383   2.748   0.359
10887TIP3    H132604   5.330   2.809   0.411
10887TIP3    H232605   5.430   2.804   0.298
10888TIP3   OH232606   1.327   5.972   5.528
10888TIP3    H132607   1.385   6.037   5.489
10888TIP3    H232608   1.244   5.983   5.483
10889TIP3   OH232609   0.502   3.004   1.844
10889TIP3    H132610   0.585   3.041   1.873
10889TIP3    H232611   0.472   2.951   1.918
10890TIP3   OH232612   5.267   4.824   2.606
10890TIP3    H132613   5.187   4.877   2.612
10890TIP3    H232614   5.333   4.874   2.654
10891TIP3   OH232615   1.179   6.655   4.751
10891TIP3    H132616   1.273   6.651   4.768
10891TIP3    H232617   1.140   6.681   4.834
10892TIP3   OH232618   1.574   0.689   5.391
10892TIP3    H132619   1.619   0.723   5.469
10892TIP3    H232620   1.640   0.695   5.321
10893TIP3   OH232621   2.909   3.071   4.923
10893TIP3    H132622   2.873   3.017   4.994
10893TIP3    H232623   2.996   3.096   4.955
10894TIP3   OH232624   4.330   5.507   5.671
10894TIP3    H132625   4.265   5.544   5.610
10894TIP3    H232626   4.314   5.413   5.668
10895TIP3   OH232627   0.777   1.170   3.022
10895TIP3    H132628   0.862   1.154   3.064
10895TIP3    H232629   0.716   1.180   3.095
10896TIP3   OH232630   5.425   0.543   1.364
10896TIP3    H132631   5.415   0.621   1.420
10896TIP3    H232632   5.447   0.578   1.278
10897TIP3   OH232633   2.883   4.402   4.936
10897TIP3    H132634   2.870   4.491   4.970
10897TIP3    H232635   2.956   4.367   4.986
10898TIP3   OH232636   2.065   3.061   3.650
10898TIP3    H132637   1.984   3.023   3.684
10898TIP3    H232638   2.046   3.082   3.559
10899TIP3   OH232639   1.898   6.213   2.106
10899TIP3    H132640   1.840   6.150   2.149
10899TIP3    H232641   1.884   6.199   2.013
10900TIP3   OH232642   6.146   0.212   2.915
10900TIP3    H132643   6.152   0.225   2.821
10900TIP3    H232644   6.210   0.143   2.934
10901TIP3   OH232645   7.413   2.996   3.958
10901TIP3    H132646   7.445   3.017   3.870
10901TIP3    H232647   7.358   2.918   3.946
10902TIP3   OH232648   8.214   7.825   6.224
10902TIP3    H132649   8.179   7.792   6.307
10902TIP3    H232650   8.297   7.778   6.213
10903TIP3   OH232651   6.504   7.810   4.716
10903TIP3    H132652   6.538   7.861   4.789
10903TIP3    H232653   6.502   7.720   4.748
10904TIP3   OH232654   4.973   2.670   0.175
10904TIP3    H132655   5.011   2.685   0.088
10904TIP3    H232656   5.028   2.602   0.214
10905TIP3   OH232657   0.911   0.732   1.071
10905TIP3    H132658   0.849   0.661   1.055
10905TIP3    H232659   0.885   0.801   1.010
10906TIP3   OH232660   1.568   0.373   5.366
10906TIP3    H132661   1.620   0.345   5.442
10906TIP3    H232662   1.564   0.468   5.374
10907TIP3   OH232663   6.766   3.027   6.251
10907TIP3    H132664   6.754   2.938   6.285
10907TIP3    H232665   6.704   3.032   6.178
10908TIP3   OH232666   5.977   5.279   0.740
10908TIP3    H132667   5.934   5.196   0.761
10908TIP3    H232668   6.069   5.256   0.724
10909TIP3   OH232669   3.811   5.374   6.581
10909TIP3    H132670   3.718   5.369   6.559
10909TIP3    H232671   3.841   5.455   6.539
10910TIP3   OH232672   5.769   4.193   4.801
10910TIP3    H132673   5.829   4.239   4.859
10910TIP3    H232674   5.814   4.190   4.716
10911TIP3   OH232675   5.269   2.206   0.751
10911TIP3    H132676   5.302   2.117   0.739
10911TIP3    H232677   5.227   2.228   0.668
10912TIP3   OH232678   4.358   6.014   5.284
10912TIP3    H132679   4.313   5.930   5.277
10912TIP3    H232680   4.397   6.028   5.198
10913TIP3   OH232681   7.748   4.506   6.076
10913TIP3    H132682   7.762   4.448   6.001
10913TIP3    H232683   7.830   4.554   6.084
10914TIP3   OH232684   3.858   5.736   2.359
10914TIP3    H132685   3.934   5.746   2.417
10914TIP3    H232686   3.833   5.644   2.367
10915TIP3   OH232687   4.001   0.560   5.907
10915TIP3    H132688   3.957   0.517   5.834
10915TIP3    H232689   4.031   0.488   5.963
10916TIP3   OH232690   0.211   3.027   3.020
10916TIP3    H132691   0.192   3.020   2.927
10916TIP3    H232692   0.193   2.940   3.055
10917TIP3   OH232693   2.949   5.294   1.200
10917TIP3    H132694   2.968   5.299   1.107
10917TIP3    H232695   3.017   5.348   1.242
10918TIP3   OH232696   0.019   5.389   6.049
10918TIP3    H132697   0.071   5.423   6.122
10918TIP3    H232698   0.084   5.365   5.983
10919TIP3   OH232699   7.240   2.445   0.979
10919TIP3    H132700   7.207   2.532   0.959
10919TIP3    H232701   7.321   2.438   0.929
10920TIP3   OH232702   0.072   0.205   3.983
10920TIP3    H132703   0.067   0.281   3.924
10920TIP3    H232704   0.164   0.201   4.008
10921TIP3   OH232705   6.369   2.980   0.382
10921TIP3    H132706   6.282   2.960   0.417
10921TIP3    H232707   6.353   3.003   0.291
10922TIP3   OH232708   4.174   3.926   0.622
10922TIP3    H132709   4.119   4.003   0.606
10922TIP3    H232710   4.119   3.866   0.673
10923TIP3   OH232711   3.758   5.205   2.750
10923TIP3    H132712   3.773   5.300   2.758
10923TIP3    H232713   3.685   5.198   2.688
10924TIP3   OH232714   3.383   4.315   6.499
10924TIP3    H132715   3.448   4.327   6.568
10924TIP3    H232716   3.327   4.393   6.503
10925TIP3   OH232717   3.931   0.589   3.950
10925TIP3    H132718   3.952   0.640   3.872
10925TIP3    H232719   3.926   0.654   4.020
10926TIP3   OH232720   0.776   7.448   0.186
10926TIP3    H132721   0.870   7.439   0.194
10926TIP3    H232722   0.741   7.359   0.195
10927TIP3   OH232723   1.951   6.823   3.544
10927TIP3    H132724   1.920   6.736   3.568
10927TIP3    H232725   1.965   6.818   3.450
10928TIP3   OH232726   1.703   1.434   0.311
10928TIP3    H132727   1.635   1.487   0.268
10928TIP3    H232728   1.746   1.496   0.371
10929TIP3   OH232729   3.029   2.607   0.685
10929TIP3    H132730   3.099   2.557   0.725
10929TIP3    H232731   3.066   2.693   0.667
10930TIP3   OH232732   2.503   6.579   5.570
10930TIP3    H132733   2.426   6.553   5.621
10930TIP3    H232734   2.574   6.527   5.607
10931TIP3   OH232735   3.001   7.142   4.116
10931TIP3    H132736   2.954   7.175   4.193
10931TIP3    H232737   3.093   7.158   4.135
10932TIP3   OH232738   3.837   4.798   5.176
10932TIP3    H132739   3.927   4.827   5.161
10932TIP3    H232740   3.791   4.875   5.209
10933TIP3   OH232741   0.088   0.469   5.612
10933TIP3    H132742   0.103   0.376   5.599
10933TIP3    H232743   0.115   0.510   5.530
10934TIP3   OH232744   7.891   3.436   4.053
10934TIP3    H132745   7.878   3.446   3.958
10934TIP3    H232746   7.835   3.502   4.092
10935TIP3   OH232747   7.865   4.842   4.772
10935TIP3    H132748   7.910   4.924   4.753
10935TIP3    H232749   7.860   4.838   4.867
10936TIP3   OH232750   6.836   1.967   2.634
10936TIP3    H132751   6.765   2.031   2.632
10936TIP3    H232752   6.792   1.882   2.641
10937TIP3   OH232753   7.705   3.180   0.478
10937TIP3    H132754   7.767   3.252   0.478
10937TIP3    H232755   7.753   3.106   0.440
10938TIP3   OH232756   7.857   5.192   1.861
10938TIP3    H132757   7.907   5.123   1.816
10938TIP3    H232758   7.814   5.240   1.790
10939TIP3   OH232759   7.392   6.152   6.530
10939TIP3    H132760   7.447   6.121   6.601
10939TIP3    H232761   7.317   6.091   6.529
10940TIP3   OH232762   3.788   3.264   4.792
10940TIP3    H132763   3.829   3.279   4.707
10940TIP3    H232764   3.853   3.211   4.840
10941TIP3   OH232765   6.112   3.165   6.412
10941TIP3    H132766   6.184   3.104   6.393
10941TIP3    H232767   6.037   3.109   6.431
10942TIP3   OH232768   3.120   1.514   1.593
10942TIP3    H132769   3.094   1.576   1.524
10942TIP3    H232770   3.066   1.539   1.668
10943TIP3   OH232771   2.293   3.433   1.455
10943TIP3    H132772   2.315   3.525   1.436
10943TIP3    H232773   2.268   3.433   1.547
10944TIP3   OH232774   2.304   6.150   0.218
10944TIP3    H132775   2.275   6.097   0.292
10944TIP3    H232776   2.372   6.207   0.255
10945TIP3   OH232777   3.349   3.145   3.699
10945TIP3    H132778   3.328   3.094   3.621
10945TIP3    H232779   3.345   3.081   3.771
10946TIP3   OH232780   4.483   7.069   3.490
10946TIP3    H132781   4.430   7.063   3.411
10946TIP3    H232782   4.484   6.979   3.524
10947TIP3   OH232783   2.295   0.499   2.153
10947TIP3    H132784   2.221   0.526   2.206
10947TIP3    H232785   2.289   0.403   2.149
10948TIP3   OH232786   0.376   3.343   3.041
10948TIP3    H132787   0.399   3.320   2.951
10948TIP3    H232788   0.300   3.402   3.032
10949TIP3   OH232789   0.589   1.826   4.219
10949TIP3    H132790   0.501   1.850   4.190
10949TIP3    H232791   0.637   1.909   4.221
10950TIP3   OH232792   0.532   6.549   5.751
10950TIP3    H132793   0.495   6.466   5.783
10950TIP3    H232794   0.529   6.542   5.656
10951TIP3   OH232795   7.257   6.205   2.581
10951TIP3    H132796   7.243   6.232   2.491
10951TIP3    H232797   7.305   6.278   2.621
10952TIP3   OH232798   7.868   0.474   1.852
10952TIP3    H132799   7.786   0.426   1.869
10952TIP3    H232800   7.934   0.405   1.845
10953TIP3   OH232801   5.740   4.228   2.057
10953TIP3    H132802   5.681   4.297   2.086
10953TIP3    H232803   5.766   4.184   2.138
10954TIP3   OH232804   5.680   6.173   6.312
10954TIP3    H132805   5.755   6.116   6.330
10954TIP3    H232806   5.604   6.118   6.330
10955TIP3   OH232807   6.732   2.541   0.473
10955TIP3    H132808   6.688   2.467   0.431
10955TIP3    H232809   6.815   2.505   0.503
10956TIP3   OH232810   3.667   7.387   1.017
10956TIP3    H132811   3.597   7.396   1.082
10956TIP3    H232812   3.694   7.477   0.999
10957TIP3   OH232813   7.896   1.407   4.993
10957TIP3    H132814   7.829   1.448   5.048
10957TIP3    H232815   7.852   1.331   4.954
10958TIP3   OH232816   4.029   1.449   0.661
10958TIP3    H132817   4.083   1.371   0.646
10958TIP3    H232818   3.939   1.416   0.662
10959TIP3   OH232819   6.812   2.690   0.709
10959TIP3    H132820   6.798   2.607   0.755
10959TIP3    H232821   6.764   2.679   0.627
10960TIP3   OH232822   7.563   7.079   4.435
10960TIP3    H132823   7.614   7.137   4.379
10960TIP3    H232824   7.617   7.000   4.443
10961TIP3   OH232825   0.642   6.465   0.611
10961TIP3    H132826   0.667   6.449   0.520
10961TIP3    H232827   0.709   6.419   0.662
10962TIP3   OH232828   8.057   2.399   4.088
10962TIP3    H132829   8.031   2.307   4.091
10962TIP3    H232830   8.060   2.420   3.995
10963TIP3   OH232831   8.103   4.822   4.516
10963TIP3    H132832   8.110   4.816   4.611
10963TIP3    H232833   8.167   4.888   4.491
10964TIP3   OH232834   6.875   3.050   1.975
10964TIP3    H132835   6.830   2.968   1.951
10964TIP3    H232836   6.955   3.021   2.019
10965TIP3   OH232837   7.561   4.103   3.368
10965TIP3    H132838   7.495   4.061   3.313
10965TIP3    H232839   7.623   4.033   3.389
10966TIP3   OH232840   1.783   1.070   3.321
10966TIP3    H132841   1.764   1.087   3.414
10966TIP3    H232842   1.784   0.974   3.314
10967TIP3   OH232843   0.346   4.286   0.881
10967TIP3    H132844   0.356   4.321   0.793
10967TIP3    H232845   0.435   4.277   0.914
10968TIP3   OH232846   7.325   4.854   4.025
10968TIP3    H132847   7.276   4.877   4.104
10968TIP3    H232848   7.407   4.818   4.058
10969TIP3   OH232849   2.659   3.561   0.367
10969TIP3    H132850   2.738   3.509   0.385
10969TIP3    H232851   2.630   3.591   0.452
10970TIP3   OH232852   0.459   0.724   5.258
10970TIP3    H132853   0.473   0.631   5.236
10970TIP3    H232854   0.534   0.747   5.313
10971TIP3   OH232855   7.857   5.906   1.669
10971TIP3    H132856   7.852   5.997   1.700
10971TIP3    H232857   7.777   5.895   1.618
10972TIP3   OH232858   5.825   6.123   4.163
10972TIP3    H132859   5.859   6.172   4.238
10972TIP3    H232860   5.832   6.183   4.089
10973TIP3   OH232861   5.595   1.849   5.518
10973TIP3    H132862   5.613   1.794   5.442
10973TIP3    H232863   5.517   1.899   5.494
10974TIP3   OH232864   2.690   7.348   4.570
10974TIP3    H132865   2.686   7.443   4.582
10974TIP3    H232866   2.662   7.311   4.653
10975TIP3   OH232867   6.690   6.390   4.310
10975TIP3    H132868   6.639   6.394   4.390
10975TIP3    H232869   6.634   6.431   4.244
10976TIP3   OH232870   7.769   0.676   4.540
10976TIP3    H132871   7.717   0.752   4.565
10976TIP3    H232872   7.852   0.688   4.584
10977TIP3   OH232873   4.858   3.103   4.902
10977TIP3    H132874   4.826   3.088   4.813
10977TIP3    H232875   4.946   3.065   4.903
10978TIP3   OH232876   7.109   2.026   6.218
10978TIP3    H132877   7.118   2.063   6.130
10978TIP3    H232878   7.182   1.965   6.227
10979TIP3   OH232879   3.442   2.174   6.474
10979TIP3    H132880   3.434   2.089   6.518
10979TIP3    H232881   3.413   2.156   6.384
10980TIP3   OH232882   2.283   5.604   3.897
10980TIP3    H132883   2.277   5.510   3.914
10980TIP3    H232884   2.201   5.640   3.932
10981TIP3   OH232885   2.869   1.721   3.608
10981TIP3    H132886   2.822   1.694   3.529
10981TIP3    H232887   2.955   1.681   3.600
10982TIP3   OH232888   4.373   4.699   1.433
10982TIP3    H132889   4.291   4.675   1.390
10982TIP3    H232890   4.347   4.752   1.507
10983TIP3   OH232891   6.371   6.022   5.045
10983TIP3    H132892   6.314   6.099   5.038
10983TIP3    H232893   6.351   5.986   5.132
10984TIP3   OH232894   2.589   4.679   1.719
10984TIP3    H132895   2.617   4.701   1.630
10984TIP3    H232896   2.576   4.584   1.718
10985TIP3   OH232897   5.146   3.355   4.117
10985TIP3    H132898   5.237   3.375   4.137
10985TIP3    H232899   5.096   3.400   4.184
10986TIP3   OH232900   4.290   1.465   1.622
10986TIP3    H132901   4.350   1.429   1.687
10986TIP3    H232902   4.329   1.549   1.597
10987TIP3   OH232903   3.007   7.707   6.158
10987TIP3    H132904   2.920   7.669   6.170
10987TIP3    H232905   3.037   7.726   6.247
10988TIP3   OH232906   3.057   4.229   5.509
10988TIP3    H132907   3.015   4.143   5.515
10988TIP3    H232908   2.985   4.290   5.493
10989TIP3   OH232909   5.449   5.319   6.609
10989TIP3    H132910   5.439   5.249   6.674
10989TIP3    H232911   5.368   5.319   6.560
10990TIP3   OH232912   5.442   0.472   0.428
10990TIP3    H132913   5.461   0.460   0.334
10990TIP3    H232914   5.420   0.384   0.459
10991TIP3   OH232915   7.005   1.414   0.506
10991TIP3    H132916   6.988   1.506   0.483
10991TIP3    H232917   6.919   1.380   0.530
10992TIP3   OH232918   1.226   2.403   5.447
10992TIP3    H132919   1.142   2.446   5.459
10992TIP3    H232920   1.277   2.429   5.524
10993TIP3   OH232921   6.628   4.850   6.019
10993TIP3    H132922   6.591   4.851   5.930
10993TIP3    H232923   6.679   4.931   6.024
10994TIP3   OH232924   4.022   7.205   1.670
10994TIP3    H132925   3.939   7.236   1.633
10994TIP3    H232926   3.996   7.158   1.749
10995TIP3   OH232927   5.307   6.274   2.276
10995TIP3    H132928   5.283   6.190   2.234
10995TIP3    H232929   5.230   6.329   2.263
10996TIP3   OH232930   5.897   3.680   1.842
10996TIP3    H132931   5.971   3.620   1.828
10996TIP3    H232932   5.846   3.673   1.762
10997TIP3   OH232933   1.086   0.142   0.421
10997TIP3    H132934   1.064   0.049   0.422
10997TIP3    H232935   1.180   0.143   0.400
10998TIP3   OH232936   6.174   3.984   6.105
10998TIP3    H132937   6.242   3.991   6.038
10998TIP3    H232938   6.222   3.989   6.188
10999TIP3   OH232939   2.614   2.906   6.597
10999TIP3    H132940   2.540   2.845   6.604
10999TIP3    H232941   2.609   2.959   6.676
11000TIP3   OH232942   0.601   5.015   0.889
11000TIP3    H132943   0.510   4.995   0.870
11000TIP3    H232944   0.641   5.027   0.803
11001TIP3   OH232945   3.057   1.507   1.303
11001TIP3    H132946   3.008   1.586   1.324
11001TIP3    H232947   3.026   1.482   1.216
11002TIP3   OH232948   7.038   3.892   6.504
11002TIP3    H132949   6.999   3.887   6.592
11002TIP3    H232950   7.114   3.949   6.515
11003TIP3   OH232951   1.445   4.121   5.180
11003TIP3    H132952   1.441   4.216   5.168
11003TIP3    H232953   1.431   4.107   5.273
11004TIP3   OH232954   4.053   2.801   5.213
11004TIP3    H132955   4.040   2.771   5.123
11004TIP3    H232956   4.138   2.764   5.238
11005TIP3   OH232957   4.928   4.723   4.640
11005TIP3    H132958   4.886   4.650   4.595
11005TIP3    H232959   4.876   4.800   4.615
11006TIP3   OH232960   6.549   7.597   0.076
11006TIP3    H132961   6.456   7.607   0.059
11006TIP3    H232962   6.556   7.594   0.172
11007TIP3   OH232963   4.844   2.145   2.809
11007TIP3    H132964   4.898   2.147   2.730
11007TIP3    H232965   4.907   2.129   2.880
11008TIP3   OH232966   2.020   2.046   0.525
11008TIP3    H132967   2.068   2.014   0.449
11008TIP3    H232968   2.015   2.141   0.513
11009TIP3   OH232969   4.727   6.533   3.573
11009TIP3    H132970   4.771   6.584   3.505
11009TIP3    H232971   4.779   6.551   3.652
11010TIP3   OH232972   7.329   6.975   4.245
11010TIP3    H132973   7.293   6.915   4.311
11010TIP3    H232974   7.408   7.010   4.286
11011TIP3   OH232975   6.307   3.361   3.340
11011TIP3    H132976   6.329   3.416   3.265
11011TIP3    H232977   6.385   3.308   3.355
11012TIP3   OH232978   7.520   4.546   5.078
11012TIP3    H132979   7.591   4.581   5.132
11012TIP3    H232980   7.500   4.461   5.117
11013TIP3   OH232981   2.002   0.288   4.957
11013TIP3    H132982   1.948   0.270   5.034
11013TIP3    H232983   1.994   0.209   4.903
11014TIP3   OH232984   1.578   3.178   2.992
11014TIP3    H132985   1.490   3.200   3.022
11014TIP3    H232986   1.564   3.130   2.910
11015TIP3   OH232987   1.834   3.492   1.330
11015TIP3    H132988   1.796   3.409   1.299
11015TIP3    H232989   1.923   3.469   1.356
11016TIP3   OH232990   2.282   7.532   5.995
11016TIP3    H132991   2.224   7.607   6.006
11016TIP3    H232992   2.227   7.456   6.013
11017TIP3   OH232993   1.992   1.700   5.189
11017TIP3    H132994   2.041   1.767   5.142
11017TIP3    H232995   1.901   1.732   5.190
11018TIP3   OH232996   0.297   4.260   0.209
11018TIP3    H132997   0.221   4.318   0.210
11018TIP3    H232998   0.275   4.192   0.146
11019TIP3   OH232999   7.336   5.147   6.600
11019TIP3    H133000   7.255   5.188   6.631
11019TIP3    H233001   7.329   5.150   6.505
11020TIP3   OH233002   7.860   5.480   2.937
11020TIP3    H133003   7.912   5.403   2.913
11020TIP3    H233004   7.769   5.452   2.927
11021TIP3   OH233005   7.109   2.160   0.130
11021TIP3    H133006   7.112   2.065   0.129
11021TIP3    H233007   7.052   2.182   0.204
11022TIP3   OH233008   6.933   7.501   4.977
11022TIP3    H133009   6.900   7.436   4.915
11022TIP3    H233010   6.855   7.552   5.001
11023TIP3   OH233011   7.237   3.345   1.945
11023TIP3    H133012   7.240   3.441   1.942
11023TIP3    H233013   7.315   3.317   1.898
11024TIP3   OH233014   3.544   6.893   6.262
11024TIP3    H133015   3.463   6.941   6.251
11024TIP3    H233016   3.594   6.944   6.326
11025TIP3   OH233017   6.897   0.483   2.888
11025TIP3    H133018   6.987   0.491   2.922
11025TIP3    H233019   6.845   0.538   2.946
11026TIP3   OH233020   0.119   7.014   3.137
11026TIP3    H133021   0.145   6.950   3.203
11026TIP3    H233022   0.196   7.069   3.125
11027TIP3   OH233023   1.220   1.618   3.312
11027TIP3    H133024   1.199   1.683   3.380
11027TIP3    H233025   1.279   1.556   3.355
11028TIP3   OH233026   0.523   1.134   1.566
11028TIP3    H133027   0.467   1.167   1.496
11028TIP3    H233028   0.511   1.196   1.638
11029TIP3   OH233029   3.998   6.842   5.818
11029TIP3    H133030   4.037   6.929   5.828
11029TIP3    H233031   4.044   6.788   5.881
11030TIP3   OH233032   1.516   2.308   5.853
11030TIP3    H133033   1.601   2.285   5.815
11030TIP3    H233034   1.460   2.233   5.835
11031TIP3   OH233035   8.085   1.515   3.940
11031TIP3    H133036   8.084   1.441   3.879
11031TIP3    H233037   8.087   1.474   4.026
11032TIP3   OH233038   0.260   2.915   1.356
11032TIP3    H133039   0.322   2.971   1.309
11032TIP3    H233040   0.202   2.976   1.401
11033TIP3   OH233041   1.461   4.545   0.892
11033TIP3    H133042   1.532   4.579   0.946
11033TIP3    H233043   1.457   4.604   0.817
11034TIP3   OH233044   4.803   3.584   3.561
11034TIP3    H133045   4.730   3.555   3.614
11034TIP3    H233046   4.859   3.507   3.552
11035TIP3   OH233047   4.214   3.470   2.897
11035TIP3    H133048   4.294   3.512   2.929
11035TIP3    H233049   4.221   3.476   2.802
11036TIP3   OH233050   0.663   2.161   6.137
11036TIP3    H133051   0.663   2.243   6.185
11036TIP3    H233052   0.662   2.186   6.045
11037TIP3   OH233053   7.610   6.537   1.171
11037TIP3    H133054   7.579   6.619   1.132
11037TIP3    H233055   7.530   6.486   1.186
11038TIP3   OH233056   5.855   7.338   4.936
11038TIP3    H133057   5.807   7.276   4.882
11038TIP3    H233058   5.815   7.331   5.023
11039TIP3   OH233059   7.841   0.154   1.989
11039TIP3    H133060   7.798   0.071   2.007
11039TIP3    H233061   7.781   0.220   2.021
11040TIP3   OH233062   7.764   5.595   1.939
11040TIP3    H133063   7.820   5.585   1.862
11040TIP3    H233064   7.696   5.656   1.912
11041TIP3   OH233065   1.194   4.395   2.481
11041TIP3    H133066   1.181   4.327   2.547
11041TIP3    H233067   1.121   4.384   2.421
11042TIP3   OH233068   4.716   5.789   4.581
11042TIP3    H133069   4.626   5.781   4.549
11042TIP3    H233070   4.763   5.718   4.538
11043TIP3   OH233071   3.915   1.553   4.518
11043TIP3    H133072   4.003   1.580   4.544
11043TIP3    H233073   3.866   1.635   4.509
11044TIP3   OH233074   3.549   6.510   0.779
11044TIP3    H133075   3.495   6.465   0.714
11044TIP3    H233076   3.636   6.515   0.740
11045TIP3   OH233077   7.808   4.183   1.384
11045TIP3    H133078   7.852   4.208   1.302
11045TIP3    H233079   7.721   4.223   1.377
11046TIP3   OH233080   3.890   2.619   6.338
11046TIP3    H133081   3.836   2.625   6.416
11046TIP3    H233082   3.966   2.675   6.356
11047TIP3   OH233083   6.064   2.020   4.715
11047TIP3    H133084   5.977   1.982   4.718
11047TIP3    H233085   6.106   1.977   4.641
11048TIP3   OH233086   2.264   1.426   0.189
11048TIP3    H133087   2.254   1.361   0.119
11048TIP3    H233088   2.299   1.504   0.144
11049TIP3   OH233089   2.317   5.106   0.856
11049TIP3    H133090   2.346   5.056   0.780
11049TIP3    H233091   2.389   5.166   0.875
11050TIP3   OH233092   1.097   7.599   6.455
11050TIP3    H133093   1.107   7.616   6.548
11050TIP3    H233094   1.182   7.623   6.417
11051TIP3   OH233095   4.885   2.763   3.337
11051TIP3    H133096   4.978   2.747   3.322
11051TIP3    H233097   4.880   2.789   3.429
11052TIP3   OH233098   8.004   1.080   2.243
11052TIP3    H133099   8.042   1.112   2.324
11052TIP3    H233100   7.958   1.156   2.206
11053TIP3   OH233101   7.960   4.018   5.311
11053TIP3    H133102   7.871   4.039   5.340
11053TIP3    H233103   7.995   4.101   5.279
11054TIP3   OH233104   0.203   2.772   0.876
11054TIP3    H133105   0.121   2.821   0.880
11054TIP3    H233106   0.180   2.684   0.905
11055TIP3   OH233107   8.081   1.772   1.349
11055TIP3    H133108   8.156   1.777   1.408
11055TIP3    H233109   8.097   1.696   1.295
11056TIP3   OH233110   6.482   2.342   6.457
11056TIP3    H133111   6.486   2.303   6.369
11056TIP3    H233112   6.389   2.341   6.480
11057TIP3   OH233113   3.466   5.268   1.181
11057TIP3    H133114   3.522   5.343   1.201
11057TIP3    H233115   3.409   5.259   1.257
11058TIP3   OH233116   4.958   1.028   4.403
11058TIP3    H133117   5.053   1.037   4.395
11058TIP3    H233118   4.938   0.948   4.353
11059TIP3   OH233119   6.674   2.911   5.132
11059TIP3    H133120   6.766   2.900   5.109
11059TIP3    H233121   6.637   2.823   5.126
11060TIP3   OH233122   3.480   6.346   3.562
11060TIP3    H133123   3.502   6.346   3.469
11060TIP3    H233124   3.519   6.265   3.596
11061TIP3   OH233125   0.604   7.149   6.484
11061TIP3    H133126   0.558   7.160   6.567
11061TIP3    H233127   0.689   7.193   6.497
11062TIP3   OH233128   1.687   3.907   4.587
11062TIP3    H133129   1.704   3.829   4.640
11062TIP3    H233130   1.594   3.924   4.600
11063TIP3   OH233131   4.678   3.184   1.207
11063TIP3    H133132   4.719   3.269   1.193
11063TIP3    H233133   4.624   3.169   1.130
11064TIP3   OH233134   8.150   5.706   4.137
11064TIP3    H133135   8.131   5.678   4.047
11064TIP3    H233136   8.213   5.777   4.127
11065TIP3   OH233137   1.722   1.167   5.956
11065TIP3    H133138   1.744   1.127   5.872
11065TIP3    H233139   1.789   1.234   5.969
11066TIP3   OH233140   0.199   5.162   1.898
11066TIP3    H133141   0.262   5.145   1.968
11066TIP3    H233142   0.207   5.087   1.839
11067TIP3   OH233143   5.400   5.380   5.989
11067TIP3    H133144   5.407   5.322   6.065
11067TIP3    H233145   5.407   5.468   6.026
11068TIP3   OH233146   3.979   3.656   2.345
11068TIP3    H133147   4.030   3.732   2.317
11068TIP3    H233148   3.907   3.692   2.397
11069TIP3   OH233149   5.252   4.548   0.951
11069TIP3    H133150   5.221   4.619   0.896
11069TIP3    H233151   5.304   4.590   1.019
11070TIP3   OH233152   2.022   1.171   3.173
11070TIP3    H133153   2.078   1.103   3.210
11070TIP3    H233154   1.933   1.140   3.189
11071TIP3   OH233155   5.880   5.273   0.007
11071TIP3    H133156   5.886   5.179  -0.010
11071TIP3    H233157   5.799   5.283   0.058
11072TIP3   OH233158   4.772   5.279   0.712
11072TIP3    H133159   4.743   5.344   0.776
11072TIP3    H233160   4.836   5.326   0.658
11073TIP3   OH233161   3.975   1.388   3.686
11073TIP3    H133162   3.947   1.405   3.776
11073TIP3    H233163   4.071   1.398   3.688
11074TIP3   OH233164   5.991   0.999   0.950
11074TIP3    H133165   6.011   0.978   1.041
11074TIP3    H233166   5.911   0.950   0.932
11075TIP3   OH233167   5.968   5.005   3.786
11075TIP3    H133168   5.966   5.067   3.859
11075TIP3    H233169   6.025   4.934   3.817
11076TIP3   OH233170   3.548   1.060   0.261
11076TIP3    H133171   3.605   1.029   0.331
11076TIP3    H233172   3.605   1.072   0.185
11077TIP3   OH233173   6.075   3.374   5.079
11077TIP3    H133174   6.007   3.396   5.143
11077TIP3    H233175   6.031   3.318   5.015
11078TIP3   OH233176   2.077   4.829   2.433
11078TIP3    H133177   2.026   4.899   2.474
11078TIP3    H233178   2.167   4.848   2.457
11079TIP3   OH233179   3.575   3.016   5.969
11079TIP3    H133180   3.585   3.050   6.058
11079TIP3    H233181   3.632   2.940   5.966
11080TIP3   OH233182   0.018   1.961   6.213
11080TIP3    H133183  -0.055   2.014   6.245
11080TIP3    H233184   0.048   1.912   6.290
11081TIP3   OH233185   4.210   6.708   4.378
11081TIP3    H133186   4.289   6.670   4.416
11081TIP3    H233187   4.149   6.715   4.451
11082TIP3   OH233188   7.881   3.539   3.797
11082TIP3    H133189   7.859   3.630   3.775
11082TIP3    H233190   7.856   3.489   3.720
11083TIP3   OH233191   0.328   1.126   4.823
11083TIP3    H133192   0.362   1.037   4.837
11083TIP3    H233193   0.237   1.121   4.852
11084TIP3   OH233194   3.851   1.940   5.168
11084TIP3    H133195   3.878   1.873   5.106
11084TIP3    H233196   3.864   1.900   5.254
11085TIP3   OH233197   7.502   0.880   1.817
11085TIP3    H133198   7.496   0.885   1.912
11085TIP3    H233199   7.557   0.803   1.800
11086TIP3   OH233200   5.068   1.118   6.156
11086TIP3    H133201   5.031   1.169   6.083
11086TIP3    H233202   5.162   1.115   6.138
11087TIP3   OH233203   2.224   3.699   1.355
11087TIP3    H133204   2.189   3.776   1.310
11087TIP3    H233205   2.318   3.714   1.359
11088TIP3   OH233206   6.377   5.151   5.257
11088TIP3    H133207   6.414   5.113   5.177
11088TIP3    H233208   6.452   5.171   5.312
11089TIP3   OH233209   5.724   6.033   1.591
11089TIP3    H133210   5.774   6.084   1.655
11089TIP3    H233211   5.645   6.007   1.637
11090TIP3   OH233212   1.837   4.437   3.916
11090TIP3    H133213   1.808   4.520   3.877
11090TIP3    H233214   1.792   4.370   3.866
11091TIP3   OH233215   6.885   4.150   5.086
11091TIP3    H133216   6.968   4.109   5.060
11091TIP3    H233217   6.907   4.241   5.102
11092TIP3   OH233218   5.352   5.524   2.261
11092TIP3    H133219   5.353   5.526   2.357
11092TIP3    H233220   5.432   5.569   2.236
11093TIP3   OH233221   5.311   0.292   4.677
11093TIP3    H133222   5.239   0.314   4.619
11093TIP3    H233223   5.303   0.353   4.750
11094TIP3   OH233224   0.860   3.636   1.247
11094TIP3    H133225   0.922   3.695   1.289
11094TIP3    H233226   0.858   3.559   1.304
11095TIP3   OH233227   4.341   7.008   2.535
11095TIP3    H133228   4.388   7.081   2.577
11095TIP3    H233229   4.250   7.020   2.560
11096TIP3   OH233230   0.351   1.228   2.909
11096TIP3    H133231   0.315   1.248   2.995
11096TIP3    H233232   0.356   1.132   2.907
11097TIP3   OH233233   5.536   0.722   1.131
11097TIP3    H133234   5.546   0.755   1.042
11097TIP3    H233235   5.455   0.761   1.162
11098TIP3   OH233236   4.368   4.629   6.762
11098TIP3    H133237   4.274   4.633   6.780
11098TIP3    H233238   4.376   4.655   6.671
11099TIP3   OH233239   5.363   3.424   0.440
11099TIP3    H133240   5.282   3.475   0.446
11099TIP3    H233241   5.351   3.352   0.501
11100TIP3   OH233242   2.017   2.992   0.223
11100TIP3    H133243   2.077   3.057   0.186
11100TIP3    H233244   2.017   3.010   0.317
11101TIP3   OH233245   2.373   5.212   5.681
11101TIP3    H133246   2.292   5.164   5.695
11101TIP3    H233247   2.370   5.238   5.589
11102TIP3   OH233248   7.910   1.951   1.224
11102TIP3    H133249   7.972   2.022   1.207
11102TIP3    H233250   7.952   1.898   1.292
11103TIP3   OH233251   5.578   5.961   1.171
11103TIP3    H133252   5.627   6.042   1.188
11103TIP3    H233253   5.561   5.925   1.258
11104TIP3   OH233254   2.839   4.373   5.430
11104TIP3    H133255   2.793   4.455   5.448
11104TIP3    H233256   2.809   4.347   5.343
11105TIP3   OH233257   1.729   0.312   4.443
11105TIP3    H133258   1.771   0.320   4.358
11105TIP3    H233259   1.656   0.252   4.429
11106TIP3   OH233260   5.786   5.921   2.869
11106TIP3    H133261   5.698   5.888   2.889
11106TIP3    H233262   5.837   5.904   2.948
11107TIP3   OH233263   3.400   2.272   1.286
11107TIP3    H133264   3.443   2.198   1.243
11107TIP3    H233265   3.367   2.235   1.369
11108TIP3   OH233266   6.116   0.206   6.353
11108TIP3    H133267   6.188   0.184   6.294
11108TIP3    H233268   6.142   0.289   6.394
11109TIP3   OH233269   5.256   7.680   3.109
11109TIP3    H133270   5.292   7.603   3.064
11109TIP3    H233271   5.219   7.733   3.039
11110TIP3   OH233272   2.822   4.807   0.234
11110TIP3    H133273   2.847   4.788   0.325
11110TIP3    H233274   2.787   4.724   0.201
11111TIP3   OH233275   7.510   0.206   0.981
11111TIP3    H133276   7.602   0.223   1.000
11111TIP3    H233277   7.465   0.287   1.007
11112TIP3   OH233278   3.199   2.979   4.391
11112TIP3    H133279   3.288   2.946   4.381
11112TIP3    H233280   3.210   3.070   4.418
11113TIP3   OH233281   3.054   6.764   3.558
11113TIP3    H133282   2.967   6.790   3.530
11113TIP3    H233283   3.042   6.725   3.644
11114TIP3   OH233284   0.599   3.011   3.187
11114TIP3    H133285   0.617   3.100   3.217
11114TIP3    H233286   0.557   2.968   3.261
11115TIP3   OH233287   4.659   7.636   0.034
11115TIP3    H133288   4.640   7.569  -0.031
11115TIP3    H233289   4.657   7.590   0.118
11116TIP3   OH233290   7.713   5.093   3.589
11116TIP3    H133291   7.711   5.001   3.563
11116TIP3    H233292   7.741   5.140   3.510
11117TIP3   OH233293   3.806   6.429   3.047
11117TIP3    H133294   3.821   6.468   3.133
11117TIP3    H233295   3.828   6.498   2.985
11118TIP3   OH233296   1.636   5.060   3.450
11118TIP3    H133297   1.653   5.035   3.541
11118TIP3    H233298   1.642   4.977   3.402
11119TIP3   OH233299   3.114   6.056   5.461
11119TIP3    H133300   3.161   6.027   5.383
11119TIP3    H233301   3.021   6.049   5.437
11120TIP3   OH233302   6.283   0.929   3.071
11120TIP3    H133303   6.207   0.871   3.075
11120TIP3    H233304   6.355   0.876   3.107
11121TIP3   OH233305   4.551   1.371   2.474
11121TIP3    H133306   4.533   1.278   2.469
11121TIP3    H233307   4.472   1.410   2.511
11122TIP3   OH233308   7.278   5.625   0.185
11122TIP3    H133309   7.316   5.592   0.104
11122TIP3    H233310   7.184   5.611   0.176
11123TIP3   OH233311   2.611   6.962   2.665
11123TIP3    H133312   2.628   7.056   2.672
11123TIP3    H233313   2.538   6.955   2.603
11124TIP3   OH233314   6.122   7.134   5.279
11124TIP3    H133315   6.121   7.043   5.251
11124TIP3    H233316   6.143   7.131   5.372
11125TIP3   OH233317   3.520   4.598   1.857
11125TIP3    H133318   3.509   4.555   1.772
11125TIP3    H233319   3.603   4.644   1.850
11126TIP3   OH233320   3.077   1.048   4.141
11126TIP3    H133321   2.990   1.010   4.155
11126TIP3    H233322   3.126   1.025   4.221
11127TIP3   OH233323   1.834   5.400   3.819
11127TIP3    H133324   1.890   5.466   3.779
11127TIP3    H233325   1.789   5.447   3.890
11128TIP3   OH233326  -0.033   6.009   1.502
11128TIP3    H133327  -0.027   5.938   1.566
11128TIP3    H233328   0.039   5.991   1.441
11129TIP3   OH233329   5.719   4.541   3.016
11129TIP3    H133330   5.752   4.615   2.966
11129TIP3    H233331   5.737   4.465   2.961
11130TIP3   OH233332   6.727   5.391   3.261
11130TIP3    H133333   6.733   5.404   3.166
11130TIP3    H233334   6.804   5.436   3.296
11131TIP3   OH233335   4.182   1.070   4.215
11131TIP3    H133336   4.176   1.060   4.120
11131TIP3    H233337   4.134   1.151   4.233
11132TIP3   OH233338   1.927   7.458   2.965
11132TIP3    H133339   1.995   7.525   2.973
11132TIP3    H233340   1.902   7.438   3.055
11133TIP3   OH233341   7.339   3.198   6.792
11133TIP3    H133342   7.429   3.166   6.793
11133TIP3    H233343   7.290   3.130   6.746
11134TIP3   OH233344   6.846   2.540   4.812
11134TIP3    H133345   6.874   2.471   4.752
11134TIP3    H233346   6.765   2.574   4.774
11135TIP3   OH233347   7.650   1.274   3.598
11135TIP3    H133348   7.612   1.245   3.515
11135TIP3    H233349   7.574   1.292   3.654
11136TIP3   OH233350   2.901   7.348   3.172
11136TIP3    H133351   2.825   7.293   3.151
11136TIP3    H233352   2.869   7.405   3.242
11137TIP3   OH233353   7.667   5.304   0.683
11137TIP3    H133354   7.600   5.242   0.655
11137TIP3    H233355   7.619   5.373   0.728
11138TIP3   OH233356   4.279   7.621   0.739
11138TIP3    H133357   4.347   7.627   0.673
11138TIP3    H233358   4.278   7.528   0.764
11139TIP3   OH233359   5.634   4.756   2.547
11139TIP3    H133360   5.669   4.837   2.508
11139TIP3    H233361   5.599   4.708   2.472
11140TIP3   OH233362   4.985   6.464   4.674
11140TIP3    H133363   4.959   6.524   4.604
11140TIP3    H233364   5.008   6.383   4.628
11141TIP3   OH233365   7.165   0.220   4.332
11141TIP3    H133366   7.255   0.222   4.365
11141TIP3    H233367   7.175   0.222   4.237
11142TIP3   OH233368   6.678   6.544   2.797
11142TIP3    H133369   6.682   6.483   2.870
11142TIP3    H233370   6.757   6.525   2.746
11143TIP3   OH233371   2.432   1.498   4.702
11143TIP3    H133372   2.509   1.451   4.670
11143TIP3    H233373   2.466   1.581   4.735
11144TIP3   OH233374   4.466   3.944   0.642
11144TIP3    H133375   4.373   3.934   0.621
11144TIP3    H233376   4.485   4.036   0.620
11145TIP3   OH233377   1.323   5.913   3.761
11145TIP3    H133378   1.256   5.971   3.725
11145TIP3    H233379   1.291   5.889   3.847
11146TIP3   OH233380   2.368   3.879   1.965
11146TIP3    H133381   2.434   3.869   2.034
11146TIP3    H233382   2.414   3.927   1.895
11147TIP3   OH233383   1.145   1.445   4.852
11147TIP3    H133384   1.232   1.476   4.828
11147TIP3    H233385   1.148   1.436   4.948
11148TIP3   OH233386   1.852   3.962   4.379
11148TIP3    H133387   1.815   3.942   4.465
11148TIP3    H233388   1.864   4.057   4.380
11149TIP3   OH233389   7.249   0.449   0.212
11149TIP3    H133390   7.265   0.485   0.125
11149TIP3    H233391   7.260   0.355   0.201
11150TIP3   OH233392   5.912   1.872   5.398
11150TIP3    H133393   5.823   1.844   5.421
11150TIP3    H233394   5.908   1.890   5.304
11151TIP3   OH233395   1.912   1.555   3.605
11151TIP3    H133396   1.993   1.542   3.557
11151TIP3    H233397   1.939   1.599   3.686
11152TIP3   OH233398   6.147   1.466   0.605
11152TIP3    H133399   6.063   1.420   0.612
11152TIP3    H233400   6.205   1.418   0.665
11153TIP3   OH233401   5.161   7.828   5.266
11153TIP3    H133402   5.158   7.819   5.361
11153TIP3    H233403   5.243   7.786   5.241
11154TIP3   OH233404   4.911   2.508   1.065
11154TIP3    H133405   4.986   2.561   1.094
11154TIP3    H233406   4.841   2.529   1.126
11155TIP3   OH233407   1.215   0.738   5.575
11155TIP3    H133408   1.254   0.735   5.662
11155TIP3    H233409   1.290   0.748   5.516
11156TIP3   OH233410   8.252   3.487   5.490
11156TIP3    H133411   8.257   3.393   5.510
11156TIP3    H233412   8.180   3.494   5.427
11157TIP3   OH233413   6.863   3.928   2.906
11157TIP3    H133414   6.792   3.906   2.966
11157TIP3    H233415   6.823   3.925   2.819
11158TIP3   OH233416   4.331   2.190   2.787
11158TIP3    H133417   4.392   2.120   2.763
11158TIP3    H233418   4.377   2.271   2.766
11159TIP3   OH233419   1.078   3.979   5.647
11159TIP3    H133420   1.167   3.993   5.678
11159TIP3    H233421   1.083   3.987   5.552
11160TIP3   OH233422   6.854   5.626   3.602
11160TIP3    H133423   6.929   5.662   3.649
11160TIP3    H233424   6.816   5.701   3.556
11161TIP3   OH233425   0.822   1.787   5.086
11161TIP3    H133426   0.879   1.740   5.147
11161TIP3    H233427   0.831   1.741   5.003
11162TIP3   OH233428   6.103   1.107   6.192
11162TIP3    H133429   6.115   1.088   6.099
11162TIP3    H233430   6.031   1.170   6.195
11163TIP3   OH233431   5.987   7.618   2.801
11163TIP3    H133432   6.023   7.631   2.888
11163TIP3    H233433   6.033   7.680   2.745
11164TIP3   OH233434   3.776   4.176   4.119
11164TIP3    H133435   3.742   4.223   4.043
11164TIP3    H233436   3.841   4.115   4.083
11165TIP3   OH233437   5.476   2.527   3.676
11165TIP3    H133438   5.550   2.580   3.646
11165TIP3    H233439   5.400   2.567   3.633
11166TIP3   OH233440   4.246   2.340   1.197
11166TIP3    H133441   4.268   2.312   1.286
11166TIP3    H233442   4.256   2.262   1.143
11167TIP3   OH233443   8.079   2.950   1.681
11167TIP3    H133444   8.079   3.020   1.746
11167TIP3    H233445   8.165   2.909   1.690
11168TIP3   OH233446   0.857   3.974   1.929
11168TIP3    H133447   0.787   4.025   1.888
11168TIP3    H233448   0.826   3.884   1.925
11169TIP3   OH233449   7.318   0.388   3.988
11169TIP3    H133450   7.383   0.328   4.024
11169TIP3    H233451   7.346   0.475   4.018
11170TIP3   OH233452   7.630   0.742   0.031
11170TIP3    H133453   7.559   0.742  -0.033
11170TIP3    H233454   7.634   0.833   0.062
11171TIP3   OH233455   3.089   6.605   5.239
11171TIP3    H133456   3.010   6.641   5.199
11171TIP3    H233457   3.082   6.510   5.225
11172TIP3   OH233458   0.953   6.484   5.272
11172TIP3    H133459   0.911   6.533   5.343
11172TIP3    H233460   0.891   6.414   5.252
11173TIP3   OH233461   0.977   4.684   4.221
11173TIP3    H133462   1.024   4.605   4.195
11173TIP3    H233463   0.885   4.663   4.205
11174TIP3   OH233464   7.418   0.018   3.701
11174TIP3    H133465   7.332  -0.025   3.697
11174TIP3    H233466   7.462  -0.009   3.620
11175TIP3   OH233467   3.346   0.661   2.232
11175TIP3    H133468   3.292   0.734   2.261
11175TIP3    H233469   3.301   0.583   2.266
11176TIP3   OH233470   1.590   4.653   5.613
11176TIP3    H133471   1.681   4.679   5.625
11176TIP3    H233472   1.554   4.721   5.556
11177TIP3   OH233473   2.364   4.846   3.003
11177TIP3    H133474   2.381   4.755   2.978
11177TIP3    H233475   2.308   4.881   2.933
11178TIP3   OH233476   0.868   3.713   5.524
11178TIP3    H133477   0.804   3.655   5.483
11178TIP3    H233478   0.950   3.696   5.476
11179TIP3   OH233479   5.569   3.113   2.896
11179TIP3    H133480   5.573   3.193   2.844
11179TIP3    H233481   5.660   3.094   2.918
11180TIP3   OH233482   0.561   3.944   6.153
11180TIP3    H133483   0.634   3.929   6.213
11180TIP3    H233484   0.549   3.861   6.108
11181TIP3   OH233485   0.727   1.027   1.707
11181TIP3    H133486   0.799   1.029   1.644
11181TIP3    H233487   0.659   1.080   1.666
11182TIP3   OH233488   0.340   5.804   0.448
11182TIP3    H133489   0.383   5.741   0.506
11182TIP3    H233490   0.289   5.750   0.388
11183TIP3   OH233491   7.272   3.750   2.679
11183TIP3    H133492   7.216   3.775   2.753
11183TIP3    H233493   7.353   3.800   2.692
11184TIP3   OH233494   0.689   2.356   6.477
11184TIP3    H133495   0.782   2.361   6.454
11184TIP3    H233496   0.646   2.416   6.416
11185TIP3   OH233497   0.564   1.450   0.290
11185TIP3    H133498   0.490   1.447   0.351
11185TIP3    H233499   0.630   1.502   0.336
11186TIP3   OH233500   1.872   1.132   6.606
11186TIP3    H133501   1.871   1.164   6.696
11186TIP3    H233502   1.842   1.042   6.611
11187TIP3   OH233503   2.646   1.297   2.153
11187TIP3    H133504   2.739   1.277   2.148
11187TIP3    H233505   2.640   1.390   2.133
11188TIP3   OH233506   3.032   6.252   3.984
11188TIP3    H133507   2.945   6.230   3.951
11188TIP3    H233508   3.023   6.340   4.020
11189TIP3   OH233509   1.626   0.185   4.008
11189TIP3    H133510   1.655   0.099   3.979
11189TIP3    H233511   1.707   0.232   4.028
11190TIP3   OH233512   5.416   4.332   1.011
11190TIP3    H133513   5.433   4.364   1.099
11190TIP3    H233514   5.349   4.392   0.976
11191TIP3   OH233515   5.524   0.806   5.391
11191TIP3    H133516   5.481   0.891   5.384
11191TIP3    H233517   5.607   0.817   5.346
11192TIP3   OH233518   4.571   2.539   6.572
11192TIP3    H133519   4.531   2.452   6.567
11192TIP3    H233520   4.529   2.589   6.503
11193TIP3   OH233521   5.080   7.238   6.633
11193TIP3    H133522   5.171   7.255   6.609
11193TIP3    H233523   5.044   7.190   6.559
11194TIP3   OH233524   7.198   2.991   0.800
11194TIP3    H133525   7.227   2.947   0.880
11194TIP3    H233526   7.150   2.924   0.751
11195TIP3   OH233527   5.552   7.057   0.451
11195TIP3    H133528   5.458   7.039   0.457
11195TIP3    H233529   5.587   6.984   0.399
11196TIP3   OH233530   3.654   1.650   2.606
11196TIP3    H133531   3.733   1.680   2.650
11196TIP3    H233532   3.644   1.710   2.532
11197TIP3   OH233533   7.175   4.265   0.474
11197TIP3    H133534   7.262   4.284   0.439
11197TIP3    H233535   7.173   4.170   0.485
11198TIP3   OH233536   7.287   3.104   5.055
11198TIP3    H133537   7.362   3.116   5.113
11198TIP3    H233538   7.267   3.011   5.060
11199TIP3   OH233539   4.613   4.312   4.211
11199TIP3    H133540   4.550   4.254   4.169
11199TIP3    H233541   4.595   4.399   4.174
11200TIP3   OH233542   6.438   5.930   4.641
11200TIP3    H133543   6.491   5.911   4.563
11200TIP3    H233544   6.394   6.012   4.620
11201TIP3   OH233545   3.816   1.326   0.590
11201TIP3    H133546   3.763   1.391   0.544
11201TIP3    H233547   3.755   1.254   0.608
11202TIP3   OH233548   3.500   1.406   0.657
11202TIP3    H133549   3.536   1.475   0.601
11202TIP3    H233550   3.440   1.358   0.600
11203TIP3   OH233551   7.436   4.479   5.838
11203TIP3    H133552   7.376   4.411   5.869
11203TIP3    H233553   7.455   4.455   5.747
11204TIP3   OH233554   7.369   7.414   1.437
11204TIP3    H133555   7.449   7.439   1.483
11204TIP3    H233556   7.337   7.337   1.485
11205TIP3   OH233557   3.087   3.440   2.177
11205TIP3    H133558   3.131   3.393   2.248
11205TIP3    H233559   2.996   3.448   2.205
11206TIP3   OH233560   5.498   1.251   1.320
11206TIP3    H133561   5.463   1.162   1.321
11206TIP3    H233562   5.427   1.304   1.284
11207TIP3   OH233563   8.000   3.266   3.433
11207TIP3    H133564   7.989   3.233   3.522
11207TIP3    H233565   8.030   3.356   3.445
11208TIP3   OH233566   2.275   5.407   0.290
11208TIP3    H133567   2.264   5.346   0.217
11208TIP3    H233568   2.235   5.361   0.365
11209TIP3   OH233569   0.038   3.199   6.378
11209TIP3    H133570   0.119   3.193   6.328
11209TIP3    H233571  -0.009   3.273   6.339
11210TIP3   OH233572   7.815   5.765   4.246
11210TIP3    H133573   7.826   5.859   4.262
11210TIP3    H233574   7.849   5.752   4.158
11211TIP3   OH233575   7.942   4.335   5.976
11211TIP3    H133576   8.029   4.367   5.999
11211TIP3    H233577   7.896   4.328   6.059
11212TIP3   OH233578   1.473   3.067   4.698
11212TIP3    H133579   1.541   3.109   4.750
11212TIP3    H233580   1.496   2.974   4.699
11213TIP3   OH233581   6.483   0.389   0.784
11213TIP3    H133582   6.401   0.411   0.827
11213TIP3    H233583   6.469   0.301   0.749
11214TIP3   OH233584   2.621   0.099   5.312
11214TIP3    H133585   2.612   0.025   5.253
11214TIP3    H233586   2.654   0.060   5.394
11215TIP3   OH233587   1.427   4.698   0.491
11215TIP3    H133588   1.448   4.767   0.554
11215TIP3    H233589   1.336   4.713   0.468
11216TIP3   OH233590   3.254   1.792   3.684
11216TIP3    H133591   3.326   1.845   3.718
11216TIP3    H233592   3.217   1.749   3.761
11217TIP3   OH233593   2.839   0.008   2.510
11217TIP3    H133594   2.746   0.020   2.489
11217TIP3    H233595   2.843  -0.075   2.556
11218TIP3   OH233596   6.363   3.889   3.983
11218TIP3    H133597   6.376   3.862   3.892
11218TIP3    H233598   6.435   3.950   4.001
11219TIP3   OH233599   5.404   1.634   2.949
11219TIP3    H133600   5.387   1.663   2.859
11219TIP3    H233601   5.491   1.670   2.969
11220TIP3   OH233602   1.128   3.472   2.488
11220TIP3    H133603   1.157   3.493   2.400
11220TIP3    H233604   1.161   3.383   2.504
11221TIP3   OH233605   4.816   7.168   1.171
11221TIP3    H133606   4.846   7.226   1.101
11221TIP3    H233607   4.894   7.151   1.223
11222TIP3   OH233608   3.193   3.005   3.196
11222TIP3    H133609   3.271   2.949   3.191
11222TIP3    H233610   3.125   2.946   3.229
11223TIP3   OH233611   7.538   3.501   1.711
11223TIP3    H133612   7.499   3.522   1.796
11223TIP3    H233613   7.627   3.536   1.715
11224TIP3   OH233614   2.763   3.228   1.340
11224TIP3    H133615   2.791   3.245   1.250
11224TIP3    H233616   2.668   3.217   1.334
11225TIP3   OH233617   7.538   6.810   2.193
11225TIP3    H133618   7.619   6.854   2.222
11225TIP3    H233619   7.549   6.720   2.224
11226TIP3   OH233620   0.789   4.089   3.871
11226TIP3    H133621   0.762   4.017   3.814
11226TIP3    H233622   0.735   4.163   3.843
11227TIP3   OH233623   1.512   0.486   4.527
11227TIP3    H133624   1.454   0.421   4.487
11227TIP3    H233625   1.598   0.445   4.526
11228TIP3   OH233626   3.607   0.423   1.191
11228TIP3    H133627   3.568   0.410   1.278
11228TIP3    H233628   3.558   0.363   1.134
11229TIP3   OH233629   5.107   1.724   1.947
11229TIP3    H133630   5.193   1.684   1.945
11229TIP3    H233631   5.119   1.810   1.906
11230TIP3   OH233632   3.759   7.334   1.695
11230TIP3    H133633   3.772   7.254   1.746
11230TIP3    H233634   3.727   7.398   1.759
11231TIP3   OH233635   4.254   3.790   4.706
11231TIP3    H133636   4.271   3.816   4.615
11231TIP3    H233637   4.262   3.694   4.705
11232TIP3   OH233638   3.455   6.648   3.969
11232TIP3    H133639   3.413   6.563   3.981
11232TIP3    H233640   3.384   6.711   3.979
11233TIP3   OH233641   7.934   6.705   2.739
11233TIP3    H133642   7.864   6.650   2.703
11233TIP3    H233643   7.892   6.753   2.810
11234TIP3   OH233644   5.122   4.384   4.636
11234TIP3    H133645   5.166   4.324   4.697
11234TIP3    H233646   5.180   4.388   4.560
11235TIP3   OH233647   3.865   5.611   6.442
11235TIP3    H133648   3.823   5.682   6.490
11235TIP3    H233649   3.940   5.652   6.399
11236TIP3   OH233650   4.792   5.199   2.557
11236TIP3    H133651   4.756   5.215   2.645
11236TIP3    H233652   4.780   5.282   2.511
11237TIP3   OH233653   6.100   5.353   0.158
11237TIP3    H133654   6.190   5.350   0.125
11237TIP3    H233655   6.048   5.314   0.089
11238TIP3   OH233656   7.248   4.779   5.996
11238TIP3    H133657   7.167   4.825   6.019
11238TIP3    H233658   7.220   4.690   5.975
11239TIP3   OH233659   8.084   3.120   1.887
11239TIP3    H133660   8.047   3.198   1.929
11239TIP3    H233661   8.054   3.048   1.942
11240TIP3   OH233662   5.731   7.313   2.816
11240TIP3    H133663   5.704   7.221   2.803
11240TIP3    H233664   5.743   7.347   2.727
11241TIP3   OH233665   1.387   7.691   6.038
11241TIP3    H133666   1.380   7.658   5.948
11241TIP3    H233667   1.304   7.737   6.053
11242TIP3   OH233668   6.256   5.915   0.143
11242TIP3    H133669   6.171   5.960   0.147
11242TIP3    H233670   6.235   5.824   0.164
11243TIP3   OH233671   5.778   2.407   1.600
11243TIP3    H133672   5.848   2.452   1.647
11243TIP3    H233673   5.706   2.404   1.662
11244TIP3   OH233674   5.092   2.424   4.779
11244TIP3    H133675   5.093   2.356   4.712
11244TIP3    H233676   5.094   2.506   4.730
11245TIP3   OH233677   5.355   6.839   5.763
11245TIP3    H133678   5.429   6.831   5.703
11245TIP3    H233679   5.283   6.797   5.717
11246TIP3   OH233680   3.307   1.346   0.409
11246TIP3    H133681   3.352   1.410   0.354
11246TIP3    H233682   3.235   1.396   0.448
11247TIP3   OH233683   2.414   3.965   5.914
11247TIP3    H133684   2.424   3.908   5.991
11247TIP3    H233685   2.415   4.054   5.950
11248TIP3   OH233686   3.843   6.977   3.210
11248TIP3    H133687   3.800   6.898   3.177
11248TIP3    H233688   3.893   6.946   3.286
11249TIP3   OH233689   7.936   3.333   0.414
11249TIP3    H133690   7.930   3.424   0.385
11249TIP3    H233691   7.976   3.339   0.501
11250TIP3   OH233692   7.883   6.396   0.052
11250TIP3    H133693   7.833   6.427  -0.023
11250TIP3    H233694   7.819   6.350   0.106
11251TIP3   OH233695   3.287   5.264   2.649
11251TIP3    H133696   3.372   5.274   2.606
11251TIP3    H233697   3.297   5.186   2.704
11252TIP3   OH233698   0.074   7.750   0.427
11252TIP3    H133699   0.091   7.656   0.425
11252TIP3    H233700   0.161   7.790   0.431
11253TIP3   OH233701   2.671   2.138   0.062
11253TIP3    H133702   2.626   2.160  -0.020
11253TIP3    H233703   2.760   2.116   0.036
11254TIP3   OH233704   4.679   1.783   2.562
11254TIP3    H133705   4.663   1.859   2.506
11254TIP3    H233706   4.612   1.789   2.630
11255TIP3   OH233707   7.468   2.845   6.815
11255TIP3    H133708   7.393   2.815   6.764
11255TIP3    H233709   7.530   2.877   6.750
11256TIP3   OH233710   2.274   7.296   1.122
11256TIP3    H133711   2.246   7.208   1.147
11256TIP3    H233712   2.195   7.349   1.125
11257TIP3   OH233713   5.549   7.460   5.259
11257TIP3    H133714   5.634   7.504   5.264
11257TIP3    H233715   5.562   7.378   5.307
11258TIP3   OH233716   6.552   7.576   4.885
11258TIP3    H133717   6.609   7.499   4.880
11258TIP3    H233718   6.485   7.552   4.949
11259TIP3   OH233719   5.632   2.982   6.549
11259TIP3    H133720   5.546   3.011   6.578
11259TIP3    H233721   5.630   2.886   6.557
11260TIP3   OH233722   2.974   4.651   4.232
11260TIP3    H133723   2.979   4.568   4.184
11260TIP3    H233724   2.918   4.632   4.307
11261TIP3   OH233725   6.933   0.149   5.301
11261TIP3    H133726   6.871   0.093   5.348
11261TIP3    H233727   7.002   0.168   5.365
11262TIP3   OH233728   1.220   4.083   3.685
11262TIP3    H133729   1.297   4.035   3.655
11262TIP3    H233730   1.177   4.025   3.747
11263TIP3   OH233731   0.584   0.448   4.611
11263TIP3    H133732   0.598   0.362   4.571
11263TIP3    H233733   0.496   0.473   4.582
11264TIP3   OH233734   8.134   0.228   4.122
11264TIP3    H133735   8.196   0.255   4.190
11264TIP3    H233736   8.178   0.157   4.076
11265TIP3   OH233737   7.834   2.630   5.873
11265TIP3    H133738   7.840   2.541   5.839
11265TIP3    H233739   7.922   2.666   5.862
11266TIP3   OH233740   4.048   6.756   6.301
11266TIP3    H133741   4.123   6.737   6.357
11266TIP3    H233742   4.080   6.743   6.211
11267TIP3   OH233743   2.758   6.558   0.152
11267TIP3    H133744   2.690   6.622   0.175
11267TIP3    H233745   2.839   6.595   0.190
11268TIP3   OH233746   2.544   3.183   0.809
11268TIP3    H133747   2.467   3.153   0.762
11268TIP3    H233748   2.522   3.273   0.835
11269TIP3   OH233749   1.069   5.601   0.903
11269TIP3    H133750   1.123   5.569   0.831
11269TIP3    H233751   0.984   5.559   0.890
11270TIP3   OH233752   0.788   6.191   3.031
11270TIP3    H133753   0.721   6.133   2.994
11270TIP3    H233754   0.869   6.140   3.027
11271TIP3   OH233755   5.186   5.101   5.990
11271TIP3    H133756   5.107   5.054   5.961
11271TIP3    H233757   5.153   5.179   6.034
11272TIP3   OH233758   7.827   4.579   6.446
11272TIP3    H133759   7.871   4.544   6.523
11272TIP3    H233760   7.891   4.638   6.406
11273TIP3   OH233761   4.500   7.120   5.608
11273TIP3    H133762   4.503   7.202   5.657
11273TIP3    H233763   4.463   7.056   5.669
11274TIP3   OH233764   4.127   0.158   1.040
11274TIP3    H133765   4.087   0.190   0.959
11274TIP3    H233766   4.219   0.181   1.032
11275TIP3   OH233767   2.631   4.787   5.006
11275TIP3    H133768   2.536   4.777   5.008
11275TIP3    H233769   2.645   4.880   4.988
11276TIP3   OH233770   5.261   7.350   5.749
11276TIP3    H133771   5.346   7.315   5.774
11276TIP3    H233772   5.280   7.412   5.678
11277TIP3   OH233773   2.802   4.143   6.655
11277TIP3    H133774   2.841   4.231   6.656
11277TIP3    H233775   2.823   4.106   6.741
11278TIP3   OH233776   5.638   1.269   5.035
11278TIP3    H133777   5.702   1.203   5.061
11278TIP3    H233778   5.665   1.296   4.948
11279TIP3   OH233779   0.872   7.434   4.381
11279TIP3    H133780   0.931   7.506   4.358
11279TIP3    H233781   0.829   7.463   4.461
11280TIP3   OH233782   5.079   0.615   4.400
11280TIP3    H133783   5.168   0.581   4.391
11280TIP3    H233784   5.062   0.659   4.317
11281TIP3   OH233785   6.371   7.478   5.048
11281TIP3    H133786   6.291   7.522   5.077
11281TIP3    H233787   6.359   7.387   5.076
11282TIP3   OH233788   0.119   1.407   1.022
11282TIP3    H133789   0.025   1.416   1.036
11282TIP3    H233790   0.159   1.466   1.085
11283TIP3   OH233791   7.239   6.445   5.208
11283TIP3    H133792   7.242   6.464   5.115
11283TIP3    H233793   7.153   6.403   5.221
11284TIP3   OH233794   8.176   2.214   2.390
11284TIP3    H133795   8.085   2.223   2.364
11284TIP3    H233796   8.195   2.293   2.442
11285TIP3   OH233797   5.575   1.665   2.515
11285TIP3    H133798   5.595   1.745   2.466
11285TIP3    H233799   5.659   1.636   2.549
11286TIP3   OH233800   2.979   6.954   4.680
11286TIP3    H133801   3.046   6.895   4.644
11286TIP3    H233802   2.904   6.943   4.623
11287TIP3   OH233803   1.424   1.287   3.697
11287TIP3    H133804   1.516   1.284   3.670
11287TIP3    H233805   1.422   1.348   3.770
11288TIP3   OH233806   3.666   3.348   0.197
11288TIP3    H133807   3.684   3.274   0.140
11288TIP3    H233808   3.734   3.412   0.175
11289TIP3   OH233809   1.156   0.535   3.791
11289TIP3    H133810   1.119   0.471   3.730
11289TIP3    H233811   1.080   0.573   3.835
11290TIP3   OH233812   7.507   6.954   4.951
11290TIP3    H133813   7.510   7.040   4.909
11290TIP3    H233814   7.451   6.902   4.893
11291TIP3   OH233815   1.884   4.280   2.940
11291TIP3    H133816   1.908   4.353   2.997
11291TIP3    H233817   1.788   4.276   2.944
11292TIP3   OH233818   5.496   1.052   0.423
11292TIP3    H133819   5.470   0.968   0.385
11292TIP3    H233820   5.415   1.092   0.452
11293TIP3   OH233821   6.780   2.079   0.798
11293TIP3    H133822   6.782   2.049   0.708
11293TIP3    H233823   6.836   2.017   0.845
11294TIP3   OH233824   2.406   7.529   4.889
11294TIP3    H133825   2.425   7.456   4.830
11294TIP3    H233826   2.311   7.525   4.901
11295TIP3   OH233827   5.256   6.054   2.121
11295TIP3    H133828   5.313   6.097   2.058
11295TIP3    H233829   5.232   5.971   2.080
11296TIP3   OH233830   2.644   5.227   2.796
11296TIP3    H133831   2.684   5.155   2.844
11296TIP3    H233832   2.699   5.238   2.718
11297TIP3   OH233833   6.246   5.672   6.173
11297TIP3    H133834   6.327   5.720   6.154
11297TIP3    H233835   6.276   5.588   6.206
11298TIP3   OH233836   0.377   3.276   1.540
11298TIP3    H133837   0.340   3.219   1.608
11298TIP3    H233838   0.464   3.300   1.573
11299TIP3   OH233839   7.393   2.402   2.122
11299TIP3    H133840   7.420   2.342   2.192
11299TIP3    H233841   7.373   2.484   2.167
11300TIP3   OH233842   0.364   1.584   2.293
11300TIP3    H133843   0.402   1.521   2.353
11300TIP3    H233844   0.277   1.602   2.329
11301TIP3   OH233845   1.094   0.859   5.915
11301TIP3    H133846   1.104   0.947   5.881
11301TIP3    H233847   1.136   0.861   6.001
11302TIP3   OH233848   6.301   0.104   5.418
11302TIP3    H133849   6.297   0.009   5.406
11302TIP3    H233850   6.338   0.137   5.336
11303TIP3   OH233851   4.217   3.716   3.351
11303TIP3    H133852   4.197   3.805   3.380
11303TIP3    H233853   4.140   3.689   3.301
11304TIP3   OH233854   4.911   4.344   1.590
11304TIP3    H133855   4.945   4.408   1.528
11304TIP3    H233856   4.841   4.390   1.637
11305TIP3   OH233857   4.830   4.356   6.404
11305TIP3    H133858   4.797   4.436   6.446
11305TIP3    H233859   4.925   4.362   6.414
11306TIP3   OH233860   4.980   4.660   2.677
11306TIP3    H133861   4.941   4.706   2.603
11306TIP3    H233862   4.966   4.719   2.751
11307TIP3   OH233863   5.705   7.819   1.799
11307TIP3    H133864   5.770   7.764   1.755
11307TIP3    H233865   5.672   7.764   1.870
11308TIP3   OH233866   2.764   6.380   2.315
11308TIP3    H133867   2.839   6.336   2.354
11308TIP3    H233868   2.791   6.397   2.224
11309TIP3   OH233869   2.393   3.349   1.697
11309TIP3    H133870   2.439   3.334   1.779
11309TIP3    H233871   2.394   3.263   1.653
11310TIP3   OH233872   5.372   1.733   4.345
11310TIP3    H133873   5.433   1.754   4.416
11310TIP3    H233874   5.414   1.769   4.267
11311TIP3   OH233875   5.694   4.192   0.299
11311TIP3    H133876   5.664   4.159   0.384
11311TIP3    H233877   5.614   4.213   0.251
11312TIP3   OH233878   7.473   2.804   4.543
11312TIP3    H133879   7.434   2.800   4.456
11312TIP3    H233880   7.403   2.778   4.602
11313TIP3   OH233881   4.908   2.869   2.870
11313TIP3    H133882   4.852   2.833   2.939
11313TIP3    H233883   4.903   2.964   2.882
11314TIP3   OH233884   2.998   6.154   6.141
11314TIP3    H133885   3.074   6.211   6.135
11314TIP3    H233886   3.032   6.073   6.180
11315TIP3   OH233887   5.795   2.070   4.574
11315TIP3    H133888   5.812   2.144   4.632
11315TIP3    H233889   5.838   2.093   4.492
11316TIP3   OH233890   4.821   2.820   2.473
11316TIP3    H133891   4.903   2.770   2.465
11316TIP3    H233892   4.752   2.754   2.461
11317TIP3   OH233893   4.633   5.756   5.499
11317TIP3    H133894   4.716   5.801   5.513
11317TIP3    H233895   4.626   5.694   5.571
11318TIP3   OH233896   7.210   6.620   1.940
11318TIP3    H133897   7.115   6.616   1.925
11318TIP3    H233898   7.221   6.688   2.006
11319TIP3   OH233899   7.294   4.692   3.318
11319TIP3    H133900   7.340   4.746   3.382
11319TIP3    H233901   7.207   4.732   3.311
11320TIP3   OH233902   8.103   2.711   1.120
11320TIP3    H133903   8.145   2.782   1.169
11320TIP3    H233904   8.026   2.752   1.080
11321TIP3   OH233905   7.051   3.225   4.755
11321TIP3    H133906   7.103   3.262   4.825
11321TIP3    H233907   7.085   3.136   4.744
11322TIP3   OH233908   1.839   7.595   4.943
11322TIP3    H133909   1.824   7.520   4.885
11322TIP3    H233910   1.799   7.669   4.897
11323TIP3   OH233911   1.180   2.564   4.940
11323TIP3    H133912   1.102   2.574   4.994
11323TIP3    H233913   1.166   2.623   4.866
11324TIP3   OH233914   8.180   5.107   5.754
11324TIP3    H133915   8.161   5.134   5.844
11324TIP3    H233916   8.151   5.180   5.700
11325TIP3   OH233917   6.921   5.478   5.275
11325TIP3    H133918   6.867   5.401   5.262
11325TIP3    H233919   6.906   5.532   5.198
11326TIP3   OH233920   7.425   3.471   4.676
11326TIP3    H133921   7.456   3.383   4.699
11326TIP3    H233922   7.339   3.478   4.718
11327TIP3   OH233923   3.337   2.417   4.008
11327TIP3    H133924   3.310   2.459   4.090
11327TIP3    H233925   3.258   2.374   3.977
11328TIP3   OH233926   0.156   1.855   2.137
11328TIP3    H133927   0.130   1.776   2.088
11328TIP3    H233928   0.074   1.903   2.150
11329TIP3   OH233929   7.548   4.823   0.858
11329TIP3    H133930   7.643   4.811   0.856
11329TIP3    H233931   7.514   4.746   0.903
11330TIP3   OH233932   4.805   1.986   4.484
11330TIP3    H133933   4.741   2.048   4.451
11330TIP3    H233934   4.775   1.901   4.451
11331TIP3   OH233935   3.402   1.611   1.167
11331TIP3    H133936   3.469   1.566   1.218
11331TIP3    H233937   3.341   1.541   1.142
11332TIP3   OH233938   0.457   4.513   3.549
11332TIP3    H133939   0.506   4.439   3.513
11332TIP3    H233940   0.500   4.533   3.632
11333TIP3   OH233941   4.932   2.018   4.831
11333TIP3    H133942   5.023   2.048   4.833
11333TIP3    H233943   4.931   1.949   4.765
11334TIP3   OH233944   5.101   1.621   4.128
11334TIP3    H133945   5.048   1.695   4.098
11334TIP3    H233946   5.108   1.633   4.223
11335TIP3   OH233947   6.253   0.277   0.468
11335TIP3    H133948   6.219   0.337   0.535
11335TIP3    H233949   6.314   0.221   0.516
11336TIP3   OH233950   7.716   6.121   2.016
11336TIP3    H133951   7.750   6.163   1.937
11336TIP3    H233952   7.690   6.033   1.988
11337TIP3   OH233953   5.270   6.112   1.263
11337TIP3    H133954   5.334   6.181   1.279
11337TIP3    H233955   5.262   6.066   1.347
11338TIP3   OH233956   0.973   0.949   4.665
11338TIP3    H133957   0.944   1.026   4.713
11338TIP3    H233958   0.892   0.907   4.636
11339TIP3   OH233959   8.080   7.423   5.850
11339TIP3    H133960   8.137   7.387   5.918
11339TIP3    H233961   8.138   7.437   5.776
11340TIP3   OH233962   7.296   1.175   4.673
11340TIP3    H133963   7.337   1.261   4.668
11340TIP3    H233964   7.231   1.175   4.603
11341TIP3   OH233965   5.398   7.400   1.841
11341TIP3    H133966   5.384   7.347   1.762
11341TIP3    H233967   5.317   7.449   1.852
11342TIP3   OH233968   2.771   0.794   1.154
11342TIP3    H133969   2.819   0.712   1.141
11342TIP3    H233970   2.748   0.823   1.066
11343TIP3   OH233971   4.543   4.805   4.788
11343TIP3    H133972   4.494   4.738   4.739
11343TIP3    H233973   4.486   4.826   4.863
11344TIP3   OH233974   1.501   0.878   3.410
11344TIP3    H133975   1.591   0.874   3.442
11344TIP3    H233976   1.448   0.893   3.488
11345TIP3   OH233977   7.304   5.090   1.324
11345TIP3    H133978   7.290   5.164   1.265
11345TIP3    H233979   7.226   5.036   1.314
11346TIP3   OH233980   4.496   4.161   5.406
11346TIP3    H133981   4.471   4.103   5.334
11346TIP3    H233982   4.541   4.105   5.468
11347TIP3   OH233983   4.906   1.115   0.831
11347TIP3    H133984   4.916   1.207   0.856
11347TIP3    H233985   4.863   1.075   0.907
11348TIP3   OH233986   1.002   5.017   1.581
11348TIP3    H133987   0.908   5.026   1.571
11348TIP3    H233988   1.020   4.925   1.561
11349TIP3   OH233989   3.357   6.215   1.590
11349TIP3    H133990   3.275   6.264   1.581
11349TIP3    H233991   3.330   6.124   1.602
11350TIP3   OH233992   0.179   4.776   6.236
11350TIP3    H133993   0.197   4.775   6.330
11350TIP3    H233994   0.084   4.780   6.229
11351TIP3   OH233995   2.272   6.498   5.721
11351TIP3    H133996   2.235   6.585   5.733
11351TIP3    H233997   2.204   6.439   5.753
11352TIP3   OH233998   6.206   3.936   5.664
11352TIP3    H133999   6.226   3.933   5.570
11352TIP3    H234000   6.284   3.901   5.706
11353TIP3   OH234001   0.620   1.735   6.029
11353TIP3    H134002   0.652   1.658   5.982
11353TIP3    H234003   0.684   1.749   6.099
11354TIP3   OH234004   6.083   5.704   6.601
11354TIP3    H134005   5.998   5.692   6.642
11354TIP3    H234006   6.146   5.696   6.672
11355TIP3   OH234007   3.223   3.788   1.273
11355TIP3    H134008   3.200   3.816   1.362
11355TIP3    H234009   3.242   3.694   1.283
11356TIP3   OH234010   8.000   3.842   0.815
11356TIP3    H134011   8.016   3.933   0.841
11356TIP3    H234012   8.015   3.791   0.894
11357TIP3   OH234013   7.578   2.949   4.788
11357TIP3    H134014   7.537   2.881   4.841
11357TIP3    H234015   7.572   2.916   4.698
11358TIP3   OH234016   6.194   0.886   6.346
11358TIP3    H134017   6.147   0.955   6.299
11358TIP3    H234018   6.129   0.847   6.403
11359TIP3   OH234019   2.029   0.827   0.988
11359TIP3    H134020   1.961   0.761   1.004
11359TIP3    H234021   2.111   0.785   1.014
11360TIP3   OH234022   5.394   6.294   4.325
11360TIP3    H134023   5.389   6.233   4.398
11360TIP3    H234024   5.439   6.371   4.360
11361TIP3   OH234025   3.410   6.151   1.989
11361TIP3    H134026   3.487   6.096   1.977
11361TIP3    H234027   3.353   6.099   2.046
11362TIP3   OH234028   2.308   1.639   3.941
11362TIP3    H134029   2.345   1.551   3.930
11362TIP3    H234030   2.213   1.625   3.941
11363TIP3   OH234031   7.461   2.910   1.975
11363TIP3    H134032   7.480   2.949   2.060
11363TIP3    H234033   7.365   2.907   1.971
11364TIP3   OH234034   6.321   4.175   3.754
11364TIP3    H134035   6.328   4.080   3.742
11364TIP3    H234036   6.412   4.205   3.757
11365TIP3   OH234037   2.439   5.666   1.551
11365TIP3    H134038   2.511   5.730   1.545
11365TIP3    H234039   2.444   5.617   1.470
11366TIP3   OH234040   3.978   4.605   2.946
11366TIP3    H134041   3.999   4.654   2.866
11366TIP3    H234042   3.888   4.577   2.934
11367TIP3   OH234043   2.732   3.505   1.990
11367TIP3    H134044   2.797   3.561   1.947
11367TIP3    H234045   2.679   3.564   2.042
11368TIP3   OH234046   8.200   3.797   3.390
11368TIP3    H134047   8.281   3.785   3.440
11368TIP3    H234048   8.228   3.832   3.306
11369TIP3   OH234049   2.129   4.838   5.297
11369TIP3    H134050   2.041   4.833   5.335
11369TIP3    H234051   2.117   4.889   5.216
11370TIP3   OH234052   7.183   3.677   3.147
11370TIP3    H134053   7.154   3.592   3.181
11370TIP3    H234054   7.273   3.686   3.179
11371TIP3   OH234055   1.809   1.758   2.206
11371TIP3    H134056   1.736   1.696   2.200
11371TIP3    H234057   1.886   1.706   2.184
11372TIP3   OH234058   7.273   1.597   1.132
11372TIP3    H134059   7.211   1.590   1.205
11372TIP3    H234060   7.272   1.510   1.092
11373TIP3   OH234061   1.430   2.648   1.959
11373TIP3    H134062   1.470   2.674   1.875
11373TIP3    H234063   1.410   2.555   1.949
11374TIP3   OH234064   2.166   4.841   2.765
11374TIP3    H134065   2.098   4.904   2.787
11374TIP3    H234066   2.229   4.891   2.713
11375TIP3   OH234067   7.164   3.639   5.387
11375TIP3    H134068   7.183   3.553   5.425
11375TIP3    H234069   7.142   3.620   5.296
11376TIP3   OH234070   7.978   3.960   6.268
11376TIP3    H134071   8.052   4.020   6.259
11376TIP3    H234072   7.941   3.955   6.180
11377TIP3   OH234073   5.228   0.193   3.289
11377TIP3    H134074   5.266   0.171   3.204
11377TIP3    H234075   5.269   0.276   3.313
11378TIP3   OH234076   5.692   1.859   3.292
11378TIP3    H134077   5.747   1.806   3.350
11378TIP3    H234078   5.736   1.943   3.287
11379TIP3   OH234079   4.056   3.639   6.824
11379TIP3    H134080   4.093   3.719   6.785
11379TIP3    H234081   3.962   3.654   6.824
11380TIP3   OH234082   6.247   7.705   0.880
11380TIP3    H134083   6.168   7.650   0.874
11380TIP3    H234084   6.293   7.689   0.798
11381TIP3   OH234085   3.208   3.941   3.155
11381TIP3    H134086   3.252   3.983   3.081
11381TIP3    H234087   3.218   3.847   3.139
11382TIP3   OH234088   6.001   5.174   3.470
11382TIP3    H134089   5.920   5.178   3.521
11382TIP3    H234090   6.069   5.155   3.535
11383TIP3   OH234091   0.199   5.063   6.115
11383TIP3    H134092   0.171   4.977   6.147
11383TIP3    H234093   0.255   5.097   6.185
11384TIP3   OH234094   8.177   4.877   3.629
11384TIP3    H134095   8.251   4.838   3.583
11384TIP3    H234096   8.176   4.968   3.600
11385TIP3   OH234097   8.039   3.694   1.023
11385TIP3    H134098   8.081   3.623   0.974
11385TIP3    H234099   8.103   3.717   1.090
11386TIP3   OH234100   5.516   4.015   6.321
11386TIP3    H134101   5.597   4.064   6.309
11386TIP3    H234102   5.545   3.926   6.341
11387TIP3   OH234103   2.596   3.105   2.707
11387TIP3    H134104   2.627   3.131   2.794
11387TIP3    H234105   2.503   3.130   2.707
11388TIP3   OH234106   1.888   7.653   4.477
11388TIP3    H134107   1.920   7.682   4.562
11388TIP3    H234108   1.809   7.602   4.498
11389TIP3   OH234109   2.153   0.039   2.676
11389TIP3    H134110   2.094  -0.036   2.675
11389TIP3    H234111   2.205   0.027   2.756
11390TIP3   OH234112   1.145   6.237   5.775
11390TIP3    H134113   1.236   6.265   5.767
11390TIP3    H234114   1.148   6.161   5.833
11391TIP3   OH234115   3.949   1.952   2.469
11391TIP3    H134116   4.001   1.982   2.394
11391TIP3    H234117   3.958   2.023   2.533
11392TIP3   OH234118   7.401   6.512   2.856
11392TIP3    H134119   7.356   6.579   2.806
11392TIP3    H234120   7.336   6.479   2.918
11393TIP3   OH234121   6.238   5.108   6.280
11393TIP3    H134122   6.163   5.069   6.235
11393TIP3    H234123   6.312   5.052   6.258
11394TIP3   OH234124   4.885   5.658   2.560
11394TIP3    H134125   4.893   5.686   2.469
11394TIP3    H234126   4.955   5.593   2.571
11395TIP3   OH234127   4.054   1.235   3.311
11395TIP3    H134128   3.995   1.251   3.385
11395TIP3    H234129   4.035   1.145   3.285
11396TIP3   OH234130   6.548   0.292   0.156
11396TIP3    H134131   6.492   0.344   0.215
11396TIP3    H234132   6.615   0.354   0.127
11397TIP3   OH234133   5.296   2.524   1.063
11397TIP3    H134134   5.240   2.577   1.120
11397TIP3    H234135   5.248   2.520   0.980
11398TIP3   OH234136   6.057   2.846   4.423
11398TIP3    H134137   5.999   2.865   4.496
11398TIP3    H234138   6.117   2.778   4.456
11399TIP3   OH234139   3.122   4.458   3.081
11399TIP3    H134140   3.042   4.499   3.113
11399TIP3    H234141   3.123   4.371   3.121
11400TIP3   OH234142   5.508   5.456   1.688
11400TIP3    H134143   5.545   5.378   1.728
11400TIP3    H234144   5.583   5.500   1.648
11401TIP3   OH234145   4.593   5.204   1.066
11401TIP3    H134146   4.649   5.172   1.138
11401TIP3    H234147   4.510   5.226   1.108
11402TIP3   OH234148   7.733   4.740   2.225
11402TIP3    H134149   7.798   4.767   2.290
11402TIP3    H234150   7.745   4.801   2.153
11403TIP3   OH234151   2.934   5.710   5.656
11403TIP3    H134152   2.984   5.724   5.576
11403TIP3    H234153   2.925   5.615   5.662
11404TIP3   OH234154   2.007   6.741   3.962
11404TIP3    H134155   2.049   6.820   3.995
11404TIP3    H234156   1.914   6.763   3.957
11405TIP3   OH234157   4.712   0.669   4.139
11405TIP3    H134158   4.698   0.706   4.226
11405TIP3    H234159   4.642   0.706   4.086
11406TIP3   OH234160   6.594   6.628   1.001
11406TIP3    H134161   6.516   6.575   1.017
11406TIP3    H234162   6.595   6.643   0.907
11407TIP3   OH234163   2.752   4.048   6.251
11407TIP3    H134164   2.834   4.001   6.263
11407TIP3    H234165   2.775   4.140   6.262
11408TIP3   OH234166   0.376   3.177   5.108
11408TIP3    H134167   0.316   3.145   5.041
11408TIP3    H234168   0.323   3.184   5.187
11409TIP3   OH234169   2.008   2.326   1.561
11409TIP3    H134170   1.985   2.252   1.618
11409TIP3    H234171   2.103   2.323   1.555
11410TIP3   OH234172   2.940   6.323   3.646
11410TIP3    H134173   2.904   6.280   3.724
11410TIP3    H234174   3.016   6.269   3.622
11411TIP3   OH234175   8.249   6.908   5.668
11411TIP3    H134176   8.163   6.876   5.695
11411TIP3    H234177   8.254   6.996   5.706
11412TIP3   OH234178   1.445   2.358   1.991
11412TIP3    H134179   1.479   2.311   2.068
11412TIP3    H234180   1.350   2.363   2.007
11413TIP3   OH234181   3.095   7.702   3.704
11413TIP3    H134182   3.098   7.758   3.782
11413TIP3    H234183   3.090   7.613   3.739
11414TIP3   OH234184   2.181   4.251   3.866
11414TIP3    H134185   2.260   4.197   3.858
11414TIP3    H234186   2.155   4.268   3.775
11415TIP3   OH234187   7.499   6.996   2.475
11415TIP3    H134188   7.416   6.980   2.432
11415TIP3    H234189   7.556   6.925   2.447
11416TIP3   OH234190   3.305   4.429   1.879
11416TIP3    H134191   3.243   4.495   1.847
11416TIP3    H234192   3.387   4.476   1.889
11417TIP3   OH234193   1.776   5.325   6.361
11417TIP3    H134194   1.835   5.265   6.316
11417TIP3    H234195   1.833   5.382   6.412
11418TIP3   OH234196   7.656   1.401   4.084
11418TIP3    H134197   7.585   1.422   4.146
11418TIP3    H234198   7.733   1.443   4.122
11419TIP3   OH234199   0.293   0.411   0.687
11419TIP3    H134200   0.301   0.505   0.698
11419TIP3    H234201   0.334   0.374   0.765
11420TIP3   OH234202   0.255   0.543   1.015
11420TIP3    H134203   0.192   0.477   0.988
11420TIP3    H234204   0.338   0.512   0.981
11421TIP3   OH234205   2.868   6.951   6.085
11421TIP3    H134206   2.961   6.932   6.084
11421TIP3    H234207   2.829   6.876   6.131
11422TIP3   OH234208   1.320   2.895   4.195
11422TIP3    H134209   1.366   2.884   4.112
11422TIP3    H234210   1.385   2.876   4.262
11423TIP3   OH234211   0.478   1.399   6.008
11423TIP3    H134212   0.461   1.437   5.922
11423TIP3    H234213   0.535   1.325   5.991
11424TIP3   OH234214   4.531   4.856   0.714
11424TIP3    H134215   4.550   4.933   0.660
11424TIP3    H234216   4.460   4.811   0.668
11425TIP3   OH234217   4.958   5.571   6.679
11425TIP3    H134218   4.864   5.585   6.687
11425TIP3    H234219   4.971   5.543   6.589
11426TIP3   OH234220   0.843   0.115   2.005
11426TIP3    H134221   0.821   0.192   1.952
11426TIP3    H234222   0.769   0.105   2.065
11427TIP3   OH234223   1.276   2.561   1.610
11427TIP3    H134224   1.235   2.594   1.530
11427TIP3    H234225   1.214   2.496   1.643
11428TIP3   OH234226   7.994   1.413   0.364
11428TIP3    H134227   7.944   1.344   0.406
11428TIP3    H234228   8.005   1.384   0.274
11429TIP3   OH234229   3.446   1.702   0.906
11429TIP3    H134230   3.374   1.643   0.885
11429TIP3    H234231   3.454   1.697   1.002
11430TIP3   OH234232   0.089   1.078   1.632
11430TIP3    H134233   0.051   1.066   1.719
11430TIP3    H234234   0.160   1.014   1.628
11431TIP3   OH234235   1.062   7.765   0.075
11431TIP3    H134236   1.107   7.761   0.160
11431TIP3    H234237   1.084   7.683   0.032
11432TIP3   OH234238   6.267   1.954   3.848
11432TIP3    H134239   6.305   1.873   3.881
11432TIP3    H234240   6.220   1.990   3.922
11433TIP3   OH234241   1.500   5.412   1.702
11433TIP3    H134242   1.591   5.384   1.694
11433TIP3    H234243   1.458   5.380   1.622
11434TIP3   OH234244   1.024   6.134   5.194
11434TIP3    H134245   1.061   6.088   5.119
11434TIP3    H234246   0.958   6.192   5.156
11435TIP3   OH234247   5.596   4.298   5.694
11435TIP3    H134248   5.656   4.236   5.652
11435TIP3    H234249   5.609   4.284   5.788
11436TIP3   OH234250   6.257   2.828   3.962
11436TIP3    H134251   6.240   2.798   3.873
11436TIP3    H234252   6.210   2.912   3.968
11437TIP3   OH234253   7.930   5.681   1.502
11437TIP3    H134254   7.890   5.697   1.417
11437TIP3    H234255   7.926   5.765   1.547
11438TIP3   OH234256   5.722   0.705   2.844
11438TIP3    H134257   5.740   0.752   2.925
11438TIP3    H234258   5.674   0.768   2.790
11439TIP3   OH234259   0.714   2.018   0.776
11439TIP3    H134260   0.725   1.923   0.768
11439TIP3    H234261   0.621   2.032   0.757
11440TIP3   OH234262   8.135   7.592   3.969
11440TIP3    H134263   8.099   7.529   3.906
11440TIP3    H234264   8.221   7.557   3.991
11441TIP3   OH234265   3.176   0.082   1.892
11441TIP3    H134266   3.127   0.095   1.974
11441TIP3    H234267   3.130   0.136   1.828
11442TIP3   OH234268   1.219   4.510   5.325
11442TIP3    H134269   1.299   4.459   5.340
11442TIP3    H234270   1.240   4.597   5.360
11443TIP3   OH234271   4.111   5.282   1.961
11443TIP3    H134272   4.077   5.200   1.926
11443TIP3    H234273   4.045   5.310   2.024
11444TIP3   OH234274   4.801   2.598   0.828
11444TIP3    H134275   4.836   2.564   0.911
11444TIP3    H234276   4.878   2.634   0.783
11445TIP3   OH234277   7.612   2.557   3.802
11445TIP3    H134278   7.636   2.641   3.762
11445TIP3    H234279   7.637   2.567   3.894
11446TIP3   OH234280   3.922   5.249   6.326
11446TIP3    H134281   3.830   5.263   6.352
11446TIP3    H234282   3.917   5.197   6.246
11447TIP3   OH234283   5.295   2.787   3.292
11447TIP3    H134284   5.376   2.819   3.334
11447TIP3    H234285   5.230   2.854   3.314
11448TIP3   OH234286   8.211   1.947   2.806
11448TIP3    H134287   8.204   1.883   2.736
11448TIP3    H234288   8.305   1.952   2.825
11449TIP3   OH234289   3.846   0.032   3.061
11449TIP3    H134290   3.920   0.029   3.122
11449TIP3    H234291   3.772  -0.002   3.111
11450TIP3   OH234292   4.754   7.790   3.951
11450TIP3    H134293   4.671   7.768   3.993
11450TIP3    H234294   4.731   7.809   3.860
11451TIP3   OH234295   6.656   5.989   6.312
11451TIP3    H134296   6.670   6.011   6.220
11451TIP3    H234297   6.569   5.948   6.314
11452TIP3   OH234298   6.754   1.520   4.812
11452TIP3    H134299   6.743   1.554   4.723
11452TIP3    H234300   6.795   1.592   4.860
11453TIP3   OH234301   3.017   4.539   6.060
11453TIP3    H134302   2.987   4.630   6.059
11453TIP3    H234303   2.948   4.490   6.015
11454TIP3   OH234304   5.500   7.489   2.703
11454TIP3    H134305   5.539   7.568   2.740
11454TIP3    H234306   5.502   7.425   2.774
11455TIP3   OH234307   1.467   3.475   6.000
11455TIP3    H134308   1.538   3.505   6.057
11455TIP3    H234309   1.395   3.455   6.060
11456TIP3   OH234310   4.185   7.019   4.548
11456TIP3    H134311   4.097   7.045   4.578
11456TIP3    H234312   4.195   7.062   4.463
11457TIP3   OH234313   1.818   3.821   6.092
11457TIP3    H134314   1.849   3.877   6.021
11457TIP3    H234315   1.724   3.835   6.095
11458TIP3   OH234316   3.253   4.958   3.579
11458TIP3    H134317   3.174   4.906   3.563
11458TIP3    H234318   3.229   5.046   3.549
11459TIP3   OH234319   4.344   1.100   3.947
11459TIP3    H134320   4.263   1.096   3.897
11459TIP3    H234321   4.391   1.020   3.923
11460TIP3   OH234322   1.690   7.380   2.363
11460TIP3    H134323   1.690   7.407   2.271
11460TIP3    H234324   1.675   7.461   2.411
11461TIP3   OH234325   1.821   1.222   0.862
11461TIP3    H134326   1.909   1.234   0.898
11461TIP3    H234327   1.779   1.161   0.923
11462TIP3   OH234328   1.721   2.420   3.125
11462TIP3    H134329   1.682   2.501   3.161
11462TIP3    H234330   1.650   2.379   3.076
11463TIP3   OH234331   5.305   2.140   1.520
11463TIP3    H134332   5.248   2.213   1.493
11463TIP3    H234333   5.251   2.062   1.508
11464TIP3   OH234334   4.534   3.058   1.009
11464TIP3    H134335   4.575   2.982   0.965
11464TIP3    H234336   4.450   3.025   1.040
11465TIP3   OH234337   1.215   3.241   2.143
11465TIP3    H134338   1.301   3.249   2.101
11465TIP3    H234339   1.214   3.152   2.178
11466TIP3   OH234340   6.281   1.540   1.561
11466TIP3    H134341   6.327   1.567   1.641
11466TIP3    H234342   6.301   1.446   1.553
11467TIP3   OH234343   7.888   5.914   3.835
11467TIP3    H134344   7.886   5.899   3.740
11467TIP3    H234345   7.873   6.008   3.844
11468TIP3   OH234346   7.097   0.539   1.983
11468TIP3    H134347   7.031   0.593   1.939
11468TIP3    H234348   7.046   0.483   2.041
11469TIP3   OH234349   3.238   5.431   0.200
11469TIP3    H134350   3.299   5.405   0.131
11469TIP3    H234351   3.198   5.349   0.228
11470TIP3   OH234352   2.260   1.400   0.927
11470TIP3    H134353   2.276   1.447   0.845
11470TIP3    H234354   2.333   1.426   0.984
11471TIP3   OH234355   2.650   6.278   4.498
11471TIP3    H134356   2.570   6.307   4.543
11471TIP3    H234357   2.653   6.331   4.418
11472TIP3   OH234358   3.407   3.261   0.088
11472TIP3    H134359   3.462   3.185   0.104
11472TIP3    H234360   3.318   3.231   0.106
11473TIP3   OH234361   5.363   6.948   6.715
11473TIP3    H134362   5.384   6.992   6.797
11473TIP3    H234363   5.432   6.976   6.655
11474TIP3   OH234364   4.535   5.055   1.864
11474TIP3    H134365   4.621   5.029   1.898
11474TIP3    H234366   4.484   5.078   1.942
11475TIP3   OH234367   8.122   7.038   1.805
11475TIP3    H134368   8.102   6.951   1.773
11475TIP3    H234369   8.100   7.036   1.898
11476TIP3   OH234370   1.059   3.097   3.875
11476TIP3    H134371   1.057   3.034   3.947
11476TIP3    H234372   1.005   3.170   3.905
11477TIP3   OH234373   5.929   0.682   1.558
11477TIP3    H134374   6.017   0.719   1.549
11477TIP3    H234375   5.886   0.738   1.623
11478TIP3   OH234376   6.740   3.485   2.131
11478TIP3    H134377   6.750   3.448   2.043
11478TIP3    H234378   6.682   3.423   2.176
11479TIP3   OH234379   5.773   5.807   2.221
11479TIP3    H134380   5.836   5.874   2.247
11479TIP3    H234381   5.825   5.726   2.216
11480TIP3   OH234382   2.234   5.837   3.246
11480TIP3    H134383   2.266   5.775   3.311
11480TIP3    H234384   2.278   5.919   3.266
11481TIP3   OH234385   1.070   5.651   3.852
11481TIP3    H134386   1.072   5.711   3.927
11481TIP3    H234387   1.073   5.564   3.891
11482TIP3   OH234388   5.217   6.028   5.523
11482TIP3    H134389   5.164   6.023   5.602
11482TIP3    H234390   5.154   6.026   5.451
11483TIP3   OH234391   3.633   1.308   5.753
11483TIP3    H134392   3.540   1.319   5.773
11483TIP3    H234393   3.635   1.237   5.689
11484TIP3   OH234394   2.141   0.439   1.638
11484TIP3    H134395   2.229   0.406   1.619
11484TIP3    H234396   2.144   0.465   1.730
11485TIP3   OH234397   6.105   3.435   3.689
11485TIP3    H134398   6.072   3.346   3.675
11485TIP3    H234399   6.036   3.477   3.741
11486TIP3   OH234400   1.653   1.314   1.183
11486TIP3    H134401   1.612   1.242   1.229
11486TIP3    H234402   1.747   1.301   1.197
11487TIP3   OH234403   6.353   4.728   4.915
11487TIP3    H134404   6.409   4.683   4.979
11487TIP3    H234405   6.281   4.763   4.967
11488TIP3   OH234406   7.698   5.257   3.142
11488TIP3    H134407   7.630   5.291   3.200
11488TIP3    H234408   7.694   5.313   3.065
11489TIP3   OH234409   7.449   7.658   2.610
11489TIP3    H134410   7.416   7.705   2.533
11489TIP3    H234411   7.374   7.652   2.669
11490TIP3   OH234412   4.868   6.991   2.013
11490TIP3    H134413   4.870   6.949   1.927
11490TIP3    H234414   4.814   7.069   2.001
11491TIP3   OH234415   7.954   1.311   6.610
11491TIP3    H134416   7.862   1.332   6.628
11491TIP3    H234417   7.994   1.303   6.697
11492TIP3   OH234418   3.995   5.767   3.405
11492TIP3    H134419   3.943   5.716   3.342
11492TIP3    H234420   3.929   5.812   3.458
11493TIP3   OH234421   3.201   2.601   4.474
11493TIP3    H134422   3.155   2.523   4.506
11493TIP3    H234423   3.282   2.603   4.524
11494TIP3   OH234424   7.430   2.505   6.560
11494TIP3    H134425   7.466   2.581   6.514
11494TIP3    H234426   7.484   2.498   6.639
11495TIP3   OH234427   4.125   6.360   3.817
11495TIP3    H134428   4.129   6.278   3.865
11495TIP3    H234429   4.114   6.427   3.885
11496TIP3   OH234430   0.475   2.898   2.920
11496TIP3    H134431   0.437   2.969   2.868
11496TIP3    H234432   0.503   2.940   3.001
11497TIP3   OH234433   3.744   1.608   0.972
11497TIP3    H134434   3.692   1.686   0.954
11497TIP3    H234435   3.832   1.631   0.942
11498TIP3   OH234436   4.528   4.403   6.104
11498TIP3    H134437   4.500   4.395   6.195
11498TIP3    H234438   4.500   4.321   6.063
11499TIP3   OH234439   4.088   1.312   2.093
11499TIP3    H134440   4.172   1.271   2.112
11499TIP3    H234441   4.044   1.250   2.035
11500TIP3   OH234442   7.554   3.552   4.439
11500TIP3    H134443   7.583   3.463   4.419
11500TIP3    H234444   7.495   3.542   4.514
11501TIP3   OH234445   6.851   0.211   1.067
11501TIP3    H134446   6.811   0.293   1.095
11501TIP3    H234447   6.778   0.158   1.036
11502TIP3   OH234448   6.704   1.790   6.729
11502TIP3    H134449   6.793   1.753   6.730
11502TIP3    H234450   6.707   1.859   6.795
11503TIP3   OH234451   5.439   7.040   3.034
11503TIP3    H134452   5.469   7.001   2.952
11503TIP3    H234453   5.508   7.019   3.097
11504TIP3   OH234454   1.022   6.054   1.931
11504TIP3    H134455   0.963   6.110   1.881
11504TIP3    H234456   1.101   6.050   1.879
11505TIP3   OH234457   2.454   4.496   3.877
11505TIP3    H134458   2.521   4.562   3.894
11505TIP3    H234459   2.495   4.413   3.901
11506TIP3   OH234460   0.379   7.381   6.386
11506TIP3    H134461   0.293   7.410   6.417
11506TIP3    H234462   0.425   7.353   6.465
11507TIP3   OH234463   4.343   5.270   4.001
11507TIP3    H134464   4.438   5.278   4.011
11507TIP3    H234465   4.329   5.251   3.908
11508TIP3   OH234466   0.422   6.788   2.825
11508TIP3    H134467   0.397   6.788   2.733
11508TIP3    H234468   0.345   6.821   2.872
11509TIP3   OH234469   3.311   1.171   4.885
11509TIP3    H134470   3.379   1.178   4.952
11509TIP3    H234471   3.335   1.237   4.820
11510TIP3   OH234472   1.985   4.982   5.123
11510TIP3    H134473   1.986   4.991   5.028
11510TIP3    H234474   1.893   4.997   5.147
11511TIP3   OH234475   7.947   4.883   5.636
11511TIP3    H134476   8.009   4.940   5.681
11511TIP3    H234477   7.865   4.893   5.685
11512TIP3   OH234478   3.713   0.584   4.842
11512TIP3    H134479   3.680   0.561   4.928
11512TIP3    H234480   3.669   0.667   4.820
11513TIP3   OH234481   5.152   0.951   3.113
11513TIP3    H134482   5.171   0.902   3.033
11513TIP3    H234483   5.214   0.917   3.177
11514TIP3   OH234484   5.398   2.827   2.292
11514TIP3    H134485   5.333   2.789   2.233
11514TIP3    H234486   5.365   2.915   2.310
11515TIP3   OH234487   2.157   2.875   2.946
11515TIP3    H134488   2.224   2.881   2.878
11515TIP3    H234489   2.075   2.865   2.898
11516TIP3   OH234490   7.293   2.169   3.870
11516TIP3    H134491   7.326   2.252   3.836
11516TIP3    H234492   7.229   2.140   3.805
11517TIP3   OH234493   2.488   6.117   0.884
11517TIP3    H134494   2.408   6.169   0.893
11517TIP3    H234495   2.462   6.028   0.906
11518TIP3   OH234496   0.403   1.892   1.595
11518TIP3    H134497   0.384   1.964   1.655
11518TIP3    H234498   0.361   1.917   1.513
11519TIP3   OH234499   7.121   1.578   4.756
11519TIP3    H134500   7.164   1.580   4.670
11519TIP3    H234501   7.049   1.640   4.747
11520TIP3   OH234502   0.023   1.323   2.354
11520TIP3    H134503  -0.003   1.352   2.442
11520TIP3    H234504   0.084   1.252   2.370
11521TIP3   OH234505   4.739   7.393   3.802
11521TIP3    H134506   4.747   7.318   3.744
11521TIP3    H234507   4.778   7.466   3.753
11522TIP3   OH234508   4.091   1.288   6.714
11522TIP3    H134509   4.038   1.226   6.764
11522TIP3    H234510   4.144   1.333   6.780
11523TIP3   OH234511   3.961   6.262   4.930
11523TIP3    H134512   3.899   6.201   4.970
11523TIP3    H234513   3.906   6.332   4.894
11524TIP3   OH234514   3.070   2.307   0.333
11524TIP3    H134515   3.164   2.318   0.323
11524TIP3    H234516   3.054   2.214   0.315
11525TIP3   OH234517   5.493   5.512   6.332
11525TIP3    H134518   5.456   5.431   6.299
11525TIP3    H234519   5.519   5.560   6.253
11526TIP3   OH234520   5.128   3.212   5.885
11526TIP3    H134521   5.154   3.147   5.950
11526TIP3    H234522   5.034   3.199   5.874
11527TIP3   OH234523   1.849   6.302   6.065
11527TIP3    H134524   1.943   6.285   6.062
11527TIP3    H234525   1.841   6.395   6.046
11528TIP3   OH234526   0.523   7.047   4.614
11528TIP3    H134527   0.505   7.079   4.702
11528TIP3    H234528   0.572   6.966   4.627
11529TIP3   OH234529   6.391   2.694   6.623
11529TIP3    H134530   6.437   2.612   6.642
11529TIP3    H234531   6.373   2.691   6.529
11530TIP3   OH234532   1.117   0.856   6.598
11530TIP3    H134533   1.156   0.776   6.633
11530TIP3    H234534   1.135   0.922   6.664
11531TIP3   OH234535   4.598   0.266   5.187
11531TIP3    H134536   4.658   0.329   5.227
11531TIP3    H234537   4.517   0.275   5.236
11532TIP3   OH234538   0.517   5.760   3.942
11532TIP3    H134539   0.570   5.777   4.020
11532TIP3    H234540   0.433   5.802   3.962
11533TIP3   OH234541   0.787   4.767   2.302
11533TIP3    H134542   0.737   4.834   2.347
11533TIP3    H234543   0.862   4.813   2.265
11534TIP3   OH234544   8.004   2.248   4.673
11534TIP3    H134545   7.958   2.262   4.590
11534TIP3    H234546   7.975   2.162   4.703
11535TIP3   OH234547   2.209   0.949   0.077
11535TIP3    H134548   2.243   1.028   0.120
11535TIP3    H234549   2.257   0.945  -0.006
11536TIP3   OH234550   5.063   5.535   2.935
11536TIP3    H134551   5.055   5.625   2.903
11536TIP3    H234552   5.093   5.544   3.025
11537TIP3   OH234553   1.318   2.806   6.064
11537TIP3    H134554   1.307   2.733   6.125
11537TIP3    H234555   1.296   2.770   5.978
11538TIP3   OH234556   5.816   2.915   5.816
11538TIP3    H134557   5.778   2.977   5.755
11538TIP3    H234558   5.766   2.926   5.897
11539TIP3   OH234559   5.360   4.089   3.033
11539TIP3    H134560   5.364   4.182   3.057
11539TIP3    H234561   5.451   4.066   3.013
11540TIP3   OH234562   0.827   1.760   4.769
11540TIP3    H134563   0.815   1.846   4.728
11540TIP3    H234564   0.918   1.737   4.750
11541TIP3   OH234565   4.627   0.674   3.503
11541TIP3    H134566   4.652   0.608   3.568
11541TIP3    H234567   4.705   0.727   3.491
11542TIP3   OH234568   6.656   5.107   4.065
11542TIP3    H134569   6.706   5.130   4.143
11542TIP3    H234570   6.566   5.129   4.087
11543TIP3   OH234571   1.940   3.593   5.042
11543TIP3    H134572   1.907   3.601   4.952
11543TIP3    H234573   2.017   3.650   5.044
11544TIP3   OH234574   6.407   1.644   2.072
11544TIP3    H134575   6.495   1.673   2.093
11544TIP3    H234576   6.368   1.623   2.157
11545TIP3   OH234577   2.632   2.270   1.632
11545TIP3    H134578   2.651   2.177   1.620
11545TIP3    H234579   2.646   2.309   1.545
11546TIP3   OH234580   0.797   5.809   3.302
11546TIP3    H134581   0.862   5.837   3.238
11546TIP3    H234582   0.717   5.855   3.277
11547TIP3   OH234583   4.964   1.047   1.247
11547TIP3    H134584   4.983   1.141   1.250
11547TIP3    H234585   5.039   1.006   1.292
11548TIP3   OH234586   7.365   0.784   4.272
11548TIP3    H134587   7.346   0.713   4.334
11548TIP3    H234588   7.389   0.858   4.327
11549TIP3   OH234589   4.359   1.349   5.116
11549TIP3    H134590   4.421   1.315   5.051
11549TIP3    H234591   4.300   1.276   5.132
11550TIP3   OH234592   3.068   4.783   0.873
11550TIP3    H134593   2.996   4.752   0.818
11550TIP3    H234594   3.144   4.786   0.816
11551TIP3   OH234595   1.616   0.302   3.242
11551TIP3    H134596   1.679   0.257   3.298
11551TIP3    H234597   1.653   0.294   3.154
11552TIP3   OH234598   1.436   5.541   3.571
11552TIP3    H134599   1.490   5.562   3.648
11552TIP3    H234600   1.355   5.506   3.608
11553TIP3   OH234601   6.531   3.186   0.423
11553TIP3    H134602   6.468   3.118   0.446
11553TIP3    H234603   6.484   3.268   0.438
11554TIP3   OH234604   3.482   1.686   3.294
11554TIP3    H134605   3.453   1.768   3.254
11554TIP3    H234606   3.556   1.658   3.239
11555TIP3   OH234607   4.373   1.827   4.931
11555TIP3    H134608   4.392   1.745   4.978
11555TIP3    H234609   4.454   1.844   4.882
11556TIP3   OH234610   5.332   5.333   5.276
11556TIP3    H134611   5.276   5.367   5.206
11556TIP3    H234612   5.307   5.383   5.354
11557TIP3   OH234613   8.295   0.239   0.381
11557TIP3    H134614   8.307   0.244   0.476
11557TIP3    H234615   8.201   0.251   0.367
11558TIP3   OH234616   3.668   5.555   4.646
11558TIP3    H134617   3.635   5.571   4.558
11558TIP3    H234618   3.674   5.460   4.652
11559TIP3   OH234619   6.667   1.255   3.867
11559TIP3    H134620   6.687   1.163   3.853
11559TIP3    H234621   6.751   1.300   3.861
11560TIP3   OH234622   1.399   1.280   6.312
11560TIP3    H134623   1.451   1.317   6.240
11560TIP3    H234624   1.392   1.352   6.375
11561TIP3   OH234625   3.528   5.557   4.387
11561TIP3    H134626   3.454   5.521   4.337
11561TIP3    H234627   3.521   5.651   4.376
11562TIP3   OH234628   5.516   4.837   4.544
11562TIP3    H134629   5.520   4.821   4.450
11562TIP3    H234630   5.441   4.895   4.555
11563TIP3   OH234631   5.144   4.650   4.029
11563TIP3    H134632   5.149   4.568   3.980
11563TIP3    H234633   5.051   4.671   4.032
11564TIP3   OH234634   4.110   0.310   1.983
11564TIP3    H134635   4.069   0.314   1.897
11564TIP3    H234636   4.173   0.382   1.983
11565TIP3   OH234637   4.479   5.216   4.747
11565TIP3    H134638   4.446   5.201   4.835
11565TIP3    H234639   4.564   5.170   4.745
11566TIP3   OH234640   6.305   1.120   1.981
11566TIP3    H134641   6.290   1.086   1.893
11566TIP3    H234642   6.355   1.200   1.967
11567TIP3   OH234643   1.947   0.066   1.191
11567TIP3    H134644   1.852   0.067   1.191
11567TIP3    H234645   1.970  -0.025   1.171
11568TIP3   OH234646   1.849   2.544   6.462
11568TIP3    H134647   1.882   2.536   6.551
11568TIP3    H234648   1.896   2.619   6.425
11569TIP3   OH234649   4.601   0.858   1.229
11569TIP3    H134650   4.674   0.807   1.264
11569TIP3    H234651   4.643   0.927   1.178
11570TIP3   OH234652   6.565   4.554   5.251
11570TIP3    H134653   6.478   4.581   5.220
11570TIP3    H234654   6.626   4.590   5.187
11571TIP3   OH234655   6.820   7.463   6.740
11571TIP3    H134656   6.839   7.416   6.821
11571TIP3    H234657   6.893   7.439   6.681
11572TIP3   OH234658   0.317   3.449   1.339
11572TIP3    H134659   0.403   3.463   1.299
11572TIP3    H234660   0.335   3.402   1.420
11573TIP3   OH234661   4.355   0.061   6.015
11573TIP3    H134662   4.327   0.148   5.986
11573TIP3    H234663   4.274   0.012   6.026
11574TIP3   OH234664   3.359   3.015   1.748
11574TIP3    H134665   3.360   2.968   1.665
11574TIP3    H234666   3.343   3.106   1.723
11575TIP3   OH234667   1.282   0.075   0.902
11575TIP3    H134668   1.339   0.138   0.857
11575TIP3    H234669   1.261   0.117   0.985
11576TIP3   OH234670   7.608   6.616   3.524
11576TIP3    H134671   7.686   6.645   3.477
11576TIP3    H234672   7.571   6.696   3.559
11577TIP3   OH234673   3.623   7.129   2.541
11577TIP3    H134674   3.555   7.192   2.515
11577TIP3    H234675   3.678   7.178   2.603
11578TIP3   OH234676   1.582   0.378   1.585
11578TIP3    H134677   1.555   0.419   1.667
11578TIP3    H234678   1.500   0.350   1.544
11579TIP3   OH234679  -0.016   7.641   3.276
11579TIP3    H134680  -0.002   7.623   3.184
11579TIP3    H234681  -0.073   7.718   3.278
11580TIP3   OH234682   4.338   2.887   5.875
11580TIP3    H134683   4.297   2.920   5.796
11580TIP3    H234684   4.275   2.906   5.945
11581TIP3   OH234685   0.367   4.783   3.518
11581TIP3    H134686   0.313   4.708   3.492
11581TIP3    H234687   0.436   4.745   3.572
11582TIP3   OH234688   6.067   6.775   2.304
11582TIP3    H134689   6.028   6.827   2.234
11582TIP3    H234690   5.992   6.743   2.354
11583TIP3   OH234691   5.410   7.221   5.002
11583TIP3    H134692   5.447   7.148   4.953
11583TIP3    H234693   5.372   7.278   4.935
11584TIP3   OH234694   4.363   3.993   5.247
11584TIP3    H134695   4.280   3.967   5.285
11584TIP3    H234696   4.343   4.013   5.155
11585TIP3   OH234697   7.989   0.825   2.143
11585TIP3    H134698   7.955   0.767   2.212
11585TIP3    H234699   8.021   0.902   2.190
11586TIP3   OH234700   5.821   3.093   3.443
11586TIP3    H134701   5.741   3.137   3.416
11586TIP3    H234702   5.891   3.140   3.397
11587TIP3   OH234703   1.995   0.152   3.663
11587TIP3    H134704   2.043   0.081   3.620
11587TIP3    H234705   1.923   0.107   3.708
11588TIP3   OH234706   1.966   3.266   0.698
11588TIP3    H134707   1.886   3.254   0.647
11588TIP3    H234708   2.006   3.345   0.663
11589TIP3   OH234709   1.002   4.217   5.735
11589TIP3    H134710   1.040   4.130   5.726
11589TIP3    H234711   0.989   4.228   5.829
11590TIP3   OH234712   3.313   6.933   5.894
11590TIP3    H134713   3.339   7.022   5.916
11590TIP3    H234714   3.393   6.882   5.905
11591TIP3   OH234715   0.584   2.517   4.682
11591TIP3    H134716   0.546   2.562   4.607
11591TIP3    H234717   0.672   2.493   4.653
11592TIP3   OH234718   1.613   6.568   0.338
11592TIP3    H134719   1.583   6.500   0.399
11592TIP3    H234720   1.682   6.526   0.288
11593TIP3   OH234721   7.116   1.361   0.755
11593TIP3    H134722   7.033   1.360   0.802
11593TIP3    H234723   7.093   1.352   0.663
11594TIP3   OH234724   3.151   2.908   3.603
11594TIP3    H134725   3.096   2.909   3.525
11594TIP3    H234726   3.204   2.829   3.594
11595TIP3   OH234727   0.386   2.061   6.666
11595TIP3    H134728   0.442   1.984   6.674
11595TIP3    H234729   0.414   2.102   6.585
11596TIP3   OH234730   0.053   1.452   4.846
11596TIP3    H134731   0.125   1.430   4.905
11596TIP3    H234732  -0.026   1.438   4.898
11597TIP3   OH234733   0.864   2.683   6.500
11597TIP3    H134734   0.769   2.680   6.491
11597TIP3    H234735   0.879   2.678   6.595
11598TIP3   OH234736   2.608   6.494   1.688
11598TIP3    H134737   2.660   6.493   1.607
11598TIP3    H234738   2.573   6.582   1.693
11599TIP3   OH234739   1.361   7.335   2.592
11599TIP3    H134740   1.268   7.315   2.586
11599TIP3    H234741   1.401   7.252   2.620
11600TIP3   OH234742   3.915   6.663   1.079
11600TIP3    H134743   4.010   6.652   1.089
11600TIP3    H234744   3.905   6.737   1.020
11601TIP3   OH234745   5.033   5.703   0.358
11601TIP3    H134746   5.040   5.767   0.428
11601TIP3    H234747   5.071   5.746   0.282
11602TIP3   OH234748   3.696   0.513   3.216
11602TIP3    H134749   3.731   0.431   3.182
11602TIP3    H234750   3.773   0.564   3.242
11603TIP3   OH234751   4.178   0.166   4.463
11603TIP3    H134752   4.237   0.181   4.536
11603TIP3    H234753   4.235   0.165   4.386
11604TIP3   OH234754   6.206   1.769   5.331
11604TIP3    H134755   6.130   1.815   5.366
11604TIP3    H234756   6.170   1.712   5.263
11605TIP3   OH234757   4.233   2.341   2.499
11605TIP3    H134758   4.146   2.307   2.517
11605TIP3    H234759   4.292   2.285   2.549
11606TIP3   OH234760   4.126   5.953   2.249
11606TIP3    H134761   4.202   6.009   2.235
11606TIP3    H234762   4.071   6.000   2.311
11607TIP3   OH234763   3.169   0.480   0.644
11607TIP3    H134764   3.180   0.556   0.586
11607TIP3    H234765   3.211   0.505   0.726
11608TIP3   OH234766   6.462   5.041   1.867
11608TIP3    H134767   6.436   4.949   1.874
11608TIP3    H234768   6.388   5.084   1.824
11609TIP3   OH234769   2.125   7.377   5.622
11609TIP3    H134770   2.046   7.428   5.643
11609TIP3    H234771   2.172   7.431   5.559
11610TIP3   OH234772   5.685   6.045   6.714
11610TIP3    H134773   5.771   6.055   6.674
11610TIP3    H234774   5.648   6.133   6.713
11611TIP3   OH234775   6.519   0.102   1.952
11611TIP3    H134776   6.472   0.116   1.869
11611TIP3    H234777   6.536   0.190   1.985
11612TIP3   OH234778   7.811   3.996   4.365
11612TIP3    H134779   7.717   3.978   4.358
11612TIP3    H234780   7.816   4.091   4.373
11613TIP3   OH234781   6.276   6.918   2.358
11613TIP3    H134782   6.231   7.001   2.341
11613TIP3    H234783   6.246   6.859   2.288
11614TIP3   OH234784   6.647   6.154   3.088
11614TIP3    H134785   6.742   6.155   3.074
11614TIP3    H234786   6.637   6.163   3.182
11615TIP3   OH234787   1.098   2.744   6.300
11615TIP3    H134788   1.029   2.737   6.366
11615TIP3    H234789   1.144   2.825   6.322
11616TIP3   OH234790   2.300   1.457   5.656
11616TIP3    H134791   2.232   1.432   5.593
11616TIP3    H234792   2.253   1.502   5.726
11617TIP3   OH234793   7.455   2.179   0.055
11617TIP3    H134794   7.401   2.250   0.087
11617TIP3    H234795   7.484   2.132   0.134
11618TIP3   OH234796   7.948   0.594   1.239
11618TIP3    H134797   7.865   0.588   1.192
11618TIP3    H234798   7.999   0.520   1.205
11619TIP3   OH234799   2.074   6.801   1.177
11619TIP3    H134800   2.126   6.773   1.101
11619TIP3    H234801   2.004   6.737   1.183
11620TIP3   OH234802   3.170   5.940   6.645
11620TIP3    H134803   3.253   5.895   6.660
11620TIP3    H234804   3.163   6.003   6.717
11621TIP3   OH234805   7.654   2.648   6.089
11621TIP3    H134806   7.702   2.647   6.006
11621TIP3    H234807   7.720   2.667   6.155
11622TIP3   OH234808   0.245   5.349  -0.079
11622TIP3    H134809   0.174   5.377  -0.021
11622TIP3    H234810   0.300   5.292  -0.025
11623TIP3   OH234811   7.647   1.445   5.599
11623TIP3    H134812   7.721   1.391   5.572
11623TIP3    H234813   7.574   1.416   5.543
11624TIP3   OH234814   7.101   3.976   3.331
11624TIP3    H134815   7.161   3.945   3.262
11624TIP3    H234816   7.034   4.024   3.283
11625TIP3   OH234817   7.160   0.763   4.844
11625TIP3    H134818   7.146   0.838   4.787
11625TIP3    H234819   7.256   0.755   4.851
11626TIP3   OH234820   7.039   7.281   5.166
11626TIP3    H134821   7.094   7.299   5.090
11626TIP3    H234822   7.071   7.340   5.234
11627TIP3   OH234823   1.759   1.190   5.550
11627TIP3    H134824   1.698   1.122   5.520
11627TIP3    H234825   1.761   1.253   5.478
11628TIP3   OH234826   5.617   7.643   6.367
11628TIP3    H134827   5.685   7.666   6.430
11628TIP3    H234828   5.538   7.631   6.421
11629TIP3   OH234829   2.219   1.959   2.590
11629TIP3    H134830   2.250   1.874   2.558
11629TIP3    H234831   2.186   1.941   2.678
11630TIP3   OH234832   0.707   6.261   5.236
11630TIP3    H134833   0.692   6.347   5.276
11630TIP3    H234834   0.700   6.199   5.308
11631TIP3   OH234835   2.926   3.674   4.609
11631TIP3    H134836   2.935   3.661   4.703
11631TIP3    H234837   3.009   3.713   4.582
11632TIP3   OH234838   7.170   4.690   2.847
11632TIP3    H134839   7.202   4.600   2.847
11632TIP3    H234840   7.249   4.743   2.858
11633TIP3   OH234841   2.636   3.743   1.151
11633TIP3    H134842   2.581   3.757   1.074
11633TIP3    H234843   2.580   3.696   1.213
11634TIP3   OH234844   5.051   2.433   2.607
11634TIP3    H134845   5.054   2.451   2.513
11634TIP3    H234846   5.142   2.430   2.634
11635TIP3   OH234847   1.766   5.831   2.768
11635TIP3    H134848   1.828   5.823   2.696
11635TIP3    H234849   1.684   5.858   2.726
11636TIP3   OH234850   2.096   0.781   4.867
11636TIP3    H134851   2.013   0.805   4.908
11636TIP3    H234852   2.088   0.688   4.848
11637TIP3   OH234853   1.005   5.055   4.201
11637TIP3    H134854   1.088   5.058   4.249
11637TIP3    H234855   1.020   4.991   4.131
11638TIP3   OH234856   3.095   2.145   0.633
11638TIP3    H134857   3.053   2.195   0.703
11638TIP3    H234858   3.022   2.108   0.583
11639TIP3   OH234859   3.229   7.812   3.486
11639TIP3    H134860   3.201   7.790   3.397
11639TIP3    H234861   3.156   7.787   3.542
11640TIP3   OH234862   1.407   4.800   0.749
11640TIP3    H134863   1.338   4.865   0.763
11640TIP3    H234864   1.484   4.836   0.792
11641TIP3   OH234865   5.210   5.235   2.545
11641TIP3    H134866   5.188   5.203   2.457
11641TIP3    H234867   5.168   5.173   2.604
11642TIP3   OH234868   6.216   1.174   5.788
11642TIP3    H134869   6.220   1.116   5.712
11642TIP3    H234870   6.125   1.169   5.817
11643TIP3   OH234871   6.341   3.299   0.154
11643TIP3    H134872   6.295   3.216   0.139
11643TIP3    H234873   6.427   3.286   0.112
11644TIP3   OH234874   2.355   0.223   2.219
11644TIP3    H134875   2.417   0.160   2.255
11644TIP3    H234876   2.270   0.194   2.251
11645TIP3   OH234877   4.561   5.452   4.284
11645TIP3    H134878   4.549   5.440   4.378
11645TIP3    H234879   4.511   5.531   4.263
11646TIP3   OH234880   4.293   7.776   2.991
11646TIP3    H134881   4.226   7.727   3.039
11646TIP3    H234882   4.289   7.865   3.028
11647TIP3   OH234883   1.474   5.206   0.124
11647TIP3    H134884   1.380   5.219   0.111
11647TIP3    H234885   1.481   5.118   0.162
11648TIP3   OH234886   4.100   2.748   3.203
11648TIP3    H134887   4.181   2.714   3.242
11648TIP3    H234888   4.081   2.688   3.131
11649TIP3   OH234889   1.657   3.830   6.756
11649TIP3    H134890   1.672   3.881   6.677
11649TIP3    H234891   1.744   3.811   6.790
11650TIP3   OH234892   0.442   7.590   4.155
11650TIP3    H134893   0.409   7.532   4.086
11650TIP3    H234894   0.386   7.571   4.230
11651TIP3   OH234895   2.525   2.319   2.478
11651TIP3    H134896   2.598   2.309   2.418
11651TIP3    H234897   2.563   2.357   2.557
11652TIP3   OH234898   0.121   5.058   3.444
11652TIP3    H134899   0.032   5.077   3.474
11652TIP3    H234900   0.166   5.143   3.447
11653TIP3   OH234901   2.816   4.472   1.916
11653TIP3    H134902   2.901   4.452   1.954
11653TIP3    H234903   2.791   4.556   1.955
11654TIP3   OH234904   4.778   7.206   4.830
11654TIP3    H134905   4.865   7.245   4.839
11654TIP3    H234906   4.744   7.203   4.919
11655TIP3   OH234907   5.028   0.660   3.693
11655TIP3    H134908   5.072   0.715   3.629
11655TIP3    H234909   4.983   0.593   3.642
11656TIP3   OH234910  -0.027   5.123   0.407
11656TIP3    H134911  -0.010   5.116   0.313
11656TIP3    H234912  -0.045   5.033   0.434
11657TIP3   OH234913   2.860   6.549   4.624
11657TIP3    H134914   2.948   6.513   4.612
11657TIP3    H234915   2.847   6.607   4.549
11658TIP3   OH234916   3.338   7.483   2.834
11658TIP3    H134917   3.271   7.489   2.765
11658TIP3    H234918   3.307   7.413   2.891
11659TIP3   OH234919   8.239   0.693   1.226
11659TIP3    H134920   8.245   0.684   1.130
11659TIP3    H234921   8.313   0.750   1.249
11660TIP3   OH234922   0.204   4.238   4.238
11660TIP3    H134923   0.113   4.250   4.210
11660TIP3    H234924   0.207   4.271   4.328
11661TIP3   OH234925   4.520   1.247   1.752
11661TIP3    H134926   4.430   1.215   1.761
11661TIP3    H234927   4.524   1.325   1.808
11662TIP3   OH234928   5.953   6.061   6.639
11662TIP3    H134929   6.011   6.137   6.634
11662TIP3    H234930   6.001   5.997   6.692
11663TIP3   OH234931   1.415   2.167   2.459
11663TIP3    H134932   1.332   2.176   2.413
11663TIP3    H234933   1.407   2.085   2.508
11664TIP3   OH234934   6.766   7.559   5.541
11664TIP3    H134935   6.859   7.569   5.562
11664TIP3    H234936   6.745   7.635   5.486
11665TIP3   OH234937   7.885   5.113   0.748
11665TIP3    H134938   7.901   5.135   0.839
11665TIP3    H234939   7.793   5.137   0.733
11666TIP3   OH234940   8.088   6.290   1.151
11666TIP3    H134941   8.096   6.385   1.148
11666TIP3    H234942   8.158   6.258   1.094
11667TIP3   OH234943   5.376   2.978   4.946
11667TIP3    H134944   5.422   3.029   5.013
11667TIP3    H234945   5.371   2.889   4.983
11668TIP3   OH234946   2.543   7.511   5.118
11668TIP3    H134947   2.505   7.535   5.034
11668TIP3    H234948   2.471   7.518   5.180
11669TIP3   OH234949   1.506   0.000   4.664
11669TIP3    H134950   1.514   0.029   4.573
11669TIP3    H234951   1.529  -0.093   4.662
11670TIP3   OH234952   1.794   4.280   1.314
11670TIP3    H134953   1.884   4.263   1.340
11670TIP3    H234954   1.799   4.294   1.219
11671TIP3   OH234955   2.775   6.006   2.420
11671TIP3    H134956   2.747   5.952   2.494
11671TIP3    H234957   2.697   6.016   2.366
11672TIP3   OH234958   1.636   3.113   3.910
11672TIP3    H134959   1.680   3.147   3.988
11672TIP3    H234960   1.544   3.135   3.923
11673TIP3   OH234961   0.860   6.390   0.772
11673TIP3    H134962   0.918   6.313   0.771
11673TIP3    H234963   0.896   6.446   0.840
11674TIP3   OH234964   2.455   1.942   4.605
11674TIP3    H134965   2.446   1.856   4.564
11674TIP3    H234966   2.549   1.953   4.619
11675TIP3   OH234967   0.462   6.974   0.939
11675TIP3    H134968   0.554   7.000   0.948
11675TIP3    H234969   0.454   6.896   0.994
11676TIP3   OH234970   0.236   1.341   6.147
11676TIP3    H134971   0.294   1.408   6.112
11676TIP3    H234972   0.264   1.260   6.103
11677TIP3   OH234973   3.296   4.279   2.735
11677TIP3    H134974   3.344   4.226   2.672
11677TIP3    H234975   3.283   4.363   2.691
11678TIP3   OH234976   1.308   0.549   0.443
11678TIP3    H134977   1.270   0.613   0.504
11678TIP3    H234978   1.236   0.491   0.421
11679TIP3   OH234979   4.557   4.921   5.740
11679TIP3    H134980   4.647   4.911   5.708
11679TIP3    H234981   4.566   4.925   5.835
11680TIP3   OH234982   2.279   4.306   5.487
11680TIP3    H134983   2.254   4.386   5.532
11680TIP3    H234984   2.197   4.271   5.452
11681TIP3   OH234985   3.197   6.673   2.058
11681TIP3    H134986   3.275   6.621   2.036
11681TIP3    H234987   3.125   6.627   2.016
11682TIP3   OH234988   6.228   7.644   6.379
11682TIP3    H134989   6.275   7.579   6.326
11682TIP3    H234990   6.297   7.693   6.423
11683TIP3   OH234991   6.670   5.842   4.372
11683TIP3    H134992   6.763   5.843   4.349
11683TIP3    H234993   6.638   5.928   4.344
11684TIP3   OH234994   4.348   7.383   0.429
11684TIP3    H134995   4.344   7.353   0.338
11684TIP3    H234996   4.277   7.447   0.437
11685TIP3   OH234997   3.143   2.057   6.726
11685TIP3    H134998   3.119   2.126   6.665
11685TIP3    H234999   3.202   2.100   6.788
11686TIP3   OH235000   7.613   3.804   1.242
11686TIP3    H135001   7.602   3.899   1.247
11686TIP3    H235002   7.528   3.771   1.215
11687TIP3   OH235003   0.947   5.186   3.884
11687TIP3    H135004   0.970   5.099   3.916
11687TIP3    H235005   0.877   5.170   3.820
11688TIP3   OH235006   4.590   5.416   0.887
11688TIP3    H135007   4.584   5.468   0.968
11688TIP3    H235008   4.592   5.325   0.918
11689TIP3   OH235009   0.290   4.533   2.768
11689TIP3    H135010   0.242   4.602   2.722
11689TIP3    H235011   0.280   4.553   2.861
11690TIP3   OH235012   3.799   6.721   4.401
11690TIP3    H135013   3.884   6.734   4.443
11690TIP3    H235014   3.817   6.728   4.307
11691TIP3   OH235015   5.442   1.959   3.374
11691TIP3    H135016   5.519   1.932   3.323
11691TIP3    H235017   5.385   1.883   3.373
11692TIP3   OH235018   2.625   4.490   2.416
11692TIP3    H135019   2.719   4.473   2.408
11692TIP3    H235020   2.603   4.540   2.338
11693TIP3   OH235021   4.365   1.972   0.882
11693TIP3    H135022   4.423   1.900   0.906
11693TIP3    H235023   4.330   1.946   0.797
11694TIP3   OH235024   0.406   4.848   1.292
11694TIP3    H135025   0.333   4.894   1.251
11694TIP3    H235026   0.484   4.893   1.261
11695TIP3   OH235027   5.387   7.260   3.193
11695TIP3    H135028   5.380   7.171   3.157
11695TIP3    H235029   5.297   7.283   3.217
11696TIP3   OH235030   3.103   7.041   2.992
11696TIP3    H135031   3.013   7.071   3.008
11696TIP3    H235032   3.100   6.946   3.006
11697TIP3   OH235033   0.747   5.928   1.132
11697TIP3    H135034   0.717   5.992   1.197
11697TIP3    H235035   0.804   5.978   1.074
11698TIP3   OH235036   0.633   5.517   2.979
11698TIP3    H135037   0.596   5.541   2.894
11698TIP3    H235038   0.616   5.592   3.035
11699TIP3   OH235039   1.599   7.460   2.767
11699TIP3    H135040   1.566   7.464   2.677
11699TIP3    H235041   1.635   7.371   2.775
11700TIP3   OH235042   4.378   2.580   2.215
11700TIP3    H135043   4.444   2.562   2.148
11700TIP3    H235044   4.312   2.511   2.201
11701TIP3   OH235045   3.793   3.721   3.515
11701TIP3    H135046   3.796   3.720   3.611
11701TIP3    H235047   3.819   3.810   3.492
11702TIP3   OH235048   0.872   3.596   2.458
11702TIP3    H135049   0.896   3.675   2.410
11702TIP3    H235050   0.955   3.557   2.482
11703TIP3   OH235051   7.166   7.642   4.259
11703TIP3    H135052   7.080   7.627   4.298
11703TIP3    H235053   7.167   7.586   4.181
11704TIP3   OH235054   5.735   4.114   4.031
11704TIP3    H135055   5.816   4.074   4.063
11704TIP3    H235056   5.682   4.127   4.109
11705TIP3   OH235057   6.757   6.588   0.191
11705TIP3    H135058   6.682   6.588   0.131
11705TIP3    H235059   6.750   6.672   0.236
11706TIP3   OH235060   2.666   2.814   2.931
11706TIP3    H135061   2.684   2.785   2.842
11706TIP3    H235062   2.647   2.734   2.980
11707TIP3   OH235063   7.776   5.701   5.430
11707TIP3    H135064   7.786   5.730   5.340
11707TIP3    H235065   7.790   5.606   5.426
11708TIP3   OH235066   3.646   7.233   5.086
11708TIP3    H135067   3.634   7.215   4.993
11708TIP3    H235068   3.577   7.184   5.130
11709TIP3   OH235069   2.151   1.604   0.354
11709TIP3    H135070   2.153   1.685   0.303
11709TIP3    H235071   2.182   1.537   0.294
11710TIP3   OH235072   1.642   0.827   5.623
11710TIP3    H135073   1.582   0.803   5.694
11710TIP3    H235074   1.602   0.904   5.583
11711TIP3   OH235075   2.565   3.460   5.880
11711TIP3    H135076   2.553   3.367   5.900
11711TIP3    H235077   2.484   3.502   5.910
11712TIP3   OH235078   6.614   1.248   5.241
11712TIP3    H135079   6.688   1.253   5.181
11712TIP3    H235080   6.547   1.304   5.202
11713TIP3   OH235081   0.503   1.427   0.736
11713TIP3    H135082   0.480   1.334   0.739
11713TIP3    H235083   0.465   1.458   0.654
11714TIP3   OH235084   4.213   3.112   5.398
11714TIP3    H135085   4.124   3.111   5.362
11714TIP3    H235086   4.263   3.053   5.342
11715TIP3   OH235087   3.273   4.532   2.620
11715TIP3    H135088   3.343   4.544   2.555
11715TIP3    H235089   3.217   4.609   2.607
11716TIP3   OH235090   1.852   3.124   5.492
11716TIP3    H135091   1.773   3.169   5.520
11716TIP3    H235092   1.919   3.151   5.555
11717TIP3   OH235093   0.514   7.088   2.227
11717TIP3    H135094   0.531   7.058   2.138
11717TIP3    H235095   0.505   7.008   2.279
11718TIP3   OH235096   7.847   0.589   6.602
11718TIP3    H135097   7.777   0.582   6.537
11718TIP3    H235098   7.801   0.604   6.685
11719TIP3   OH235099   2.167   0.736   3.735
11719TIP3    H135100   2.206   0.775   3.814
11719TIP3    H235101   2.073   0.750   3.745
11720TIP3   OH235102   6.530   6.305   4.700
11720TIP3    H135103   6.557   6.380   4.647
11720TIP3    H235104   6.516   6.340   4.787
11721TIP3   OH235105   0.046   5.612   2.142
11721TIP3    H135106   0.056   5.528   2.098
11721TIP3    H235107   0.099   5.673   2.090
11722TIP3   OH235108   5.112   5.782   5.993
11722TIP3    H135109   5.036   5.824   5.953
11722TIP3    H235110   5.134   5.710   5.934
11723TIP3   OH235111   5.483   4.928   6.594
11723TIP3    H135112   5.417   4.966   6.536
11723TIP3    H235113   5.520   4.856   6.544
11724TIP3   OH235114   5.048   6.709   3.159
11724TIP3    H135115   5.141   6.700   3.141
11724TIP3    H235116   5.005   6.677   3.079
11725TIP3   OH235117   1.223   5.370   3.606
11725TIP3    H135118   1.257   5.302   3.547
11725TIP3    H235119   1.128   5.367   3.593
11726TIP3   OH235120   3.927   2.878   6.706
11726TIP3    H135121   4.014   2.850   6.678
11726TIP3    H235122   3.899   2.940   6.638
11727TIP3   OH235123   7.449   3.917   5.767
11727TIP3    H135124   7.359   3.920   5.799
11727TIP3    H235125   7.459   3.829   5.731
11728TIP3   OH235126   2.578   6.774   1.613
11728TIP3    H135127   2.594   6.868   1.608
11728TIP3    H235128   2.532   6.753   1.531
11729TIP3   OH235129   7.973   2.592   2.119
11729TIP3    H135130   7.895   2.538   2.106
11729TIP3    H235131   8.031   2.569   2.046
11730TIP3   OH235132   7.900   1.412   6.127
11730TIP3    H135133   7.965   1.422   6.197
11730TIP3    H235134   7.819   1.391   6.173
11731TIP3   OH235135   1.101   0.440   1.281
11731TIP3    H135136   1.011   0.433   1.314
11731TIP3    H235137   1.105   0.527   1.242
11732TIP3   OH235138   7.093   5.361   0.394
11732TIP3    H135139   7.046   5.443   0.406
11732TIP3    H235140   7.177   5.375   0.438
11733TIP3   OH235141   1.950   1.798   2.999
11733TIP3    H135142   1.870   1.830   3.040
11733TIP3    H235143   1.926   1.784   2.907
11734TIP3   OH235144   2.517   0.528   1.142
11734TIP3    H135145   2.585   0.512   1.207
11734TIP3    H235146   2.565   0.549   1.061
11735TIP3   OH235147   8.326   2.830   2.887
11735TIP3    H135148   8.366   2.821   2.973
11735TIP3    H235149   8.232   2.820   2.903
11736TIP3   OH235150   5.537   3.430   2.428
11736TIP3    H135151   5.572   3.376   2.357
11736TIP3    H235152   5.457   3.469   2.392
11737TIP3   OH235153   0.968   2.845   5.893
11737TIP3    H135154   0.895   2.868   5.950
11737TIP3    H235155   0.979   2.750   5.903
11738TIP3   OH235156   4.835   7.531   4.947
11738TIP3    H135157   4.852   7.606   5.003
11738TIP3    H235158   4.914   7.477   4.954
11739TIP3   OH235159   3.464   0.372   1.441
11739TIP3    H135160   3.385   0.321   1.460
11739TIP3    H235161   3.523   0.352   1.515
11740TIP3   OH235162   7.812   5.727   3.623
11740TIP3    H135163   7.817   5.646   3.573
11740TIP3    H235164   7.719   5.752   3.620
11741TIP3   OH235165   6.218   2.705   5.059
11741TIP3    H135166   6.141   2.682   5.007
11741TIP3    H235167   6.229   2.632   5.120
11742TIP3   OH235168   6.599   1.052   6.357
11742TIP3    H135169   6.640   1.137   6.345
11742TIP3    H235170   6.507   1.066   6.332
11743TIP3   OH235171   0.820   4.973   4.716
11743TIP3    H135172   0.745   5.032   4.724
11743TIP3    H235173   0.798   4.915   4.643
11744TIP3   OH235174   1.434   6.432   4.712
11744TIP3    H135175   1.378   6.408   4.639
11744TIP3    H235176   1.373   6.452   4.783
11745TIP3   OH235177   2.796   0.702   5.021
11745TIP3    H135178   2.792   0.680   4.928
11745TIP3    H235179   2.885   0.680   5.047
11746TIP3   OH235180   6.816   4.335   4.719
11746TIP3    H135181   6.886   4.340   4.784
11746TIP3    H235182   6.860   4.310   4.638
11747TIP3   OH235183   1.552   6.751   0.529
11747TIP3    H135184   1.537   6.845   0.540
11747TIP3    H235185   1.569   6.740   0.436
11748TIP3   OH235186   6.642   3.876   5.531
11748TIP3    H135187   6.668   3.798   5.580
11748TIP3    H235188   6.598   3.931   5.596
11749TIP3   OH235189   3.399   6.114   5.855
11749TIP3    H135190   3.308   6.097   5.829
11749TIP3    H235191   3.451   6.073   5.786
11750TIP3   OH235192   6.921   3.040   3.792
11750TIP3    H135193   6.939   2.951   3.761
11750TIP3    H235194   6.935   3.035   3.887
11751TIP3   OH235195   1.375   1.354   1.723
11751TIP3    H135196   1.359   1.437   1.679
11751TIP3    H235197   1.293   1.306   1.715
11752TIP3   OH235198   0.306   7.608   0.078
11752TIP3    H135199   0.386   7.657   0.099
11752TIP3    H235200   0.333   7.516   0.083
11753TIP3   OH235201   2.529   5.445   4.696
11753TIP3    H135202   2.575   5.518   4.654
11753TIP3    H235203   2.599   5.386   4.724
11754TIP3   OH235204   3.388   5.725   2.350
11754TIP3    H135205   3.352   5.786   2.415
11754TIP3    H235206   3.313   5.669   2.326
11755TIP3   OH235207   1.965   7.246   5.028
11755TIP3    H135208   2.029   7.313   5.053
11755TIP3    H235209   1.885   7.271   5.073
11756TIP3   OH235210   1.028   5.955   4.905
11756TIP3    H135211   1.013   5.939   4.812
11756TIP3    H235212   1.087   6.031   4.907
11757TIP3   OH235213   7.329   6.161   2.960
11757TIP3    H135214   7.368   6.237   2.916
11757TIP3    H235215   7.383   6.148   3.037
11758TIP3   OH235216   5.240   7.771   1.603
11758TIP3    H135217   5.174   7.825   1.558
11758TIP3    H235218   5.203   7.683   1.601
11759TIP3   OH235219   5.318   6.642   3.078
11759TIP3    H135220   5.353   6.600   3.157
11759TIP3    H235221   5.373   6.610   3.007
11760TIP3   OH235222   6.621   0.722   0.206
11760TIP3    H135223   6.589   0.634   0.187
11760TIP3    H235224   6.626   0.764   0.120
11761TIP3   OH235225   4.416   3.590   0.238
11761TIP3    H135226   4.359   3.627   0.170
11761TIP3    H235227   4.384   3.628   0.319
11762TIP3   OH235228   5.595   4.303   0.816
11762TIP3    H135229   5.539   4.307   0.894
11762TIP3    H235230   5.589   4.391   0.778
11763TIP3   OH235231   1.292   5.203   2.729
11763TIP3    H135232   1.238   5.238   2.800
11763TIP3    H235233   1.229   5.175   2.663
11764TIP3   OH235234   6.232   6.607   1.690
11764TIP3    H135235   6.313   6.612   1.640
11764TIP3    H235236   6.259   6.576   1.776
11765TIP3   OH235237   6.486   1.176   2.950
11765TIP3    H135238   6.442   1.125   2.883
11765TIP3    H235239   6.488   1.119   3.027
11766TIP3   OH235240   3.541   5.428   6.021
11766TIP3    H135241   3.461   5.437   6.073
11766TIP3    H235242   3.601   5.379   6.077
11767TIP3   OH235243   6.906   6.112   2.970
11767TIP3    H135244   6.985   6.057   2.973
11767TIP3    H235245   6.933   6.195   3.010
11768TIP3   OH235246   4.240   4.927   4.571
11768TIP3    H135247   4.155   4.905   4.531
11768TIP3    H235248   4.278   4.992   4.511
11769TIP3   OH235249   1.070   7.325   2.518
11769TIP3    H135250   1.059   7.354   2.608
11769TIP3    H235251   0.989   7.350   2.474
11770TIP3   OH235252   2.399   4.207   6.072
11770TIP3    H135253   2.421   4.169   6.157
11770TIP3    H235254   2.318   4.256   6.088
11771TIP3   OH235255   0.697   3.459   3.451
11771TIP3    H135256   0.667   3.391   3.392
11771TIP3    H235257   0.650   3.538   3.424
11772TIP3   OH235258   2.198   3.126   6.522
11772TIP3    H135259   2.165   3.053   6.471
11772TIP3    H235260   2.230   3.189   6.458
11773TIP3   OH235261   6.132   5.241   5.155
11773TIP3    H135262   6.078   5.191   5.094
11773TIP3    H235263   6.180   5.176   5.206
11774TIP3   OH235264  -0.039   0.584   5.824
11774TIP3    H135265  -0.014   0.547   5.739
11774TIP3    H235266   0.002   0.671   5.825
11775TIP3   OH235267   3.595   3.087   4.883
11775TIP3    H135268   3.505   3.119   4.887
11775TIP3    H235269   3.643   3.156   4.837
11776TIP3   OH235270   7.878   3.016   5.157
11776TIP3    H135271   7.969   3.028   5.185
11776TIP3    H235272   7.826   3.054   5.227
11777TIP3   OH235273   2.519   0.794   2.808
11777TIP3    H135274   2.535   0.723   2.871
11777TIP3    H235275   2.598   0.798   2.755
11778TIP3   OH235276   5.764   2.811   5.483
11778TIP3    H135277   5.852   2.826   5.447
11778TIP3    H235278   5.776   2.744   5.550
11779TIP3   OH235279   4.682   5.660   1.030
11779TIP3    H135280   4.767   5.705   1.023
11779TIP3    H235281   4.692   5.603   1.106
11780TIP3   OH235282   3.758   2.502   1.155
11780TIP3    H135283   3.684   2.541   1.108
11780TIP3    H235284   3.828   2.567   1.148
11781TIP3   OH235285   8.176   5.731   5.542
11781TIP3    H135286   8.187   5.685   5.625
11781TIP3    H235287   8.119   5.674   5.490
11782TIP3   OH235288   5.650   4.669   3.845
11782TIP3    H135289   5.725   4.679   3.787
11782TIP3    H235290   5.591   4.740   3.822
11783TIP3   OH235291   7.471   6.134   0.225
11783TIP3    H135292   7.404   6.092   0.171
11783TIP3    H235293   7.475   6.080   0.304
11784TIP3   OH235294   1.594   3.351   2.496
11784TIP3    H135295   1.604   3.302   2.414
11784TIP3    H235296   1.683   3.382   2.515
11785TIP3   OH235297   7.896   6.057   0.837
11785TIP3    H135298   7.859   5.989   0.782
11785TIP3    H235299   7.826   6.122   0.845
11786TIP3   OH235300   7.374   7.214   4.586
11786TIP3    H135301   7.444   7.182   4.529
11786TIP3    H235302   7.307   7.246   4.526
11787TIP3   OH235303   8.148   5.456   2.266
11787TIP3    H135304   8.207   5.525   2.235
11787TIP3    H235305   8.125   5.408   2.187
11788TIP3   OH235306   6.821   5.323   2.386
11788TIP3    H135307   6.862   5.340   2.301
11788TIP3    H235308   6.894   5.323   2.448
11789TIP3   OH235309   8.313   4.986   5.476
11789TIP3    H135310   8.266   5.001   5.558
11789TIP3    H235311   8.405   4.998   5.498
11790TIP3   OH235312   0.157   4.230   1.140
11790TIP3    H135313   0.245   4.206   1.108
11790TIP3    H235314   0.172   4.267   1.226
11791TIP3   OH235315   8.122   4.720   0.453
11791TIP3    H135316   8.166   4.636   0.442
11791TIP3    H235317   8.046   4.700   0.508
11792TIP3   OH235318   4.172   4.357   3.632
11792TIP3    H135319   4.124   4.297   3.688
11792TIP3    H235320   4.262   4.354   3.664
11793TIP3   OH235321   4.502   0.783   5.740
11793TIP3    H135322   4.414   0.751   5.718
11793TIP3    H235323   4.560   0.718   5.701
11794TIP3   OH235324   4.307   0.934   2.760
11794TIP3    H135325   4.351   0.893   2.834
11794TIP3    H235326   4.369   0.999   2.728
11795TIP3   OH235327   7.153   4.841   0.218
11795TIP3    H135328   7.110   4.756   0.220
11795TIP3    H235329   7.102   4.896   0.277
11796TIP3   OH235330   7.347   4.971   0.090
11796TIP3    H135331   7.289   4.946   0.162
11796TIP3    H235332   7.431   4.931   0.112
11797TIP3   OH235333   0.582   0.147   2.989
11797TIP3    H135334   0.555   0.138   2.897
11797TIP3    H235335   0.670   0.186   2.984
11798TIP3   OH235336   1.294   5.218   4.907
11798TIP3    H135337   1.269   5.309   4.895
11798TIP3    H235338   1.315   5.187   4.820
11799TIP3   OH235339   7.697   4.690   5.555
11799TIP3    H135340   7.760   4.699   5.483
11799TIP3    H235341   7.612   4.695   5.513
11800TIP3   OH235342   0.039   4.547   4.026
11800TIP3    H135343   0.133   4.530   4.021
11800TIP3    H235344   0.032   4.626   4.079
11801TIP3   OH235345   4.115   4.311   4.695
11801TIP3    H135346   4.166   4.278   4.621
11801TIP3    H235347   4.180   4.349   4.754
11802TIP3   OH235348   6.526   0.525   1.755
11802TIP3    H135349   6.448   0.521   1.810
11802TIP3    H235350   6.593   0.479   1.804
11803TIP3   OH235351   5.519   2.580   4.650
11803TIP3    H135352   5.472   2.547   4.727
11803TIP3    H235353   5.523   2.506   4.590
11804TIP3   OH235354   2.869   1.154   2.604
11804TIP3    H135355   2.912   1.078   2.565
11804TIP3    H235356   2.822   1.118   2.680
11805TIP3   OH235357   6.012   3.845   2.004
11805TIP3    H135358   5.936   3.806   1.963
11805TIP3    H235359   6.062   3.883   1.932
11806TIP3   OH235360   8.204   5.010   0.841
11806TIP3    H135361   8.187   4.972   0.755
11806TIP3    H235362   8.118   5.035   0.875
11807TIP3   OH235363   6.530   0.677   5.472
11807TIP3    H135364   6.499   0.624   5.545
11807TIP3    H235365   6.623   0.690   5.489
11808TIP3   OH235366   3.917   1.161   6.280
11808TIP3    H135367   3.889   1.073   6.307
11808TIP3    H235368   3.991   1.180   6.338
11809TIP3   OH235369   3.687   1.363   0.866
11809TIP3    H135370   3.638   1.360   0.783
11809TIP3    H235371   3.683   1.455   0.892
11810TIP3   OH235372   3.388   6.030   4.914
11810TIP3    H135373   3.378   6.119   4.948
11810TIP3    H235374   3.345   6.032   4.829
11811TIP3   OH235375   7.799   5.379   4.437
11811TIP3    H135376   7.735   5.445   4.466
11811TIP3    H235377   7.877   5.396   4.490
11812TIP3   OH235378   6.412   0.778   2.238
11812TIP3    H135379   6.467   0.734   2.174
11812TIP3    H235380   6.352   0.710   2.269
11813TIP3   OH235381   4.946   3.503   2.990
11813TIP3    H135382   4.877   3.440   3.013
11813TIP3    H235383   4.903   3.565   2.932
11814TIP3   OH235384   2.129   6.314   2.196
11814TIP3    H135385   2.113   6.404   2.225
11814TIP3    H235386   2.043   6.284   2.165
11815TIP3   OH235387   2.217   5.201   1.801
11815TIP3    H135388   2.165   5.274   1.835
11815TIP3    H235389   2.308   5.226   1.818
11816TIP3   OH235390   5.523   3.760   3.937
11816TIP3    H135391   5.500   3.668   3.936
11816TIP3    H235392   5.503   3.792   3.849
11817TIP3   OH235393   3.361   3.166   4.008
11817TIP3    H135394   3.424   3.125   3.949
11817TIP3    H235395   3.410   3.235   4.053
11818TIP3   OH235396   1.163   1.267   2.459
11818TIP3    H135397   1.139   1.261   2.367
11818TIP3    H235398   1.131   1.353   2.487
11819TIP3   OH235399   5.407   5.034   5.837
11819TIP3    H135400   5.328   5.073   5.877
11819TIP3    H235401   5.409   5.071   5.748
11820TIP3   OH235402   2.528   0.401   2.744
11820TIP3    H135403   2.495   0.441   2.824
11820TIP3    H235404   2.485   0.449   2.673
11821TIP3   OH235405   6.498   3.451   5.381
11821TIP3    H135406   6.565   3.510   5.347
11821TIP3    H235407   6.495   3.378   5.320
11822TIP3   OH235408   0.683   0.740   5.763
11822TIP3    H135409   0.685   0.741   5.858
11822TIP3    H235410   0.766   0.699   5.738
11823TIP3   OH235411   6.628   1.213   3.392
11823TIP3    H135412   6.722   1.232   3.383
11823TIP3    H235413   6.614   1.137   3.336
11824TIP3   OH235414   4.482   6.592   4.921
11824TIP3    H135415   4.550   6.640   4.874
11824TIP3    H235416   4.443   6.658   4.980
11825TIP3   OH235417   7.284   5.025   3.690
11825TIP3    H135418   7.367   5.003   3.731
11825TIP3    H235419   7.255   4.943   3.649
11826TIP3   OH235420   5.718   0.795   2.096
11826TIP3    H135421   5.692   0.788   2.188
11826TIP3    H235422   5.810   0.821   2.099
11827TIP3   OH235423   6.855   1.756   5.562
11827TIP3    H135424   6.848   1.661   5.557
11827TIP3    H235425   6.941   1.772   5.601
11828TIP3   OH235426   2.812   7.209   6.155
11828TIP3    H135427   2.890   7.251   6.117
11828TIP3    H235428   2.810   7.123   6.114
11829TIP3   OH235429   2.602   6.530   6.044
11829TIP3    H135430   2.543   6.601   6.070
11829TIP3    H235431   2.677   6.539   6.103
11830TIP3   OH235432   5.472   5.039   0.677
11830TIP3    H135433   5.541   5.104   0.688
11830TIP3    H235434   5.518   4.960   0.650
11831TIP3   OH235435   6.222   5.054   4.844
11831TIP3    H135436   6.142   5.094   4.878
11831TIP3    H235437   6.193   4.998   4.772
11832TIP3   OH235438   2.058   2.095   6.161
11832TIP3    H135439   2.046   2.091   6.256
11832TIP3    H235440   2.113   2.019   6.141
11833TIP3   OH235441   4.111   3.878   6.637
11833TIP3    H135442   4.122   3.797   6.587
11833TIP3    H235443   4.057   3.934   6.582
11834TIP3   OH235444   3.444   1.490   2.984
11834TIP3    H135445   3.512   1.556   2.996
11834TIP3    H235446   3.453   1.460   2.894
11835TIP3   OH235447   2.053   2.126   2.820
11835TIP3    H135448   2.008   2.176   2.753
11835TIP3    H235449   1.989   2.117   2.890
11836TIP3   OH235450   1.165   6.652   2.286
11836TIP3    H135451   1.240   6.597   2.308
11836TIP3    H235452   1.192   6.741   2.310
11837TIP3   OH235453   0.342   1.909   1.930
11837TIP3    H135454   0.317   1.901   2.022
11837TIP3    H235455   0.431   1.872   1.926
11838TIP3   OH235456   5.558   6.716   0.847
11838TIP3    H135457   5.491   6.692   0.911
11838TIP3    H235458   5.629   6.654   0.863
11839TIP3   OH235459   0.544   0.251   5.417
11839TIP3    H135460   0.472   0.190   5.432
11839TIP3    H235461   0.559   0.292   5.502
11840TIP3   OH235462   3.371   0.482   4.630
11840TIP3    H135463   3.442   0.452   4.687
11840TIP3    H235464   3.416   0.522   4.555
11841TIP3   OH235465   7.424   6.918   6.474
11841TIP3    H135466   7.335   6.896   6.501
11841TIP3    H235467   7.470   6.834   6.471
11842TIP3   OH235468   7.335   2.615   2.815
11842TIP3    H135469   7.299   2.697   2.781
11842TIP3    H235470   7.416   2.641   2.860
11843TIP3   OH235471   7.214   3.430   4.841
11843TIP3    H135472   7.266   3.443   4.921
11843TIP3    H235473   7.187   3.518   4.816
11844TIP3   OH235474   2.975   1.035   5.276
11844TIP3    H135475   3.011   0.959   5.322
11844TIP3    H235476   2.880   1.024   5.281
11845TIP3   OH235477   5.968   6.799   4.338
11845TIP3    H135478   5.973   6.705   4.321
11845TIP3    H235479   5.874   6.817   4.344
11846TIP3   OH235480   0.228   6.784   0.618
11846TIP3    H135481   0.272   6.712   0.664
11846TIP3    H235482   0.297   6.849   0.605
11847TIP3   OH235483   0.920   0.411   2.376
11847TIP3    H135484   0.995   0.381   2.324
11847TIP3    H235485   0.935   0.374   2.463
11848TIP3   OH235486   6.475   4.518   2.837
11848TIP3    H135487   6.444   4.447   2.893
11848TIP3    H235488   6.436   4.597   2.874
11849TIP3   OH235489   6.098   4.862   2.435
11849TIP3    H135490   6.072   4.770   2.436
11849TIP3    H235491   6.178   4.864   2.383
11850TIP3   OH235492   7.767   1.634   3.756
11850TIP3    H135493   7.855   1.600   3.769
11850TIP3    H235494   7.756   1.637   3.661
11851TIP3   OH235495   6.433   0.858   0.963
11851TIP3    H135496   6.436   0.816   0.878
11851TIP3    H235497   6.393   0.793   1.021
11852TIP3   OH235498   2.582   1.093   4.768
11852TIP3    H135499   2.635   1.171   4.786
11852TIP3    H235500   2.536   1.076   4.850
11853TIP3   OH235501   1.530   2.514   4.581
11853TIP3    H135502   1.506   2.520   4.489
11853TIP3    H235503   1.542   2.605   4.609
11854TIP3   OH235504   7.344   2.735   3.596
11854TIP3    H135505   7.338   2.745   3.691
11854TIP3    H235506   7.280   2.667   3.576
11855TIP3   OH235507   6.076   5.466   1.175
11855TIP3    H135508   6.033   5.423   1.250
11855TIP3    H235509   6.024   5.545   1.160
11856TIP3   OH235510   2.451   0.860   6.716
11856TIP3    H135511   2.413   0.939   6.754
11856TIP3    H235512   2.476   0.886   6.627
11857TIP3   OH235513   2.569   2.029   5.758
11857TIP3    H135514   2.573   2.123   5.774
11857TIP3    H235515   2.657   1.997   5.780
11858TIP3   OH235516   2.271   4.321   2.681
11858TIP3    H135517   2.196   4.323   2.739
11858TIP3    H235518   2.240   4.276   2.602
11859TIP3   OH235519   2.783   1.812   0.330
11859TIP3    H135520   2.767   1.820   0.236
11859TIP3    H235521   2.712   1.756   0.362
11860TIP3   OH235522   4.980   0.935   0.058
11860TIP3    H135523   4.905   0.991   0.040
11860TIP3    H235524   4.997   0.890  -0.024
11861TIP3   OH235525   4.702   0.108   2.231
11861TIP3    H135526   4.767   0.072   2.171
11861TIP3    H235527   4.651   0.169   2.177
11862TIP3   OH235528   4.411   6.061   2.999
11862TIP3    H135529   4.337   6.087   3.054
11862TIP3    H235530   4.386   6.087   2.911
11863TIP3   OH235531   6.639   6.538   5.778
11863TIP3    H135532   6.673   6.614   5.825
11863TIP3    H235533   6.716   6.500   5.736
11864TIP3   OH235534   2.220   6.397   4.818
11864TIP3    H135535   2.171   6.345   4.754
11864TIP3    H235536   2.309   6.403   4.781
11865TIP3   OH235537   7.746   6.096   1.380
11865TIP3    H135538   7.716   6.101   1.470
11865TIP3    H235539   7.686   6.153   1.331
11866TIP3   OH235540   1.163   1.808   3.495
11866TIP3    H135541   1.151   1.898   3.464
11866TIP3    H235542   1.074   1.777   3.512
11867TIP3   OH235543   6.393   4.577   3.187
11867TIP3    H135544   6.376   4.504   3.128
11867TIP3    H235545   6.390   4.655   3.131
11868TIP3   OH235546   4.500   6.270   6.677
11868TIP3    H135547   4.491   6.246   6.585
11868TIP3    H235548   4.472   6.192   6.725
11869TIP3   OH235549   2.231   2.586   6.685
11869TIP3    H135550   2.229   2.551   6.596
11869TIP3    H235551   2.222   2.509   6.741
11870TIP3   OH235552   6.306   7.090   4.095
11870TIP3    H135553   6.262   7.140   4.026
11870TIP3    H235554   6.236   7.042   4.139
11871TIP3   OH235555   1.740   6.130   1.203
11871TIP3    H135556   1.816   6.174   1.238
11871TIP3    H235557   1.758   6.122   1.109
11872TIP3   OH235558   2.468   4.959   5.238
11872TIP3    H135559   2.405   5.024   5.268
11872TIP3    H235560   2.419   4.904   5.177
11873TIP3   OH235561   4.618   5.519   2.783
11873TIP3    H135562   4.574   5.550   2.703
11873TIP3    H235563   4.618   5.424   2.775
11874TIP3   OH235564   3.722   3.307   3.129
11874TIP3    H135565   3.703   3.362   3.205
11874TIP3    H235566   3.776   3.362   3.073
11875TIP3   OH235567   5.260   0.397   3.007
11875TIP3    H135568   5.347   0.417   3.041
11875TIP3    H235569   5.277   0.344   2.929
11876TIP3   OH235570   1.180   6.433   0.499
11876TIP3    H135571   1.110   6.498   0.493
11876TIP3    H235572   1.243   6.458   0.432
11877TIP3   OH235573   4.588   4.510   1.391
11877TIP3    H135574   4.651   4.532   1.460
11877TIP3    H235575   4.535   4.589   1.382
11878TIP3   OH235576   6.325   6.549   3.055
11878TIP3    H135577   6.415   6.517   3.042
11878TIP3    H235578   6.270   6.487   3.007
11879TIP3   OH235579   0.987   3.329   6.062
11879TIP3    H135580   0.941   3.413   6.067
11879TIP3    H235581   1.067   3.349   6.013
11880TIP3   OH235582   2.986   5.739   4.332
11880TIP3    H135583   2.987   5.658   4.383
11880TIP3    H235584   3.077   5.755   4.309
11881TIP3   OH235585   2.431   6.762   0.780
11881TIP3    H135586   2.415   6.797   0.692
11881TIP3    H235587   2.507   6.705   0.770
11882TIP3   OH235588   1.152   1.919   5.283
11882TIP3    H135589   1.209   1.892   5.355
11882TIP3    H235590   1.143   2.014   5.293
11883TIP3   OH235591   3.318   7.782   4.613
11883TIP3    H135592   3.323   7.876   4.595
11883TIP3    H235593   3.297   7.777   4.706
11884TIP3   OH235594   1.972   3.520   3.662
11884TIP3    H135595   1.927   3.441   3.634
11884TIP3    H235596   1.957   3.525   3.756
11885TIP3   OH235597   2.967   2.380   5.364
11885TIP3    H135598   3.041   2.399   5.421
11885TIP3    H235599   2.915   2.316   5.413
11886TIP3   OH235600   3.061   6.986   6.476
11886TIP3    H135601   2.974   7.007   6.443
11886TIP3    H235602   3.069   6.891   6.465
11887TIP3   OH235603   8.083   2.762   2.980
11887TIP3    H135604   8.001   2.713   2.975
11887TIP3    H235605   8.111   2.752   3.071
11888TIP3   OH235606   2.102   2.263   3.286
11888TIP3    H135607   2.164   2.200   3.248
11888TIP3    H235608   2.016   2.228   3.262
11889TIP3   OH235609   4.230   5.902   1.692
11889TIP3    H135610   4.304   5.842   1.706
11889TIP3    H235611   4.153   5.850   1.715
11890TIP3   OH235612   2.466   6.829   2.420
11890TIP3    H135613   2.494   6.763   2.356
11890TIP3    H235614   2.373   6.843   2.401
11891TIP3   OH235615   8.081   0.842   2.803
11891TIP3    H135616   7.995   0.820   2.838
11891TIP3    H235617   8.123   0.893   2.873
11892TIP3   OH235618   0.583   6.435   3.779
11892TIP3    H135619   0.657   6.442   3.840
11892TIP3    H235620   0.511   6.480   3.823
11893TIP3   OH235621   4.420   2.287   4.492
11893TIP3    H135622   4.404   2.251   4.579
11893TIP3    H235623   4.337   2.273   4.446
11894TIP3   OH235624   5.915   1.672   3.865
11894TIP3    H135625   5.867   1.590   3.870
11894TIP3    H235626   5.912   1.696   3.773
11895TIP3   OH235627   2.858   0.239   4.512
11895TIP3    H135628   2.883   0.320   4.555
11895TIP3    H235629   2.889   0.170   4.571
11896TIP3   OH235630   1.258   0.998   2.989
11896TIP3    H135631   1.324   1.052   3.032
11896TIP3    H235632   1.304   0.957   2.916
11897TIP3   OH235633   5.689   4.578   4.733
11897TIP3    H135634   5.596   4.597   4.740
11897TIP3    H235635   5.700   4.538   4.647
11898TIP3   OH235636   1.806   5.584   3.075
11898TIP3    H135637   1.788   5.566   2.983
11898TIP3    H235638   1.881   5.530   3.097
11899TIP3   OH235639   5.478   6.505   4.505
11899TIP3    H135640   5.448   6.592   4.530
11899TIP3    H235641   5.572   6.506   4.524
11900TIP3   OH235642   5.067   4.415   6.530
11900TIP3    H135643   5.076   4.390   6.623
11900TIP3    H235644   5.157   4.419   6.498
11901TIP3   OH235645   7.014   3.632   4.429
11901TIP3    H135646   7.004   3.542   4.461
11901TIP3    H235647   6.944   3.642   4.365
11902TIP3   OH235648   0.158   1.760   4.520
11902TIP3    H135649   0.203   1.725   4.443
11902TIP3    H235650   0.128   1.847   4.493
11903TIP3   OH235651   7.937   1.976   4.756
11903TIP3    H135652   7.913   1.910   4.692
11903TIP3    H235653   7.857   1.992   4.806
11904TIP3   OH235654   3.007   5.930   3.085
11904TIP3    H135655   3.051   6.004   3.043
11904TIP3    H235656   3.006   5.953   3.178
11905TIP3   OH235657   4.433   5.174   5.522
11905TIP3    H135658   4.485   5.234   5.577
11905TIP3    H235659   4.490   5.154   5.448
11906TIP3   OH235660   7.754   3.014   1.993
11906TIP3    H135661   7.831   2.986   1.943
11906TIP3    H235662   7.742   3.106   1.968
11907TIP3   OH235663   0.968   0.390   3.652
11907TIP3    H135664   0.936   0.326   3.715
11907TIP3    H235665   1.033   0.342   3.600
11908TIP3   OH235666   3.079   6.692   6.661
11908TIP3    H135667   2.995   6.713   6.702
11908TIP3    H235668   3.142   6.750   6.705
11909TIP3   OH235669   0.595   7.572   3.117
11909TIP3    H135670   0.543   7.649   3.140
11909TIP3    H235671   0.590   7.515   3.194
11910TIP3   OH235672   6.489   1.722   5.576
11910TIP3    H135673   6.413   1.682   5.618
11910TIP3    H235674   6.509   1.664   5.503
11911TIP3   OH235675   2.837   6.085   5.520
11911TIP3    H135676   2.884   6.168   5.518
11911TIP3    H235677   2.755   6.102   5.474
11912TIP3   OH235678   3.066   7.010   3.880
11912TIP3    H135679   3.031   7.041   3.964
11912TIP3    H235680   3.003   7.041   3.815
11913TIP3   OH235681   7.347   4.306   1.220
11913TIP3    H135682   7.282   4.246   1.182
11913TIP3    H235683   7.317   4.320   1.310
11914TIP3   OH235684   4.953   1.537   2.867
11914TIP3    H135685   4.949   1.473   2.796
11914TIP3    H235686   4.957   1.622   2.822
11915TIP3   OH235687   2.395   0.482   5.092
11915TIP3    H135688   2.331   0.411   5.084
11915TIP3    H235689   2.480   0.439   5.091
11916TIP3   OH235690   2.234   5.873   3.709
11916TIP3    H135691   2.171   5.862   3.780
11916TIP3    H235692   2.204   5.950   3.661
11917TIP3   OH235693   6.553   5.606   5.868
11917TIP3    H135694   6.483   5.551   5.832
11917TIP3    H235695   6.574   5.566   5.953
11918TIP3   OH235696   2.763   2.856   6.181
11918TIP3    H135697   2.728   2.786   6.237
11918TIP3    H235698   2.844   2.819   6.145
11919TIP3   OH235699   1.997   5.489   2.248
11919TIP3    H135700   2.012   5.395   2.263
11919TIP3    H235701   2.046   5.533   2.317
11920TIP3   OH235702   0.719   1.540   5.839
11920TIP3    H135703   0.813   1.541   5.821
11920TIP3    H235704   0.700   1.449   5.862
11921TIP3   OH235705   1.318   5.689   4.417
11921TIP3    H135706   1.328   5.629   4.342
11921TIP3    H235707   1.333   5.776   4.380
11922TIP3   OH235708   4.716   2.571   1.242
11922TIP3    H135709   4.640   2.617   1.205
11922TIP3    H235710   4.736   2.617   1.323
11923TIP3   OH235711   7.766   3.107   4.886
11923TIP3    H135712   7.776   3.103   4.982
11923TIP3    H235713   7.706   3.035   4.866
11924TIP3   OH235714   7.271   4.704   2.541
11924TIP3    H135715   7.355   4.747   2.557
11924TIP3    H235716   7.206   4.772   2.556
11925TIP3   OH235717   0.623   2.782   0.277
11925TIP3    H135718   0.628   2.733   0.359
11925TIP3    H235719   0.689   2.851   0.286
11926TIP3   OH235720   0.756   1.405   3.369
11926TIP3    H135721   0.769   1.500   3.360
11926TIP3    H235722   0.843   1.367   3.360
11927TIP3   OH235723   6.374   5.038   0.017
11927TIP3    H135724   6.416   5.014   0.100
11927TIP3    H235725   6.283   5.055   0.040
11928TIP3   OH235726   1.102   1.241   6.495
11928TIP3    H135727   1.190   1.254   6.529
11928TIP3    H235728   1.094   1.303   6.423
11929TIP3   OH235729   2.835   5.605   4.735
11929TIP3    H135730   2.838   5.557   4.652
11929TIP3    H235731   2.896   5.678   4.723
11930TIP3   OH235732   4.711   0.311   1.615
11930TIP3    H135733   4.701   0.374   1.686
11930TIP3    H235734   4.622   0.294   1.585
11931TIP3   OH235735   1.904   5.768   2.237
11931TIP3    H135736   1.929   5.678   2.215
11931TIP3    H235737   1.939   5.821   2.166
11932TIP3   OH235738   1.061   4.878   5.898
11932TIP3    H135739   1.000   4.820   5.945
11932TIP3    H235740   1.055   4.849   5.807
11933TIP3   OH235741   1.977   5.476   4.954
11933TIP3    H135742   1.928   5.535   5.010
11933TIP3    H235743   2.029   5.533   4.897
11934TIP3   OH235744   3.677   5.406   1.326
11934TIP3    H135745   3.672   5.317   1.360
11934TIP3    H235746   3.741   5.450   1.382
11935TIP3   OH235747   0.264   2.235   0.944
11935TIP3    H135748   0.347   2.278   0.923
11935TIP3    H235749   0.201   2.275   0.883
11936TIP3   OH235750   7.137   3.916   3.005
11936TIP3    H135751   7.159   3.836   3.053
11936TIP3    H235752   7.050   3.898   2.968
11937TIP3   OH235753   4.667   0.969   1.700
11937TIP3    H135754   4.630   1.056   1.719
11937TIP3    H235755   4.603   0.928   1.642
11938TIP3   OH235756   0.724   0.740   6.034
11938TIP3    H135757   0.679   0.743   6.118
11938TIP3    H235758   0.807   0.697   6.053
11939TIP3   OH235759   1.141   5.391   2.866
11939TIP3    H135760   1.148   5.468   2.810
11939TIP3    H235761   1.175   5.420   2.951
11940TIP3   OH235762   0.845   1.286   1.422
11940TIP3    H135763   0.759   1.311   1.388
11940TIP3    H235764   0.907   1.337   1.371
11941TIP3   OH235765   2.632   6.907   4.788
11941TIP3    H135766   2.551   6.939   4.748
11941TIP3    H235767   2.686   6.881   4.713
11942TIP3   OH235768   5.520   6.235   1.364
11942TIP3    H135769   5.610   6.202   1.367
11942TIP3    H235770   5.530   6.330   1.357
11943TIP3   OH235771   6.962   4.096   2.490
11943TIP3    H135772   6.947   4.057   2.404
11943TIP3    H235773   6.889   4.064   2.543
11944TIP3   OH235774   0.497   5.154   1.193
11944TIP3    H135775   0.436   5.182   1.125
11944TIP3    H235776   0.466   5.199   1.272
11945TIP3   OH235777   1.029   4.458   0.935
11945TIP3    H135778   1.113   4.417   0.912
11945TIP3    H235779   1.003   4.503   0.855
11946TIP3   OH235780   5.586   4.384   1.676
11946TIP3    H135781   5.662   4.401   1.731
11946TIP3    H235782   5.622   4.362   1.590
11947TIP3   OH235783   1.117   0.562   4.740
11947TIP3    H135784   1.124   0.638   4.799
11947TIP3    H235785   1.109   0.487   4.799
11948TIP3   OH235786   3.119   6.748   0.712
11948TIP3    H135787   3.055   6.688   0.675
11948TIP3    H235788   3.147   6.802   0.638
11949TIP3   OH235789   6.147   4.025   3.207
11949TIP3    H135790   6.121   3.971   3.282
11949TIP3    H235791   6.065   4.050   3.166
11950TIP3   OH235792   5.005   0.438   6.457
11950TIP3    H135793   4.955   0.366   6.420
11950TIP3    H235794   5.003   0.507   6.390
11951TIP3   OH235795   7.934   2.965   1.372
11951TIP3    H135796   7.939   2.875   1.405
11951TIP3    H235797   7.844   2.974   1.340
11952TIP3   OH235798   3.939   0.156   0.838
11952TIP3    H135799   3.858   0.207   0.844
11952TIP3    H235800   3.982   0.189   0.759
11953TIP3   OH235801   5.820   5.074   5.792
11953TIP3    H135802   5.801   5.104   5.703
11953TIP3    H235803   5.852   5.152   5.837
11954TIP3   OH235804   3.137   0.663   5.659
11954TIP3    H135805   3.137   0.736   5.596
11954TIP3    H235806   3.144   0.705   5.745
11955TIP3   OH235807   5.669   1.349   6.474
11955TIP3    H135808   5.729   1.396   6.417
11955TIP3    H235809   5.698   1.370   6.562
11956TIP3   OH235810   0.747   1.204   5.191
11956TIP3    H135811   0.745   1.299   5.203
11956TIP3    H235812   0.774   1.192   5.100
11957TIP3   OH235813   5.818   2.032   2.938
11957TIP3    H135814   5.747   2.074   2.987
11957TIP3    H235815   5.898   2.070   2.974
11958TIP3   OH235816   4.730   1.167   4.504
11958TIP3    H135817   4.696   1.102   4.566
11958TIP3    H235818   4.805   1.124   4.462
11959TIP3   OH235819   8.031   3.631   6.669
11959TIP3    H135820   7.944   3.618   6.707
11959TIP3    H235821   8.025   3.715   6.624
11960TIP3   OH235822   2.497   4.143   3.606
11960TIP3    H135823   2.587   4.172   3.593
11960TIP3    H235824   2.496   4.052   3.575
11961TIP3   OH235825   7.334   6.427   0.488
11961TIP3    H135826   7.414   6.418   0.539
11961TIP3    H235827   7.279   6.485   0.539
11962TIP3   OH235828   6.980   1.873   3.038
11962TIP3    H135829   6.960   1.935   3.109
11962TIP3    H235830   6.898   1.827   3.024
11963TIP3   OH235831   1.284   5.585   5.535
11963TIP3    H135832   1.358   5.644   5.548
11963TIP3    H235833   1.224   5.634   5.478
11964TIP3   OH235834   4.118   0.000   6.684
11964TIP3    H135835   4.127   0.070   6.748
11964TIP3    H235836   4.090   0.045   6.604
11965TIP3   OH235837   6.988   7.852   2.370
11965TIP3    H135838   7.054   7.902   2.419
11965TIP3    H235839   6.985   7.767   2.415
11966TIP3   OH235840   0.741   3.110   0.991
11966TIP3    H135841   0.739   3.030   1.044
11966TIP3    H235842   0.799   3.169   1.039
11967TIP3   OH235843   7.163   2.564   0.426
11967TIP3    H135844   7.257   2.553   0.439
11967TIP3    H235845   7.156   2.643   0.372
11968TIP3   OH235846   1.759   0.448   4.220
11968TIP3    H135847   1.779   0.540   4.233
11968TIP3    H235848   1.664   0.444   4.211
11969TIP3   OH235849   0.662   2.254   0.161
11969TIP3    H135850   0.600   2.327   0.160
11969TIP3    H235851   0.736   2.287   0.212
11970TIP3   OH235852   6.732   4.943   5.023
11970TIP3    H135853   6.827   4.956   5.025
11970TIP3    H235854   6.695   5.031   5.015
11971TIP3   OH235855   5.954   7.064   1.109
11971TIP3    H135856   5.879   7.038   1.054
11971TIP3    H235857   5.923   7.141   1.156
11972TIP3   OH235858   3.654   2.694   5.547
11972TIP3    H135859   3.730   2.731   5.503
11972TIP3    H235860   3.674   2.600   5.555
11973TIP3   OH235861   2.216   6.150   4.434
11973TIP3    H135862   2.127   6.176   4.460
11973TIP3    H235863   2.259   6.128   4.516
11974TIP3   OH235864   6.818   6.951   6.226
11974TIP3    H135865   6.739   7.003   6.208
11974TIP3    H235866   6.872   6.962   6.148
11975TIP3   OH235867   2.603   1.216   0.014
11975TIP3    H135868   2.645   1.169   0.086
11975TIP3    H235869   2.544   1.152  -0.025
11976TIP3   OH235870   2.659   3.571   3.066
11976TIP3    H135871   2.643   3.612   3.151
11976TIP3    H235872   2.739   3.519   3.079
11977TIP3   OH235873   2.354   5.702   5.290
11977TIP3    H135874   2.447   5.720   5.272
11977TIP3    H235875   2.307   5.742   5.217
11978TIP3   OH235876   0.140   3.260   2.582
11978TIP3    H135877   0.074   3.215   2.634
11978TIP3    H235878   0.177   3.193   2.525
11979TIP3   OH235879   1.539   0.779   1.590
11979TIP3    H135880   1.470   0.716   1.607
11979TIP3    H235881   1.556   0.820   1.675
11980TIP3   OH235882   4.591   0.761   0.035
11980TIP3    H135883   4.666   0.771   0.093
11980TIP3    H235884   4.515   0.766   0.093
11981TIP3   OH235885   1.456   5.478   4.560
11981TIP3    H135886   1.528   5.540   4.559
11981TIP3    H235887   1.378   5.532   4.543
11982TIP3   OH235888   5.363   4.086   0.525
11982TIP3    H135889   5.458   4.078   0.536
11982TIP3    H235890   5.330   4.105   0.612
11983TIP3   OH235891   1.475   6.716   4.814
11983TIP3    H135892   1.557   6.716   4.862
11983TIP3    H235893   1.421   6.783   4.857
11984TIP3   OH235894   7.092   3.413   2.742
11984TIP3    H135895   7.037   3.476   2.789
11984TIP3    H235896   7.180   3.450   2.746
11985TIP3   OH235897   2.675   5.358   1.249
11985TIP3    H135898   2.755   5.308   1.262
11985TIP3    H235899   2.606   5.306   1.292
11986TIP3   OH235900   1.821   3.141   3.409
11986TIP3    H135901   1.762   3.074   3.442
11986TIP3    H235902   1.769   3.191   3.346
11987TIP3   OH235903   7.596   3.887   1.859
11987TIP3    H135904   7.511   3.886   1.904
11987TIP3    H235905   7.586   3.956   1.793
11988TIP3   OH235906   0.852   1.017   5.761
11988TIP3    H135907   0.897   1.092   5.723
11988TIP3    H235908   0.874   0.944   5.703
11989TIP3   OH235909   7.129   1.005   5.357
11989TIP3    H135910   7.188   1.077   5.334
11989TIP3    H235911   7.139   0.943   5.285
11990TIP3   OH235912   6.564   1.798   0.716
11990TIP3    H135913   6.635   1.783   0.779
11990TIP3    H235914   6.485   1.795   0.769
11991TIP3   OH235915   3.173   4.620   3.751
11991TIP3    H135916   3.175   4.656   3.840
11991TIP3    H235917   3.096   4.659   3.711
11992TIP3   OH235918   4.103   2.243   3.235
11992TIP3    H135919   4.194   2.274   3.237
11992TIP3    H235920   4.092   2.205   3.148
11993TIP3   OH235921   5.511   0.435   5.655
11993TIP3    H135922   5.546   0.366   5.711
11993TIP3    H235923   5.486   0.390   5.574
11994TIP3   OH235924   7.929   2.956   1.060
11994TIP3    H135925   7.889   2.954   0.973
11994TIP3    H235926   7.980   3.037   1.061
11995TIP3   OH235927   5.848   1.704   3.550
11995TIP3    H135928   5.778   1.651   3.589
11995TIP3    H235929   5.897   1.643   3.496
11996TIP3   OH235930   8.316   3.888   6.191
11996TIP3    H135931   8.244   3.825   6.197
11996TIP3    H235932   8.378   3.847   6.129
11997TIP3   OH235933   6.715   6.791   5.885
11997TIP3    H135934   6.801   6.758   5.861
11997TIP3    H235935   6.711   6.878   5.846
11998TIP3   OH235936   2.923   5.016   5.856
11998TIP3    H135937   2.957   5.098   5.820
11998TIP3    H235938   2.876   5.041   5.935
11999TIP3   OH235939   4.770   6.508   4.088
11999TIP3    H135940   4.831   6.497   4.161
11999TIP3    H235941   4.808   6.458   4.016
12000TIP3   OH235942   4.882   0.583   5.099
12000TIP3    H135943   4.916   0.588   5.010
12000TIP3    H235944   4.941   0.639   5.150
12001TIP3   OH235945   0.731   6.612   3.614
12001TIP3    H135946   0.747   6.699   3.651
12001TIP3    H235947   0.698   6.560   3.687
12002TIP3   OH235948   0.667   7.105   5.709
12002TIP3    H135949   0.626   7.081   5.792
12002TIP3    H235950   0.750   7.147   5.735
12003TIP3   OH235951   0.245   7.348   2.073
12003TIP3    H135952   0.189   7.390   2.009
12003TIP3    H235953   0.195   7.272   2.103
12004TIP3   OH235954   2.787   4.592   0.918
12004TIP3    H135955   2.852   4.539   0.965
12004TIP3    H235956   2.706   4.581   0.968
12005TIP3   OH235957   3.115   4.147   6.091
12005TIP3    H135958   3.046   4.129   6.027
12005TIP3    H235959   3.102   4.081   6.160
12006TIP3   OH235960   1.073   4.992   3.189
12006TIP3    H135961   1.041   5.071   3.146
12006TIP3    H235962   1.007   4.926   3.169
12007TIP3   OH235963   6.618   6.507   6.269
12007TIP3    H135964   6.697   6.469   6.230
12007TIP3    H235965   6.570   6.544   6.195
12008TIP3   OH235966   5.548   3.023   4.401
12008TIP3    H135967   5.506   3.109   4.413
12008TIP3    H235968   5.539   2.980   4.486
12009TIP3   OH235969   5.132   2.441   4.008
12009TIP3    H135970   5.180   2.432   4.090
12009TIP3    H235971   5.180   2.508   3.960
12010TIP3   OH235972   3.811   2.636   0.550
12010TIP3    H135973   3.753   2.701   0.510
12010TIP3    H235974   3.896   2.652   0.509
12011TIP3   OH235975   4.841   4.426   3.179
12011TIP3    H135976   4.895   4.497   3.144
12011TIP3    H235977   4.876   4.411   3.267
12012TIP3   OH235978   1.906   6.339   5.453
12012TIP3    H135979   1.819   6.300   5.443
12012TIP3    H235980   1.912   6.362   5.545
12013TIP3   OH235981   2.739   4.940   5.251
12013TIP3    H135982   2.753   5.030   5.282
12013TIP3    H235983   2.644   4.929   5.254
12014TIP3   OH235984   1.470   0.807   1.294
12014TIP3    H135985   1.518   0.798   1.376
12014TIP3    H235986   1.444   0.718   1.272
12015TIP3   OH235987   2.931   1.765   4.528
12015TIP3    H135988   2.903   1.692   4.583
12015TIP3    H235989   2.998   1.810   4.580
12016TIP3   OH235990   2.722   5.041   1.583
12016TIP3    H135991   2.629   5.040   1.558
12016TIP3    H235992   2.767   4.996   1.512
12017TIP3   OH235993   2.525   3.527   4.355
12017TIP3    H135994   2.443   3.559   4.393
12017TIP3    H235995   2.571   3.487   4.429
12018TIP3   OH235996   6.328   0.014   2.967
12018TIP3    H135997   6.363   0.010   2.878
12018TIP3    H235998   6.405   0.013   3.023
12019TIP3   OH235999   6.832   6.556   5.434
12019TIP3    H136000   6.801   6.467   5.451
12019TIP3    H236001   6.927   6.547   5.431
12020TIP3   OH236002   5.158   5.330   4.847
12020TIP3    H136003   5.107   5.314   4.768
12020TIP3    H236004   5.186   5.243   4.875
12021TIP3   OH236005   4.656   0.725   6.064
12021TIP3    H136006   4.748   0.730   6.037
12021TIP3    H236007   4.634   0.815   6.088
12022TIP3   OH236008   4.314   4.814   1.088
12022TIP3    H136009   4.397   4.857   1.111
12022TIP3    H236010   4.281   4.780   1.171
12023TIP3   OH236011   1.344   6.181   1.534
12023TIP3    H136012   1.331   6.221   1.447
12023TIP3    H236013   1.423   6.223   1.568
12024TIP3   OH236014   5.970   4.026   4.139
12024TIP3    H136015   6.010   4.031   4.226
12024TIP3    H236016   6.041   4.043   4.078
12025TIP3   OH236017   5.082   4.662   5.609
12025TIP3    H136018   5.027   4.713   5.549
12025TIP3    H236019   5.161   4.643   5.559
12026TIP3   OH236020   7.349   2.479   4.053
12026TIP3    H136021   7.441   2.485   4.078
12026TIP3    H236022   7.301   2.499   4.134
12027TIP3   OH236023   4.589   4.973   2.646
12027TIP3    H136024   4.578   5.021   2.564
12027TIP3    H236025   4.616   5.040   2.709
12028TIP3   OH236026   6.697   0.050   0.716
12028TIP3    H136027   6.718   0.116   0.650
12028TIP3    H236028   6.601   0.046   0.717
12029TIP3   OH236029   0.053   1.282   4.052
12029TIP3    H136030   0.114   1.347   4.016
12029TIP3    H236031  -0.012   1.269   3.982
12030TIP3   OH236032   3.806   6.697   3.212
12030TIP3    H136033   3.777   6.686   3.302
12030TIP3    H236034   3.727   6.683   3.160
12031TIP3   OH236035   4.607   0.789   3.830
12031TIP3    H136036   4.565   0.840   3.760
12031TIP3    H236037   4.555   0.709   3.835
12032TIP3   OH236038   6.470   4.969   6.214
12032TIP3    H136039   6.533   4.932   6.152
12032TIP3    H236040   6.514   4.963   6.299
12033TIP3   OH236041   1.138   0.250   3.922
12033TIP3    H136042   1.131   0.156   3.938
12033TIP3    H236043   1.227   0.263   3.891
12034TIP3   OH236044   7.635   0.338   1.251
12034TIP3    H136045   7.682   0.400   1.195
12034TIP3    H236046   7.571   0.392   1.298
12035TIP3   OH236047   1.821   0.979   5.759
12035TIP3    H136048   1.765   0.904   5.737
12035TIP3    H236049   1.845   1.016   5.675
12036TIP3   OH236050   6.502   6.418   3.497
12036TIP3    H136051   6.463   6.395   3.582
12036TIP3    H236052   6.564   6.488   3.518
12037TIP3   OH236053   7.065   3.905   2.265
12037TIP3    H136054   7.019   3.831   2.225
12037TIP3    H236055   7.135   3.864   2.316
12038TIP3   OH236056   0.544   1.335   6.359
12038TIP3    H136057   0.595   1.256   6.343
12038TIP3    H236058   0.453   1.305   6.362
12039TIP3   OH236059   2.116   7.572   4.968
12039TIP3    H136060   2.022   7.590   4.962
12039TIP3    H236061   2.158   7.645   4.922
12040TIP3   OH236062   6.559   6.557   5.308
12040TIP3    H136063   6.538   6.629   5.367
12040TIP3    H236064   6.605   6.493   5.362
12041TIP3   OH236065   4.644   4.004   3.160
12041TIP3    H136066   4.555   3.985   3.189
12041TIP3    H236067   4.640   4.095   3.128
12042TIP3   OH236068   4.113   1.543   3.920
12042TIP3    H136069   4.096   1.614   3.982
12042TIP3    H236070   4.161   1.477   3.971
12043TIP3   OH236071   5.625   5.663   3.685
12043TIP3    H136072   5.601   5.756   3.682
12043TIP3    H236073   5.617   5.639   3.777
12044TIP3   OH236074   7.785   4.517   1.112
12044TIP3    H136075   7.720   4.448   1.099
12044TIP3    H236076   7.744   4.578   1.172
12045TIP3   OH236077   3.199   5.750   1.812
12045TIP3    H136078   3.169   5.666   1.779
12045TIP3    H236079   3.288   5.734   1.842
12046TIP3   OH236080   0.704   4.792   4.547
12046TIP3    H136081   0.688   4.859   4.480
12046TIP3    H236082   0.621   4.746   4.555
12047TIP3   OH236083   1.525   4.582   1.177
12047TIP3    H136084   1.605   4.607   1.131
12047TIP3    H236085   1.511   4.652   1.241
12048TIP3   OH236086   7.725   7.418   3.322
12048TIP3    H136087   7.801   7.463   3.284
12048TIP3    H236088   7.759   7.333   3.350
12049TIP3   OH236089   0.634   7.247   4.040
12049TIP3    H136090   0.642   7.159   4.079
12049TIP3    H236091   0.540   7.260   4.030
12050TIP3   OH236092   3.776   0.248   2.820
12050TIP3    H136093   3.817   0.273   2.737
12050TIP3    H236094   3.688   0.283   2.815
12051TIP3   OH236095   1.774   5.285   1.213
12051TIP3    H136096   1.712   5.358   1.218
12051TIP3    H236097   1.843   5.316   1.155
12052TIP3   OH236098   1.748   2.823   4.497
12052TIP3    H136099   1.812   2.885   4.534
12052TIP3    H236100   1.796   2.778   4.428
12053TIP3   OH236101   4.255   4.662   3.553
12053TIP3    H136102   4.162   4.642   3.544
12053TIP3    H236103   4.277   4.638   3.643
12054TIP3   OH236104   5.921   0.365   1.837
12054TIP3    H136105   5.941   0.278   1.802
12054TIP3    H236106   6.003   0.414   1.827
12055TIP3   OH236107   7.488   3.220   4.868
12055TIP3    H136108   7.424   3.215   4.939
12055TIP3    H236109   7.510   3.129   4.848
12056TIP3   OH236110   8.230   4.789   1.072
12056TIP3    H136111   8.218   4.863   1.013
12056TIP3    H236112   8.313   4.808   1.117
12057TIP3   OH236113   0.700   2.130   4.040
12057TIP3    H136114   0.757   2.179   3.981
12057TIP3    H236115   0.649   2.197   4.086
12058TIP3   OH236116   8.202   2.631   1.543
12058TIP3    H136117   8.285   2.643   1.497
12058TIP3    H236118   8.135   2.662   1.481
12059TIP3   OH236119   2.111   4.584   6.437
12059TIP3    H136120   2.025   4.566   6.398
12059TIP3    H236121   2.099   4.668   6.482
12060TIP3   OH236122   4.595   3.413   5.433
12060TIP3    H136123   4.613   3.424   5.526
12060TIP3    H236124   4.500   3.401   5.428
12061TIP3   OH236125   0.341   1.354   3.772
12061TIP3    H136126   0.313   1.390   3.856
12061TIP3    H236127   0.433   1.330   3.785
12062TIP3   OH236128   7.867   3.775   2.986
12062TIP3    H136129   7.800   3.760   2.919
12062TIP3    H236130   7.880   3.689   3.026
12063TIP3   OH236131   6.998   4.574   3.159
12063TIP3    H136132   7.025   4.525   3.236
12063TIP3    H236133   6.986   4.508   3.091
12064TIP3   OH236134   3.400   6.067   3.411
12064TIP3    H136135   3.413   6.148   3.362
12064TIP3    H236136   3.378   6.002   3.344
12065TIP3   OH236137   7.427   4.360   5.247
12065TIP3    H136138   7.431   4.302   5.323
12065TIP3    H236139   7.364   4.428   5.272
12066TIP3   OH236140   2.176   3.874   0.930
12066TIP3    H136141   2.222   3.957   0.917
12066TIP3    H236142   2.242   3.807   0.914
12067TIP3   OH236143   4.893   7.570   3.647
12067TIP3    H136144   4.947   7.630   3.698
12067TIP3    H236145   4.828   7.626   3.605
12068TIP3   OH236146   2.650   2.780   0.926
12068TIP3    H136147   2.632   2.815   1.014
12068TIP3    H236148   2.698   2.699   0.943
12069TIP3   OH236149   6.616   7.603   6.461
12069TIP3    H136150   6.611   7.668   6.391
12069TIP3    H236151   6.662   7.648   6.532
12070TIP3   OH236152   2.968   3.971   5.564
12070TIP3    H136153   2.892   3.931   5.607
12070TIP3    H236154   3.026   3.897   5.545
12071TIP3   OH236155   2.095   3.648   3.360
12071TIP3    H136156   2.016   3.602   3.331
12071TIP3    H236157   2.141   3.584   3.415
12072TIP3   OH236158   5.345   6.347   4.728
12072TIP3    H136159   5.331   6.298   4.647
12072TIP3    H236160   5.414   6.410   4.707
12073TIP3   OH236161   5.704   1.240   1.531
12073TIP3    H136162   5.701   1.329   1.567
12073TIP3    H236163   5.648   1.244   1.453
12074TIP3   OH236164   7.972   3.256   6.590
12074TIP3    H136165   7.914   3.293   6.656
12074TIP3    H236166   7.966   3.161   6.603
12075TIP3   OH236167   6.737   2.079   2.052
12075TIP3    H136168   6.662   2.019   2.047
12075TIP3    H236169   6.808   2.026   2.088
12076TIP3   OH236170   6.595   6.847   1.757
12076TIP3    H136171   6.621   6.774   1.813
12076TIP3    H236172   6.514   6.880   1.797
12077TIP3   OH236173   7.083   5.863   6.618
12077TIP3    H136174   7.100   5.772   6.592
12077TIP3    H236175   7.155   5.913   6.579
12078TIP3   OH236176   6.916   4.080   0.627
12078TIP3    H136177   6.928   4.164   0.673
12078TIP3    H236178   6.823   4.077   0.605
12079TIP3   OH236179   1.164   2.090   1.089
12079TIP3    H136180   1.152   2.128   1.176
12079TIP3    H236181   1.076   2.067   1.060
12080TIP3   OH236182   0.697   5.214   2.622
12080TIP3    H136183   0.785   5.243   2.600
12080TIP3    H236184   0.706   5.122   2.644
12081TIP3   OH236185   8.105  -0.022   0.561
12081TIP3    H136186   8.174   0.019   0.614
12081TIP3    H236187   8.152  -0.061   0.487
12082TIP3   OH236188   2.278   6.778   5.705
12082TIP3    H136189   2.296   6.759   5.613
12082TIP3    H236190   2.329   6.857   5.723
12083TIP3   OH236191   4.492   6.734   4.078
12083TIP3    H136192   4.529   6.722   3.991
12083TIP3    H236193   4.409   6.686   4.077
12084TIP3   OH236194   3.163   6.687   5.547
12084TIP3    H136195   3.069   6.682   5.568
12084TIP3    H236196   3.170   6.764   5.491
12085TIP3   OH236197   6.801   4.042   4.183
12085TIP3    H136198   6.839   3.982   4.120
12085TIP3    H236199   6.707   4.037   4.168
12086TIP3   OH236200   2.174   2.054   1.752
12086TIP3    H136201   2.257   2.096   1.729
12086TIP3    H236202   2.124   2.124   1.795
12087TIP3   OH236203   1.799   2.763   3.012
12087TIP3    H136204   1.823   2.824   2.943
12087TIP3    H236205   1.740   2.701   2.970
12088TIP3   OH236206   3.573   4.026   4.562
12088TIP3    H136207   3.561   4.112   4.603
12088TIP3    H236208   3.662   4.029   4.525
12089TIP3   OH236209   4.900   0.367   2.714
12089TIP3    H136210   4.940   0.315   2.645
12089TIP3    H236211   4.806   0.364   2.695
12090TIP3   OH236212   6.140   3.014   2.666
12090TIP3    H136213   6.083   2.975   2.732
12090TIP3    H236214   6.209   2.949   2.652
12091TIP3   OH236215   3.809   1.598   3.537
12091TIP3    H136216   3.871   1.545   3.588
12091TIP3    H236217   3.724   1.583   3.578
12092TIP3   OH236218   1.378   4.163   5.447
12092TIP3    H136219   1.375   4.090   5.508
12092TIP3    H236220   1.410   4.237   5.499
12093TIP3   OH236221   5.789   1.353   6.081
12093TIP3    H136222   5.820   1.372   6.170
12093TIP3    H236223   5.798   1.436   6.034
12094TIP3   OH236224   5.401   0.997   1.330
12094TIP3    H136225   5.365   0.966   1.247
12094TIP3    H236226   5.376   0.931   1.393
12095TIP3   OH236227   4.299   3.886   2.103
12095TIP3    H136228   4.325   3.825   2.172
12095TIP3    H236229   4.334   3.970   2.132
12096TIP3   OH236230   5.334   7.248   6.513
12096TIP3    H136231   5.401   7.198   6.560
12096TIP3    H236232   5.384   7.311   6.462
12097TIP3   OH236233   4.361   5.144   4.425
12097TIP3    H136234   4.289   5.173   4.369
12097TIP3    H236235   4.351   5.194   4.506
12098TIP3   OH236236   5.838   2.092   3.336
12098TIP3    H136237   5.808   2.079   3.426
12098TIP3    H236238   5.933   2.101   3.344
12099TIP3   OH236239   1.239   2.939   3.753
12099TIP3    H136240   1.170   3.001   3.776
12099TIP3    H236241   1.242   2.878   3.827
12100TIP3   OH236242   0.364   1.486   5.760
12100TIP3    H136243   0.323   1.545   5.823
12100TIP3    H236244   0.301   1.414   5.751
12101TIP3   OH236245   4.692   4.645   0.594
12101TIP3    H136246   4.766   4.626   0.537
12101TIP3    H236247   4.686   4.740   0.595
12102TIP3   OH236248   7.486   4.631   4.799
12102TIP3    H136249   7.510   4.598   4.886
12102TIP3    H236250   7.559   4.608   4.743
12103TIP3   OH236251   8.062   6.595   6.497
12103TIP3    H136252   8.111   6.528   6.449
12103TIP3    H236253   8.035   6.657   6.430
12104TIP3   OH236254   4.668   7.449   1.380
12104TIP3    H136255   4.741   7.408   1.427
12104TIP3    H236256   4.709   7.495   1.307
12105TIP3   OH236257   2.019   7.360   3.779
12105TIP3    H136258   1.990   7.317   3.859
12105TIP3    H236259   1.973   7.445   3.779
12106TIP3   OH236260   5.121   1.309   5.027
12106TIP3    H136261   5.179   1.310   4.950
12106TIP3    H236262   5.033   1.296   4.990
12107TIP3   OH236263   1.905   4.262   3.274
12107TIP3    H136264   1.939   4.254   3.363
12107TIP3    H236265   1.946   4.191   3.226
12108TIP3   OH236266   5.359   6.143   1.567
12108TIP3    H136267   5.411   6.173   1.492
12108TIP3    H236268   5.408   6.070   1.603
12109TIP3   OH236269   4.135   3.518   3.604
12109TIP3    H136270   4.133   3.613   3.592
12109TIP3    H236271   4.117   3.483   3.517
12110TIP3   OH236272   3.411   7.264   1.530
12110TIP3    H136273   3.407   7.189   1.588
12110TIP3    H236274   3.327   7.262   1.482
12111TIP3   OH236275   1.822  -0.014   5.925
12111TIP3    H136276   1.797  -0.003   5.833
12111TIP3    H236277   1.895   0.047   5.937
12112TIP3   OH236278   5.069   7.356   5.461
12112TIP3    H136279   5.088   7.299   5.535
12112TIP3    H236280   4.977   7.379   5.471
12113TIP3   OH236281   2.657   7.722   4.017
12113TIP3    H136282   2.697   7.808   4.004
12113TIP3    H236283   2.574   7.727   3.969
12114TIP3   OH236284   0.932   4.998   3.623
12114TIP3    H136285   0.987   5.015   3.547
12114TIP3    H236286   0.843   5.004   3.590
12115TIP3   OH236287   2.194   0.910   1.964
12115TIP3    H136288   2.261   0.849   1.932
12115TIP3    H236289   2.135   0.922   1.890
12116TIP3   OH236290   8.073   4.200   0.534
12116TIP3    H136291   8.021   4.121   0.517
12116TIP3    H236292   8.161   4.179   0.503
12117TIP3   OH236293   1.271   6.867   6.004
12117TIP3    H136294   1.351   6.816   5.988
12117TIP3    H236295   1.298   6.958   5.988
12118TIP3   OH236296   7.112   4.106   3.747
12118TIP3    H136297   7.101   4.185   3.693
12118TIP3    H236298   7.108   4.138   3.837
12119TIP3   OH236299   2.719   6.354   0.713
12119TIP3    H136300   2.741   6.349   0.619
12119TIP3    H236301   2.798   6.323   0.757
12120TIP3   OH236302   0.791   7.234   2.772
12120TIP3    H136303   0.872   7.213   2.817
12120TIP3    H236304   0.753   7.306   2.823
12121TIP3   OH236305   2.254   0.764   1.084
12121TIP3    H136306   2.270   0.701   1.155
12121TIP3    H236307   2.340   0.801   1.064
12122TIP3   OH236308   5.093   1.598   6.297
12122TIP3    H136309   5.061   1.512   6.324
12122TIP3    H236310   5.143   1.630   6.372
12123TIP3   OH236311   7.233   1.611   2.812
12123TIP3    H136312   7.245   1.689   2.865
12123TIP3    H236313   7.186   1.641   2.734
12124TIP3   OH236314   1.192   4.791   5.417
12124TIP3    H136315   1.141   4.775   5.497
12124TIP3    H236316   1.215   4.884   5.422
12125TIP3   OH236317   6.967   7.229   1.531
12125TIP3    H136318   6.934   7.314   1.560
12125TIP3    H236319   7.061   7.232   1.552
12126TIP3   OH236320   7.289   6.897   3.976
12126TIP3    H136321   7.381   6.872   3.970
12126TIP3    H236322   7.274   6.914   4.069
12127TIP3   OH236323   2.847   6.284   4.717
12127TIP3    H136324   2.768   6.230   4.708
12127TIP3    H236325   2.834   6.356   4.656
12128TIP3   OH236326   6.596   0.401   1.501
12128TIP3    H136327   6.548   0.414   1.583
12128TIP3    H236328   6.533   0.360   1.442
12129TIP3   OH236329   3.334   7.129   2.827
12129TIP3    H136330   3.298   7.087   2.905
12129TIP3    H236331   3.421   7.159   2.853
12130TIP3   OH236332   7.403   5.200   2.173
12130TIP3    H136333   7.344   5.173   2.102
12130TIP3    H236334   7.456   5.269   2.134
12131TIP3   OH236335   3.940   5.231   3.556
12131TIP3    H136336   3.957   5.194   3.470
12131TIP3    H236337   3.998   5.182   3.615
12132TIP3   OH236338   4.615   2.648   2.397
12132TIP3    H136339   4.553   2.631   2.326
12132TIP3    H236340   4.615   2.567   2.449
12133TIP3   OH236341   0.361   7.275   2.309
12133TIP3    H136342   0.414   7.197   2.293
12133TIP3    H236343   0.335   7.304   2.221
12134TIP3   OH236344   6.224   1.102   4.678
12134TIP3    H136345   6.267   1.025   4.638
12134TIP3    H236346   6.244   1.173   4.617
12135TIP3   OH236347   8.085   1.359   1.586
12135TIP3    H136348   8.111   1.362   1.678
12135TIP3    H236349   7.992   1.381   1.586
12136TIP3   OH236350   4.265   0.165   2.394
12136TIP3    H136351   4.352   0.142   2.427
12136TIP3    H236352   4.246   0.097   2.329
12137TIP3   OH236353   6.264   3.308   1.874
12137TIP3    H136354   6.312   3.231   1.845
12137TIP3    H236355   6.263   3.301   1.970
12138TIP3   OH236356   0.541   0.846   3.722
12138TIP3    H136357   0.462   0.792   3.731
12138TIP3    H236358   0.611   0.783   3.702
12139TIP3   OH236359   3.972   5.814   5.194
12139TIP3    H136360   4.036   5.803   5.265
12139TIP3    H236361   4.022   5.799   5.114
12140TIP3   OH236362   6.690   5.261   1.874
12140TIP3    H136363   6.761   5.207   1.910
12140TIP3    H236364   6.611   5.219   1.906
12141TIP3   OH236365   2.958   2.220   3.806
12141TIP3    H136366   3.042   2.227   3.761
12141TIP3    H236367   2.941   2.126   3.810
12142TIP3   OH236368   2.874   1.222   4.886
12142TIP3    H136369   2.921   1.279   4.946
12142TIP3    H236370   2.899   1.133   4.912
12143TIP3   OH236371   0.470   2.894   3.928
12143TIP3    H136372   0.416   2.843   3.988
12143TIP3    H236373   0.539   2.834   3.900
12144TIP3   OH236374   1.157   3.370   4.421
12144TIP3    H136375   1.240   3.334   4.392
12144TIP3    H236376   1.094   3.298   4.410
12145TIP3   OH236377   5.104   1.700   4.687
12145TIP3    H136378   5.150   1.628   4.730
12145TIP3    H236379   5.012   1.678   4.694
12146TIP3   OH236380   1.239   3.983   1.670
12146TIP3    H136381   1.295   4.044   1.718
12146TIP3    H236382   1.192   3.934   1.737
12147TIP3   OH236383   7.321   3.450   3.930
12147TIP3    H136384   7.417   3.444   3.938
12147TIP3    H236385   7.289   3.367   3.964
12148TIP3   OH236386   7.489   3.228   5.195
12148TIP3    H136387   7.445   3.280   5.263
12148TIP3    H236388   7.568   3.194   5.238
12149TIP3   OH236389   6.569   0.598   5.826
12149TIP3    H136390   6.488   0.578   5.780
12149TIP3    H236391   6.637   0.550   5.779
12150TIP3   OH236392   5.127   5.402   5.114
12150TIP3    H136393   5.129   5.391   5.018
12150TIP3    H236394   5.056   5.345   5.143
12151TIP3   OH236395   5.053   3.238   1.838
12151TIP3    H136396   5.025   3.207   1.924
12151TIP3    H236397   4.998   3.190   1.776
12152TIP3   OH236398   4.637   3.899   5.734
12152TIP3    H136399   4.708   3.873   5.793
12152TIP3    H236400   4.666   3.981   5.695
12153TIP3   OH236401   6.645   5.400   4.849
12153TIP3    H136402   6.636   5.318   4.800
12153TIP3    H236403   6.717   5.446   4.806
12154TIP3   OH236404   7.966   2.630   5.108
12154TIP3    H136405   7.987   2.538   5.099
12154TIP3    H236406   7.870   2.633   5.109
12155TIP3   OH236407   5.296   5.533   2.761
12155TIP3    H136408   5.205   5.519   2.734
12155TIP3    H236409   5.311   5.468   2.829
12156TIP3   OH236410   0.758   5.470   4.981
12156TIP3    H136411   0.843   5.436   4.954
12156TIP3    H236412   0.696   5.403   4.955
12157TIP3   OH236413   2.527   5.876   0.284
12157TIP3    H136414   2.476   5.845   0.209
12157TIP3    H236415   2.612   5.834   0.274
12158TIP3   OH236416   7.992   2.763   2.569
12158TIP3    H136417   7.908   2.784   2.529
12158TIP3    H236418   8.024   2.688   2.519
12159TIP3   OH236419   0.523   7.615   1.544
12159TIP3    H136420   0.521   7.710   1.552
12159TIP3    H236421   0.549   7.584   1.631
12160TIP3   OH236422   4.228   6.623   0.620
12160TIP3    H136423   4.174   6.561   0.670
12160TIP3    H236424   4.297   6.569   0.582
12161TIP3   OH236425   5.930   6.038   6.366
12161TIP3    H136426   5.960   5.948   6.350
12161TIP3    H236427   5.897   6.036   6.456
12162TIP3   OH236428   3.935   5.359   0.554
12162TIP3    H136429   3.920   5.454   0.548
12162TIP3    H236430   4.013   5.351   0.608
12163TIP3   OH236431   2.848   4.289   6.268
12163TIP3    H136432   2.861   4.360   6.204
12163TIP3    H236433   2.893   4.320   6.347
12164TIP3   OH236434   5.278   4.055   3.324
12164TIP3    H136435   5.315   4.068   3.236
12164TIP3    H236436   5.226   3.976   3.316
12165TIP3   OH236437   6.993   0.608   3.596
12165TIP3    H136438   6.950   0.543   3.651
12165TIP3    H236439   7.086   0.594   3.610
12166TIP3   OH236440   4.634   2.672   5.133
12166TIP3    H136441   4.565   2.611   5.160
12166TIP3    H236442   4.713   2.618   5.125
12167TIP3   OH236443   7.633   2.916   5.514
12167TIP3    H136444   7.552   2.886   5.474
12167TIP3    H236445   7.606   2.956   5.596
12168TIP3   OH236446   6.186   7.778   2.665
12168TIP3    H136447   6.184   7.782   2.569
12168TIP3    H236448   6.241   7.851   2.691
12169TIP3   OH236449   0.850   2.080   0.996
12169TIP3    H136450   0.830   2.055   1.086
12169TIP3    H236451   0.786   2.033   0.943
12170TIP3   OH236452   3.265   3.486   1.264
12170TIP3    H136453   3.183   3.462   1.308
12170TIP3    H236454   3.244   3.484   1.171
12171TIP3   OH236455   5.989   7.424   3.384
12171TIP3    H136456   5.900   7.446   3.412
12171TIP3    H236457   5.979   7.340   3.338
12172TIP3   OH236458   3.639   6.075   4.292
12172TIP3    H136459   3.625   6.135   4.365
12172TIP3    H236460   3.724   6.100   4.257
12173TIP3   OH236461   5.537   3.372   6.028
12173TIP3    H136462   5.558   3.465   6.037
12173TIP3    H236463   5.478   3.354   6.101
12174TIP3   OH236464  -0.008   2.335   1.754
12174TIP3    H136465   0.013   2.428   1.756
12174TIP3    H236466   0.075   2.292   1.735
12175TIP3   OH236467   0.196   0.134   4.378
12175TIP3    H136468   0.150   0.211   4.344
12175TIP3    H236469   0.146   0.108   4.455
12176TIP3   OH236470   5.175   5.747   0.101
12176TIP3    H136471   5.105   5.682   0.091
12176TIP3    H236472   5.225   5.741   0.019
12177TIP3   OH236473   2.521   0.860   1.263
12177TIP3    H136474   2.599   0.832   1.215
12177TIP3    H236475   2.494   0.783   1.314
12178TIP3   OH236476   3.438   2.321   4.869
12178TIP3    H136477   3.399   2.335   4.782
12178TIP3    H236478   3.478   2.234   4.863
12179TIP3   OH236479   3.208   1.917   4.372
12179TIP3    H136480   3.234   1.829   4.399
12179TIP3    H236481   3.113   1.913   4.367
12180TIP3   OH236482   1.866   4.881   6.464
12180TIP3    H136483   1.910   4.965   6.453
12180TIP3    H236484   1.846   4.853   6.374
12181TIP3   OH236485   1.988   2.394   6.197
12181TIP3    H136486   2.075   2.364   6.223
12181TIP3    H236487   1.928   2.342   6.251
12182TIP3   OH236488   7.744   3.409   2.161
12182TIP3    H136489   7.826   3.376   2.197
12182TIP3    H236490   7.756   3.405   2.066
12183TIP3   OH236491   5.337   4.044   2.727
12183TIP3    H136492   5.356   4.002   2.812
12183TIP3    H236493   5.252   4.086   2.739
12184TIP3   OH236494   1.768   1.969   4.588
12184TIP3    H136495   1.800   2.059   4.584
12184TIP3    H236496   1.828   1.926   4.649
12185TIP3   OH236497   0.748   4.578   0.979
12185TIP3    H136498   0.764   4.556   1.071
12185TIP3    H236499   0.704   4.502   0.943
12186TIP3   OH236500   7.626   3.960   0.133
12186TIP3    H136501   7.617   3.993   0.222
12186TIP3    H236502   7.661   4.034   0.083
12187TIP3   OH236503   3.424   6.616   5.282
12187TIP3    H136504   3.333   6.633   5.258
12187TIP3    H236505   3.466   6.702   5.281
12188TIP3   OH236506   3.555   4.389   5.239
12188TIP3    H136507   3.633   4.440   5.263
12188TIP3    H236508   3.530   4.345   5.320
12189TIP3   OH236509   2.365   0.109   3.215
12189TIP3    H136510   2.283   0.092   3.168
12189TIP3    H236511   2.351   0.072   3.302
12190TIP3   OH236512   5.969   2.621   3.235
12190TIP3    H136513   6.037   2.609   3.169
12190TIP3    H236514   5.965   2.715   3.250
12191TIP3   OH236515   5.800   2.269   5.156
12191TIP3    H136516   5.750   2.193   5.186
12191TIP3    H236517   5.781   2.274   5.062
12192TIP3   OH236518   6.420   4.709   4.030
12192TIP3    H136519   6.414   4.660   3.948
12192TIP3    H236520   6.439   4.643   4.096
12193TIP3   OH236521   5.670   2.632   5.997
12193TIP3    H136522   5.694   2.588   6.079
12193TIP3    H236523   5.681   2.726   6.017
12194TIP3   OH236524   0.918   7.719   4.796
12194TIP3    H136525   0.924   7.752   4.706
12194TIP3    H236526   0.838   7.760   4.830
12195TIP3   OH236527   2.050   0.073   4.799
12195TIP3    H136528   2.013   0.095   4.714
12195TIP3    H236529   2.142   0.098   4.793
12196TIP3   OH236530   2.810   4.694   2.111
12196TIP3    H136531   2.801   4.787   2.088
12196TIP3    H236532   2.903   4.684   2.131
12197TIP3   OH236533   5.995   2.767   2.356
12197TIP3    H136534   5.963   2.852   2.383
12197TIP3    H236535   5.924   2.706   2.377
12198TIP3   OH236536   5.161   3.793   5.484
12198TIP3    H136537   5.123   3.800   5.396
12198TIP3    H236538   5.254   3.813   5.471
12199TIP3   OH236539   4.553   0.875   6.449
12199TIP3    H136540   4.640   0.881   6.409
12199TIP3    H236541   4.500   0.828   6.384
12200TIP3   OH236542   6.164   6.620   6.464
12200TIP3    H136543   6.186   6.684   6.532
12200TIP3    H236544   6.232   6.632   6.397
12201TIP3   OH236545   5.494   1.358   2.328
12201TIP3    H136546   5.511   1.376   2.421
12201TIP3    H236547   5.543   1.425   2.281
12202TIP3   OH236548   6.719   7.017   3.341
12202TIP3    H136549   6.765   7.047   3.419
12202TIP3    H236550   6.773   6.946   3.308
12203TIP3   OH236551   3.979   2.402   5.961
12203TIP3    H136552   4.053   2.341   5.965
12203TIP3    H236553   3.902   2.347   5.968
12204TIP3   OH236554   1.461   6.487   0.942
12204TIP3    H136555   1.366   6.482   0.951
12204TIP3    H236556   1.491   6.517   1.028
12205TIP3   OH236557   6.762   4.773   6.589
12205TIP3    H136558   6.758   4.696   6.533
12205TIP3    H236559   6.848   4.768   6.631
12206TIP3   OH236560   7.030   4.485   5.523
12206TIP3    H136561   7.051   4.470   5.615
12206TIP3    H236562   6.937   4.509   5.523
12207TIP3   OH236563   6.088   0.494   3.815
12207TIP3    H136564   6.028   0.493   3.889
12207TIP3    H236565   6.149   0.422   3.832
12208TIP3   OH236566   4.876   0.793   3.890
12208TIP3    H136567   4.913   0.747   3.814
12208TIP3    H236568   4.781   0.778   3.882
12209TIP3   OH236569   3.154   0.174   5.611
12209TIP3    H136570   3.167   0.215   5.696
12209TIP3    H236571   3.164   0.080   5.627
12210TIP3   OH236572   7.401   7.607   0.959
12210TIP3    H136573   7.369   7.519   0.978
12210TIP3    H236574   7.466   7.624   1.027
12211TIP3   OH236575   2.859   3.657   1.561
12211TIP3    H136576   2.772   3.616   1.561
12211TIP3    H236577   2.848   3.735   1.507
12212TIP3   OH236578   3.022   4.931   0.097
12212TIP3    H136579   3.088   4.883   0.146
12212TIP3    H236580   2.938   4.900   0.133
12213TIP3   OH236581   5.676   3.000   0.598
12213TIP3    H136582   5.729   2.920   0.588
12213TIP3    H236583   5.682   3.044   0.514
12214TIP3   OH236584   0.889   5.520   2.521
12214TIP3    H136585   0.802   5.558   2.513
12214TIP3    H236586   0.876   5.443   2.576
12215TIP3   OH236587   8.004   7.759   2.724
12215TIP3    H136588   8.033   7.840   2.682
12215TIP3    H236589   7.909   7.756   2.706
12216TIP3   OH236590   4.449   0.845   1.589
12216TIP3    H136591   4.422   0.841   1.681
12216TIP3    H236592   4.415   0.765   1.550
12217TIP3   OH236593   6.196   5.724   1.313
12217TIP3    H136594   6.252   5.652   1.286
12217TIP3    H236595   6.179   5.773   1.232
12218TIP3   OH236596   5.937   2.892   4.183
12218TIP3    H136597   5.893   2.974   4.204
12218TIP3    H236598   6.003   2.882   4.252
12219TIP3   OH236599   4.445   4.191   5.778
12219TIP3    H136600   4.527   4.237   5.797
12219TIP3    H236601   4.407   4.239   5.704
12220TIP3   OH236602   6.101   7.122   0.194
12220TIP3    H136603   6.133   7.125   0.284
12220TIP3    H236604   6.007   7.136   0.202
12221TIP3   OH236605   6.712   5.261   6.546
12221TIP3    H136606   6.721   5.322   6.472
12221TIP3    H236607   6.723   5.175   6.507
12222TIP3   OH236608   4.225   7.518   1.192
12222TIP3    H136609   4.188   7.554   1.273
12222TIP3    H236610   4.151   7.475   1.149
12223TIP3   OH236611   6.886   7.637   0.348
12223TIP3    H136612   6.794   7.627   0.374
12223TIP3    H236613   6.881   7.666   0.257
12224TIP3   OH236614   0.783   0.927   3.444
12224TIP3    H136615   0.730   0.992   3.491
12224TIP3    H236616   0.838   0.888   3.512
12225TIP3   OH236617   7.721   1.535   1.227
12225TIP3    H136618   7.807   1.564   1.196
12225TIP3    H236619   7.718   1.560   1.319
12226TIP3   OH236620   0.314   4.612   5.315
12226TIP3    H136621   0.340   4.525   5.286
12226TIP3    H236622   0.297   4.660   5.234
12227TIP3   OH236623   2.289   1.300   5.357
12227TIP3    H136624   2.363   1.339   5.405
12227TIP3    H236625   2.221   1.367   5.361
12228TIP3   OH236626   1.416   2.827   5.293
12228TIP3    H136627   1.490   2.860   5.241
12228TIP3    H236628   1.409   2.735   5.267
12229TIP3   OH236629   5.101   3.633   2.742
12229TIP3    H136630   5.143   3.713   2.710
12229TIP3    H236631   5.034   3.663   2.803
12230TIP3   OH236632   1.941   7.296   6.529
12230TIP3    H136633   2.004   7.338   6.471
12230TIP3    H236634   1.865   7.355   6.530
12231TIP3   OH236635   5.105   3.340   0.073
12231TIP3    H136636   5.195   3.308   0.077
12231TIP3    H236637   5.052   3.264   0.099
12232TIP3   OH236638   4.181   2.319   4.892
12232TIP3    H136639   4.245   2.367   4.943
12232TIP3    H236640   4.156   2.245   4.947
12233TIP3   OH236641   0.182   4.759   6.498
12233TIP3    H136642   0.106   4.714   6.536
12233TIP3    H236643   0.211   4.819   6.567
12234TIP3   OH236644   1.862   3.906   3.402
12234TIP3    H136645   1.866   3.828   3.346
12234TIP3    H236646   1.896   3.877   3.487
12235TIP3   OH236647   5.631   3.374   3.538
12235TIP3    H136648   5.698   3.376   3.606
12235TIP3    H236649   5.577   3.451   3.555
12236TIP3   OH236650   1.039   5.781   4.076
12236TIP3    H136651   1.123   5.799   4.119
12236TIP3    H236652   0.975   5.781   4.147
12237TIP3   OH236653   8.175   1.357   5.950
12237TIP3    H136654   8.252   1.329   5.901
12237TIP3    H236655   8.143   1.277   5.993
12238TIP3   OH236656   2.441   1.642   6.420
12238TIP3    H136657   2.499   1.717   6.410
12238TIP3    H236658   2.367   1.675   6.471
12239TIP3   OH236659   5.648   4.281   1.411
12239TIP3    H136660   5.621   4.323   1.329
12239TIP3    H236661   5.574   4.226   1.435
12240TIP3   OH236662   2.227   2.138   3.512
12240TIP3    H136663   2.198   2.229   3.511
12240TIP3    H236664   2.296   2.134   3.446
12241TIP3   OH236665   3.912   6.772   4.157
12241TIP3    H136666   3.923   6.866   4.147
12241TIP3    H236667   3.929   6.736   4.070
12242TIP3   OH236668   6.738   1.812   6.119
12242TIP3    H136669   6.700   1.900   6.115
12242TIP3    H236670   6.662   1.754   6.130
12243TIP3   OH236671   0.388   0.820   4.063
12243TIP3    H136672   0.396   0.786   3.974
12243TIP3    H236673   0.360   0.911   4.052
12244TIP3   OH236674   6.143   2.657   0.149
12244TIP3    H136675   6.105   2.720   0.210
12244TIP3    H236676   6.068   2.618   0.103
12245TIP3   OH236677   1.391   5.933   4.302
12245TIP3    H136678   1.397   6.025   4.326
12245TIP3    H236679   1.477   5.897   4.326
12246TIP3   OH236680   3.463   3.880   5.822
12246TIP3    H136681   3.412   3.840   5.751
12246TIP3    H236682   3.505   3.806   5.865
12247TIP3   OH236683   5.135   5.032   3.128
12247TIP3    H136684   5.122   5.104   3.190
12247TIP3    H236685   5.210   4.984   3.163
12248TIP3   OH236686   1.082   6.845   3.731
12248TIP3    H136687   1.113   6.873   3.644
12248TIP3    H236688   1.139   6.892   3.792
12249TIP3   OH236689   5.098   4.193   5.453
12249TIP3    H136690   5.162   4.126   5.476
12249TIP3    H236691   5.023   4.145   5.417
12250TIP3   OH236692   3.926   6.619   5.154
12250TIP3    H136693   4.008   6.570   5.150
12250TIP3    H236694   3.858   6.553   5.141
12251TIP3   OH236695   1.201   7.357   3.410
12251TIP3    H136696   1.244   7.402   3.483
12251TIP3    H236697   1.116   7.331   3.445
12252TIP3   OH236698   3.017   3.050   5.517
12252TIP3    H136699   3.077   3.000   5.462
12252TIP3    H236700   3.071   3.084   5.588
12253TIP3   OH236701   6.190   2.579   3.523
12253TIP3    H136702   6.203   2.667   3.559
12253TIP3    H236703   6.096   2.563   3.533
12254TIP3   OH236704   1.785   1.386   5.374
12254TIP3    H136705   1.874   1.377   5.339
12254TIP3    H236706   1.732   1.411   5.298
12255TIP3   OH236707   1.204   1.811   5.020
12255TIP3    H136708   1.176   1.754   5.092
12255TIP3    H236709   1.291   1.842   5.047
12256TIP3   OH236710   3.078   0.968   0.275
12256TIP3    H136711   3.116   0.970   0.188
12256TIP3    H236712   3.149   0.993   0.333
12257TIP3   OH236713   6.161   4.459   0.505
12257TIP3    H136714   6.068   4.436   0.500
12257TIP3    H236715   6.191   4.422   0.588
12258TIP3   OH236716   2.847   2.911   0.252
12258TIP3    H136717   2.761   2.941   0.282
12258TIP3    H236718   2.906   2.930   0.325
12259TIP3   OH236719   1.290   7.295   0.863
12259TIP3    H136720   1.287   7.327   0.953
12259TIP3    H236721   1.223   7.346   0.817
12260TIP3   OH236722   6.051   2.940   4.829
12260TIP3    H136723   6.075   2.848   4.838
12260TIP3    H236724   6.049   2.973   4.919
12261TIP3   OH236725   7.531   1.343   0.475
12261TIP3    H136726   7.567   1.427   0.448
12261TIP3    H236727   7.436   1.354   0.467
12262TIP3   OH236728   5.235   2.708   6.651
12262TIP3    H136729   5.297   2.716   6.723
12262TIP3    H236730   5.150   2.728   6.690
12263TIP3   OH236731   2.986   1.846   3.165
12263TIP3    H136732   3.047   1.775   3.185
12263TIP3    H236733   2.938   1.816   3.088
12264TIP3   OH236734   2.714   7.361   2.064
12264TIP3    H136735   2.675   7.323   1.986
12264TIP3    H236736   2.690   7.302   2.135
12265TIP3   OH236737   0.837   7.883   6.131
12265TIP3    H136738   0.851   7.843   6.217
12265TIP3    H236739   0.794   7.815   6.079
12266TIP3   OH236740   5.464   3.185   0.601
12266TIP3    H136741   5.539   3.131   0.575
12266TIP3    H236742   5.499   3.243   0.669
12267TIP3   OH236743   3.013   4.322   0.157
12267TIP3    H136744   2.971   4.323   0.243
12267TIP3    H236745   2.950   4.279   0.100
12268TIP3   OH236746   2.686   1.912   2.958
12268TIP3    H136747   2.611   1.906   2.899
12268TIP3    H236748   2.761   1.887   2.903
12269TIP3   OH236749   8.206   0.551   0.357
12269TIP3    H136750   8.192   0.474   0.303
12269TIP3    H236751   8.151   0.536   0.434
12270TIP3   OH236752   5.850   3.664   6.277
12270TIP3    H136753   5.831   3.651   6.370
12270TIP3    H236754   5.940   3.633   6.266
12271TIP3   OH236755   1.617   2.220   4.388
12271TIP3    H136756   1.711   2.235   4.404
12271TIP3    H236757   1.611   2.127   4.367
12272TIP3   OH236758   2.586   4.530   3.472
12272TIP3    H136759   2.649   4.544   3.401
12272TIP3    H236760   2.637   4.545   3.552
12273TIP3   OH236761   6.900   7.262   6.388
12273TIP3    H136762   6.926   7.183   6.435
12273TIP3    H236763   6.804   7.260   6.388
12274TIP3   OH236764   8.258   2.858   0.803
12274TIP3    H136765   8.219   2.931   0.851
12274TIP3    H236766   8.299   2.899   0.727
12275TIP3   OH236767   7.110   1.653   6.063
12275TIP3    H136768   7.153   1.730   6.101
12275TIP3    H236769   7.172   1.621   5.998
12276TIP3   OH236770   4.572   7.073   5.910
12276TIP3    H136771   4.600   7.156   5.873
12276TIP3    H236772   4.498   7.095   5.966
12277TIP3   OH236773   0.365   7.403   5.654
12277TIP3    H136774   0.284   7.400   5.705
12277TIP3    H236775   0.378   7.496   5.636
12278TIP3   OH236776   5.853   1.337   4.758
12278TIP3    H136777   5.829   1.245   4.747
12278TIP3    H236778   5.947   1.335   4.772
12279TIP3   OH236779   4.211   7.300   5.851
12279TIP3    H136780   4.124   7.313   5.814
12279TIP3    H236781   4.201   7.223   5.907
12280TIP3   OH236782   3.309   5.769   1.368
12280TIP3    H136783   3.232   5.733   1.412
12280TIP3    H236784   3.353   5.692   1.331
12281TIP3   OH236785   4.470   6.542   1.073
12281TIP3    H136786   4.462   6.482   1.147
12281TIP3    H236787   4.475   6.485   0.996
12282TIP3   OH236788   2.880   0.438   4.707
12282TIP3    H136789   2.873   0.533   4.694
12282TIP3    H236790   2.818   0.418   4.777
12283TIP3   OH236791   2.852   0.264   5.479
12283TIP3    H136792   2.900   0.343   5.453
12283TIP3    H236793   2.920   0.199   5.496
12284TIP3   OH236794   2.558   3.038   0.515
12284TIP3    H136795   2.595   2.967   0.567
12284TIP3    H236796   2.568   3.008   0.424
12285TIP3   OH236797   4.207   5.551   1.922
12285TIP3    H136798   4.208   5.456   1.927
12285TIP3    H236799   4.241   5.570   1.834
12286TIP3   OH236800   6.281   6.714   6.216
12286TIP3    H136801   6.372   6.728   6.191
12286TIP3    H236802   6.233   6.785   6.172
12287TIP3   OH236803   1.226   7.500   3.159
12287TIP3    H136804   1.213   7.463   3.246
12287TIP3    H236805   1.288   7.572   3.172
12288TIP3   OH236806   1.253   1.456   3.994
12288TIP3    H136807   1.245   1.362   3.979
12288TIP3    H236808   1.171   1.481   4.035
12289TIP3   OH236809   8.054   6.283   2.308
12289TIP3    H136810   8.026   6.337   2.382
12289TIP3    H236811   8.066   6.196   2.344
12290TIP3   OH236812   7.278   7.764   1.370
12290TIP3    H136813   7.249   7.793   1.284
12290TIP3    H236814   7.236   7.679   1.382
12291TIP3   OH236815   0.052   1.114   4.695
12291TIP3    H136816   0.069   1.202   4.661
12291TIP3    H236817  -0.008   1.127   4.768
12292TIP3   OH236818   1.754   1.101   3.836
12292TIP3    H136819   1.673   1.062   3.869
12292TIP3    H236820   1.823   1.044   3.868
12293TIP3   OH236821   6.165   1.033   2.678
12293TIP3    H136822   6.071   1.050   2.684
12293TIP3    H236823   6.176   0.945   2.712
12294TIP3   OH236824   4.325   6.007   5.004
12294TIP3    H136825   4.295   6.097   5.015
12294TIP3    H236826   4.307   5.987   4.912
12295TIP3   OH236827   6.224   3.671   5.806
12295TIP3    H136828   6.315   3.695   5.791
12295TIP3    H236829   6.207   3.694   5.897
12296TIP3   OH236830   7.614   3.075   1.353
12296TIP3    H136831   7.582   2.988   1.375
12296TIP3    H236832   7.569   3.133   1.414
12297TIP3   OH236833   1.067   5.179   1.185
12297TIP3    H136834   1.126   5.172   1.259
12297TIP3    H236835   1.087   5.264   1.145
12298TIP3   OH236836   0.419   5.963   1.623
12298TIP3    H136837   0.378   6.049   1.613
12298TIP3    H236838   0.501   5.969   1.575
12299TIP3   OH236839   6.662   2.073   3.432
12299TIP3    H136840   6.593   2.022   3.474
12299TIP3    H236841   6.696   2.129   3.501
12300TIP3   OH236842   2.726   4.277   5.187
12300TIP3    H136843   2.636   4.259   5.160
12300TIP3    H236844   2.762   4.328   5.116
12301TIP3   OH236845   0.587   3.884   6.586
12301TIP3    H136846   0.521   3.863   6.520
12301TIP3    H236847   0.568   3.823   6.658
12302TIP3   OH236848   1.296   3.840   2.312
12302TIP3    H136849   1.357   3.875   2.247
12302TIP3    H236850   1.333   3.755   2.336
12303TIP3   OH236851   6.514   5.156   4.700
12303TIP3    H136852   6.425   5.169   4.733
12303TIP3    H236853   6.506   5.082   4.639
12304TIP3   OH236854   4.105   6.360   1.674
12304TIP3    H136855   4.071   6.277   1.707
12304TIP3    H236856   4.082   6.424   1.742
12305TIP3   OH236857   2.481   6.578   6.537
12305TIP3    H136858   2.464   6.638   6.465
12305TIP3    H236859   2.519   6.633   6.606
12306TIP3   OH236860   6.174   1.746   2.730
12306TIP3    H136861   6.241   1.704   2.677
12306TIP3    H236862   6.221   1.814   2.778
12307TIP3   OH236863   4.518   2.899   0.788
12307TIP3    H136864   4.428   2.921   0.765
12307TIP3    H236865   4.572   2.955   0.732
12308TIP3   OH236866   7.109   2.183   5.693
12308TIP3    H136867   7.120   2.236   5.772
12308TIP3    H236868   7.102   2.246   5.622
12309TIP3   OH236869   1.714   1.053   4.820
12309TIP3    H136870   1.772   1.036   4.746
12309TIP3    H236871   1.626   1.046   4.784
12310TIP3   OH236872   0.055   2.298   3.158
12310TIP3    H136873   0.129   2.334   3.109
12310TIP3    H236874  -0.006   2.269   3.090
12311TIP3   OH236875   1.467   0.552   2.354
12311TIP3    H136876   1.560   0.530   2.349
12311TIP3    H236877   1.422   0.468   2.340
12312TIP3   OH236878   0.890   7.065   6.011
12312TIP3    H136879   0.829   7.087   6.081
12312TIP3    H236880   0.880   7.135   5.946
12313TIP3   OH236881   4.413   3.512   0.765
12313TIP3    H136882   4.468   3.436   0.785
12313TIP3    H236883   4.473   3.586   0.762
12314TIP3   OH236884   5.823   2.056   6.722
12314TIP3    H136885   5.883   2.000   6.771
12314TIP3    H236886   5.747   2.065   6.780
12315TIP3   OH236887   1.691   5.489   6.775
12315TIP3    H136888   1.679   5.451   6.861
12315TIP3    H236889   1.603   5.498   6.739
12316TIP3   OH236890   3.334   0.906   1.444
12316TIP3    H136891   3.243   0.895   1.473
12316TIP3    H236892   3.385   0.903   1.525
12317TIP3   OH236893   6.620   4.064   0.575
12317TIP3    H136894   6.562   4.096   0.643
12317TIP3    H236895   6.571   4.075   0.494
12318TIP3   OH236896   2.795   2.333   0.834
12318TIP3    H136897   2.707   2.298   0.822
12318TIP3    H236898   2.837   2.273   0.895
12319TIP3   OH236899   1.672   4.097   2.015
12319TIP3    H136900   1.696   4.018   1.967
12319TIP3    H236901   1.752   4.122   2.062
12320TIP3   OH236902   0.693   3.122   5.085
12320TIP3    H136903   0.623   3.180   5.114
12320TIP3    H236904   0.773   3.175   5.094
12321TIP3   OH236905   5.786   2.680   2.631
12321TIP3    H136906   5.780   2.613   2.699
12321TIP3    H236907   5.816   2.758   2.677
12322TIP3   OH236908   5.415   2.338   2.118
12322TIP3    H136909   5.409   2.297   2.205
12322TIP3    H236910   5.508   2.353   2.104
12323TIP3   OH236911   3.550   4.704   5.250
12323TIP3    H136912   3.614   4.632   5.253
12323TIP3    H236913   3.472   4.664   5.213
12324TIP3   OH236914   1.703   4.735   4.038
12324TIP3    H136915   1.608   4.723   4.043
12324TIP3    H236916   1.736   4.700   4.121
12325TIP3   OH236917   1.751   5.031   3.772
12325TIP3    H136918   1.660   5.053   3.753
12325TIP3    H236919   1.760   5.042   3.867
12326TIP3   OH236920   4.009   3.280   5.650
12326TIP3    H136921   3.963   3.357   5.684
12326TIP3    H236922   4.088   3.316   5.609
12327TIP3   OH236923   7.469   7.058   5.580
12327TIP3    H136924   7.484   7.152   5.590
12327TIP3    H236925   7.510   7.018   5.657
12328TIP3   OH236926   4.822   6.132   6.668
12328TIP3    H136927   4.839   6.220   6.636
12328TIP3    H236928   4.793   6.084   6.591
12329TIP3   OH236929   3.995   0.760   6.078
12329TIP3    H136930   3.986   0.856   6.073
12329TIP3    H236931   3.996   0.732   5.986
12330TIP3   OH236932   2.650   0.522   3.526
12330TIP3    H136933   2.713   0.516   3.599
12330TIP3    H236934   2.693   0.475   3.454
12331TIP3   OH236935   7.945   0.760   1.859
12331TIP3    H136936   7.998   0.794   1.931
12331TIP3    H236937   7.914   0.675   1.890
12332TIP3   OH236938   6.049   7.775   4.221
12332TIP3    H136939   6.050   7.776   4.126
12332TIP3    H236940   5.960   7.751   4.245
12333TIP3   OH236941   6.880   6.813   3.170
12333TIP3    H136942   6.964   6.783   3.204
12333TIP3    H236943   6.893   6.820   3.075
12334TIP3   OH236944   5.220   4.377   5.087
12334TIP3    H136945   5.233   4.283   5.104
12334TIP3    H236946   5.289   4.401   5.026
12335TIP3   OH236947   3.064   3.299   0.445
12335TIP3    H136948   3.073   3.290   0.540
12335TIP3    H236949   3.027   3.386   0.432
12336TIP3   OH236950   0.449   6.363   4.208
12336TIP3    H136951   0.356   6.369   4.187
12336TIP3    H236952   0.478   6.283   4.164
12337TIP3   OH236953   1.877   7.814   0.819
12337TIP3    H136954   1.814   7.769   0.875
12337TIP3    H236955   1.940   7.853   0.879
12338TIP3   OH236956   2.115   2.614   3.675
12338TIP3    H136957   2.146   2.690   3.625
12338TIP3    H236958   2.139   2.539   3.621
12339TIP3   OH236959   1.036   0.871   1.853
12339TIP3    H136960   0.962   0.909   1.901
12339TIP3    H236961   1.053   0.788   1.899
12340TIP3   OH236962   4.792   1.100   5.797
12340TIP3    H136963   4.703   1.120   5.828
12340TIP3    H236964   4.847   1.167   5.837
12341TIP3   OH236965   7.563   7.079   3.232
12341TIP3    H136966   7.579   7.171   3.210
12341TIP3    H236967   7.638   7.032   3.195
12342TIP3   OH236968   3.359   0.513   2.686
12342TIP3    H136969   3.317   0.522   2.772
12342TIP3    H236970   3.291   0.541   2.624
12343TIP3   OH236971   2.617   1.620   3.143
12343TIP3    H136972   2.623   1.645   3.051
12343TIP3    H236973   2.574   1.534   3.142
12344TIP3   OH236974   3.517   5.769   3.769
12344TIP3    H136975   3.583   5.717   3.723
12344TIP3    H236976   3.459   5.703   3.808
12345TIP3   OH236977   0.786   6.542   4.730
12345TIP3    H136978   0.696   6.517   4.752
12345TIP3    H236979   0.805   6.615   4.789
12346TIP3   OH236980   4.845   0.719   2.775
12346TIP3    H136981   4.856   0.802   2.822
12346TIP3    H236982   4.909   0.660   2.815
12347TIP3   OH236983   5.836   0.275   5.717
12347TIP3    H136984   5.803   0.273   5.807
12347TIP3    H236985   5.771   0.229   5.665
12348TIP3   OH236986   1.238   3.530   2.956
12348TIP3    H136987   1.263   3.614   2.995
12348TIP3    H236988   1.244   3.544   2.861
12349TIP3   OH236989   3.316   0.518   4.328
12349TIP3    H136990   3.364   0.483   4.253
12349TIP3    H236991   3.301   0.442   4.384
12350TIP3   OH236992   7.470   7.187   5.144
12350TIP3    H136993   7.496   7.102   5.107
12350TIP3    H236994   7.430   7.233   5.070
12351TIP3   OH236995   4.008   2.542   4.476
12351TIP3    H136996   4.037   2.558   4.386
12351TIP3    H236997   3.931   2.598   4.486
12352TIP3   OH236998   7.728   4.067   0.995
12352TIP3    H136999   7.822   4.071   1.014
12352TIP3    H237000   7.711   3.974   0.978
12353TIP3   OH237001   0.329   7.650   5.533
12353TIP3    H137002   0.283   7.600   5.466
12353TIP3    H237003   0.373   7.721   5.484
12354TIP3   OH237004   5.036   5.882   6.506
12354TIP3    H137005   4.944   5.879   6.534
12354TIP3    H237006   5.039   5.954   6.442
12355TIP3   OH237007   1.599   7.123   3.620
12355TIP3    H137008   1.577   7.042   3.574
12355TIP3    H237009   1.694   7.123   3.626
12356TIP3   OH237010   7.775   6.975   5.038
12356TIP3    H137011   7.788   6.881   5.035
12356TIP3    H237012   7.681   6.987   5.032
12357TIP3   OH237013   0.620   5.391   1.540
12357TIP3    H137014   0.610   5.410   1.634
12357TIP3    H237015   0.712   5.413   1.522
12358TIP3   OH237016   2.198   4.079   5.668
12358TIP3    H137017   2.263   4.073   5.599
12358TIP3    H237018   2.214   4.002   5.723
12359TIP3   OH237019   3.285   0.741   6.571
12359TIP3    H137020   3.378   0.763   6.567
12359TIP3    H237021   3.262   0.750   6.663
12360TIP3   OH237022   6.375   5.976   5.774
12360TIP3    H137023   6.319   5.993   5.699
12360TIP3    H237024   6.438   5.911   5.744
12361TIP3   OH237025   5.505   6.900   1.977
12361TIP3    H137026   5.425   6.952   1.973
12361TIP3    H237027   5.498   6.850   2.058
12362TIP3   OH237028   7.248   2.533   1.887
12362TIP3    H137029   7.282   2.488   1.964
12362TIP3    H237030   7.316   2.521   1.820
12363TIP3   OH237031   5.661   1.791   0.758
12363TIP3    H137032   5.731   1.818   0.817
12363TIP3    H237033   5.645   1.700   0.780
12364TIP3   OH237034   4.113   5.003   1.032
12364TIP3    H137035   4.160   4.921   1.052
12364TIP3    H237036   4.127   5.015   0.938
12365TIP3   OH237037   4.571   1.874   1.386
12365TIP3    H137038   4.576   1.954   1.439
12365TIP3    H237039   4.624   1.810   1.433
12366TIP3   OH237040   4.684   6.610   4.696
12366TIP3    H137041   4.708   6.583   4.784
12366TIP3    H237042   4.759   6.659   4.664
12367TIP3   OH237043   6.244   6.221   1.377
12367TIP3    H137044   6.167   6.219   1.321
12367TIP3    H237045   6.227   6.154   1.444
12368TIP3   OH237046   0.462   5.272   2.494
12368TIP3    H137047   0.502   5.301   2.412
12368TIP3    H237048   0.536   5.248   2.550
12369TIP3   OH237049   3.288   0.257   6.382
12369TIP3    H137050   3.383   0.261   6.373
12369TIP3    H237051   3.260   0.349   6.378
12370TIP3   OH237052   0.593   6.256   2.653
12370TIP3    H137053   0.683   6.288   2.654
12370TIP3    H237054   0.556   6.293   2.573
12371TIP3   OH237055   1.409   4.008   4.014
12371TIP3    H137056   1.324   3.964   4.023
12371TIP3    H237057   1.470   3.937   3.995
12372TIP3   OH237058   2.187   0.585   1.306
12372TIP3    H137059   2.114   0.537   1.266
12372TIP3    H237060   2.236   0.518   1.354
12373TIP3   OH237061   2.875   7.786   3.200
12373TIP3    H137062   2.963   7.749   3.199
12373TIP3    H237063   2.840   7.764   3.286
12374TIP3   OH237064   5.392   7.533   2.215
12374TIP3    H137065   5.320   7.469   2.217
12374TIP3    H237066   5.360   7.606   2.269
12375TIP3   OH237067   2.207   3.330   6.212
12375TIP3    H137068   2.249   3.326   6.126
12375TIP3    H237069   2.176   3.240   6.226
12376TIP3   OH237070   2.957   2.334   6.409
12376TIP3    H137071   2.901   2.393   6.460
12376TIP3    H237072   3.044   2.345   6.447
12377TIP3   OH237073   3.992   6.485   4.048
12377TIP3    H137074   3.956   6.460   4.133
12377TIP3    H237075   3.932   6.449   3.984
12378TIP3   OH237076   3.512   3.921   6.230
12378TIP3    H137077   3.541   3.873   6.153
12378TIP3    H237078   3.417   3.927   6.219
12379TIP3   OH237079   5.788   6.168   1.815
12379TIP3    H137080   5.741   6.227   1.874
12379TIP3    H237081   5.849   6.120   1.872
12380TIP3   OH237082   3.065   5.184   3.816
12380TIP3    H137083   3.067   5.089   3.828
12380TIP3    H237084   3.108   5.199   3.732
12381TIP3   OH237085   4.542   7.148   6.444
12381TIP3    H137086   4.513   7.072   6.393
12381TIP3    H237087   4.479   7.217   6.423
12382TIP3   OH237088   6.415   0.206   4.070
12382TIP3    H137089   6.321   0.223   4.064
12382TIP3    H237090   6.430   0.135   4.006
12383TIP3   OH237091   5.174   0.338   4.019
12383TIP3    H137092   5.126   0.404   4.069
12383TIP3    H237093   5.245   0.311   4.077
12384TIP3   OH237094   2.955   4.103   5.854
12384TIP3    H137095   2.947   4.021   5.805
12384TIP3    H237096   2.910   4.168   5.801
12385TIP3   OH237097   6.394   6.062   1.694
12385TIP3    H137098   6.319   6.105   1.735
12385TIP3    H237099   6.376   5.968   1.702
12386TIP3   OH237100   5.702   4.515   0.185
12386TIP3    H137101   5.794   4.496   0.166
12386TIP3    H237102   5.653   4.471   0.116
12387TIP3   OH237103   7.425   4.119   5.403
12387TIP3    H137104   7.505   4.067   5.405
12387TIP3    H237105   7.357   4.059   5.437
12388TIP3   OH237106   5.734   0.588   0.424
12388TIP3    H137107   5.796   0.581   0.497
12388TIP3    H237108   5.667   0.522   0.444
12389TIP3   OH237109   3.834   0.019   3.591
12389TIP3    H137110   3.830   0.057   3.504
12389TIP3    H237111   3.856   0.092   3.649
12390TIP3   OH237112   0.551   3.586   2.960
12390TIP3    H137113   0.474   3.577   2.904
12390TIP3    H237114   0.621   3.544   2.910
12391TIP3   OH237115   7.223   0.470   0.949
12391TIP3    H137116   7.298   0.499   1.001
12391TIP3    H237117   7.220   0.531   0.875
12392TIP3   OH237118   4.912   5.518   2.223
12392TIP3    H137119   4.860   5.461   2.280
12392TIP3    H237120   4.961   5.575   2.283
12393TIP3   OH237121   3.938   3.448   1.551
12393TIP3    H137122   4.016   3.476   1.503
12393TIP3    H237123   3.963   3.457   1.643
12394TIP3   OH237124   5.109   6.980   2.162
12394TIP3    H137125   5.037   7.007   2.105
12394TIP3    H237126   5.129   6.890   2.135
12395TIP3   OH237127   4.489   4.759   4.299
12395TIP3    H137128   4.516   4.851   4.302
12395TIP3    H237129   4.402   4.761   4.259
12396TIP3   OH237130   5.447   0.762   2.982
12396TIP3    H137131   5.467   0.680   3.027
12396TIP3    H237132   5.355   0.756   2.959
12397TIP3   OH237133   1.064   0.915   0.249
12397TIP3    H137134   1.028   0.839   0.202
12397TIP3    H237135   1.057   0.987   0.187
12398TIP3   OH237136   4.685   5.003   0.895
12398TIP3    H137137   4.612   4.975   0.839
12398TIP3    H237138   4.646   5.067   0.954
12399TIP3   OH237139   1.619   6.520   3.765
12399TIP3    H137140   1.591   6.430   3.745
12399TIP3    H237141   1.559   6.575   3.715
12400TIP3   OH237142   0.077   2.853   0.265
12400TIP3    H137143   0.036   2.816   0.343
12400TIP3    H237144   0.165   2.877   0.294
12401TIP3   OH237145   1.360   5.855   2.115
12401TIP3    H137146   1.432   5.819   2.167
12401TIP3    H237147   1.403   5.903   2.045
12402TIP3   OH237148   4.343   1.727   1.287
12402TIP3    H137149   4.398   1.650   1.297
12402TIP3    H237150   4.391   1.797   1.331
12403TIP3   OH237151   6.445   5.353   0.351
12403TIP3    H137152   6.391   5.274   0.356
12403TIP3    H237153   6.419   5.404   0.428
12404TIP3   OH237154   5.358   7.750   6.724
12404TIP3    H137155   5.351   7.707   6.638
12404TIP3    H237156   5.303   7.696   6.781
12405TIP3   OH237157   3.866   3.049   3.175
12405TIP3    H137158   3.862   3.143   3.192
12405TIP3    H237159   3.862   3.041   3.079
12406TIP3   OH237160   7.090   2.054   5.417
12406TIP3    H137161   7.048   2.012   5.342
12406TIP3    H237162   7.019   2.102   5.460
12407TIP3   OH237163   3.993   3.086   0.657
12407TIP3    H137164   4.053   3.151   0.694
12407TIP3    H237165   4.021   3.003   0.695
12408TIP3   OH237166   2.866   5.748   1.704
12408TIP3    H137167   2.826   5.816   1.758
12408TIP3    H237168   2.941   5.792   1.663
12409TIP3   OH237169   8.268   6.034   6.035
12409TIP3    H137170   8.189   6.035   5.981
12409TIP3    H237171   8.243   5.985   6.113
12410TIP3   OH237172   4.888   0.874   0.642
12410TIP3    H137173   4.909   0.931   0.716
12410TIP3    H237174   4.851   0.933   0.577
12411TIP3   OH237175   2.040   5.911   6.068
12411TIP3    H137176   2.066   5.998   6.098
12411TIP3    H237177   2.019   5.922   5.975
12412TIP3   OH237178   5.631   4.933   1.309
12412TIP3    H137179   5.701   4.978   1.262
12412TIP3    H237180   5.563   5.000   1.319
12413TIP3   OH237181   6.476   5.079   2.848
12413TIP3    H137182   6.475   4.990   2.884
12413TIP3    H237183   6.538   5.075   2.776
12414TIP3   OH237184   0.100   2.341   6.403
12414TIP3    H137185   0.049   2.267   6.370
12414TIP3    H237186   0.045   2.418   6.385
12415TIP3   OH237187   6.377   3.581   6.663
12415TIP3    H137188   6.361   3.539   6.748
12415TIP3    H237189   6.455   3.536   6.629
12416TIP3   OH237190   8.100   2.893   3.914
12416TIP3    H137191   8.009   2.870   3.933
12416TIP3    H237192   8.098   2.988   3.903
12417TIP3   OH237193   4.849   3.485   4.925
12417TIP3    H137194   4.935   3.504   4.963
12417TIP3    H237195   4.834   3.392   4.945
12418TIP3   OH237196   2.157   0.930   0.743
12418TIP3    H137197   2.211   0.850   0.739
12418TIP3    H237198   2.092   0.911   0.811
12419TIP3   OH237199   3.214   4.875   6.355
12419TIP3    H137200   3.234   4.870   6.261
12419TIP3    H237201   3.298   4.863   6.398
12420TIP3   OH237202   1.594   3.226   6.491
12420TIP3    H137203   1.594   3.236   6.396
12420TIP3    H237204   1.650   3.150   6.507
12421TIP3   OH237205   6.230   3.019   0.959
12421TIP3    H137206   6.272   3.034   1.044
12421TIP3    H237207   6.163   2.953   0.976
12422TIP3   OH237208   6.425   3.017   1.458
12422TIP3    H137209   6.432   2.972   1.542
12422TIP3    H237210   6.515   3.042   1.437
12423TIP3   OH237211   2.192   5.297   2.528
12423TIP3    H137212   2.286   5.299   2.513
12423TIP3    H237213   2.159   5.231   2.467
12424TIP3   OH237214   1.493   4.396   2.705
12424TIP3    H137215   1.512   4.302   2.712
12424TIP3    H237216   1.540   4.423   2.626
12425TIP3   OH237217   7.460   0.551   5.907
12425TIP3    H137218   7.521   0.617   5.942
12425TIP3    H237219   7.480   0.549   5.813
12426TIP3   OH237220   5.768   5.991   3.840
12426TIP3    H137221   5.825   6.023   3.909
12426TIP3    H237222   5.805   6.026   3.759
12427TIP3   OH237223   1.273   1.872   2.502
12427TIP3    H137224   1.262   1.816   2.579
12427TIP3    H237225   1.185   1.902   2.481
12428TIP3   OH237226   5.394   5.714   0.295
12428TIP3    H137227   5.338   5.741   0.222
12428TIP3    H237228   5.368   5.624   0.312
12429TIP3   OH237229   8.064   2.977   0.507
12429TIP3    H137230   8.133   2.911   0.501
12429TIP3    H237231   8.088   3.031   0.583
12430TIP3   OH237232   2.718   1.184   1.732
12430TIP3    H137233   2.756   1.122   1.794
12430TIP3    H237234   2.732   1.270   1.772
12431TIP3   OH237235   3.847   1.400   2.885
12431TIP3    H137236   3.837   1.482   2.932
12431TIP3    H237237   3.942   1.386   2.881
12432TIP3   OH237238   7.553   3.855   2.387
12432TIP3    H137239   7.586   3.773   2.348
12432TIP3    H237240   7.458   3.843   2.389
12433TIP3   OH237241   0.520   0.190   2.735
12433TIP3    H137242   0.463   0.254   2.692
12433TIP3    H237243   0.500   0.107   2.693
12434TIP3   OH237244   2.115   1.471   1.605
12434TIP3    H137245   2.176   1.533   1.565
12434TIP3    H237246   2.063   1.524   1.665
12435TIP3   OH237247   8.101   1.547   5.301
12435TIP3    H137248   8.196   1.541   5.304
12435TIP3    H237249   8.084   1.624   5.247
12436TIP3   OH237250   2.714   2.031   3.988
12436TIP3    H137251   2.662   1.951   3.994
12436TIP3    H237252   2.805   2.001   3.986
12437TIP3   OH237253   3.420   0.125   4.162
12437TIP3    H137254   3.363   0.164   4.228
12437TIP3    H237255   3.408   0.180   4.084
12438TIP3   OH237256   0.795   2.367   0.376
12438TIP3    H137257   0.731   2.327   0.434
12438TIP3    H237258   0.838   2.434   0.430
12439TIP3   OH237259   3.811   3.579   0.148
12439TIP3    H137260   3.821   3.565   0.054
12439TIP3    H237261   3.847   3.667   0.163
12440TIP3   OH237262   6.091   2.215   1.086
12440TIP3    H137263   6.130   2.279   1.147
12440TIP3    H237264   6.009   2.256   1.058
12441TIP3   OH237265   0.465   4.937   5.990
12441TIP3    H137266   0.404   4.889   5.934
12441TIP3    H237267   0.410   4.999   6.038
12442TIP3   OH237268   1.802   7.101   1.035
12442TIP3    H137269   1.707   7.093   1.023
12442TIP3    H237270   1.837   7.018   1.004
12443TIP3   OH237271   1.518   7.464   3.434
12443TIP3    H137272   1.441   7.487   3.486
12443TIP3    H237273   1.488   7.391   3.379
12444TIP3   OH237274   4.797   2.629   2.738
12444TIP3    H137275   4.818   2.718   2.709
12444TIP3    H237276   4.876   2.599   2.782
12445TIP3   OH237277   1.391   0.434   3.912
12445TIP3    H137278   1.472   0.480   3.895
12445TIP3    H237279   1.325   0.479   3.859
12446TIP3   OH237280   2.310   0.199   3.984
12446TIP3    H137281   2.354   0.150   3.914
12446TIP3    H237282   2.289   0.132   4.050
12447TIP3   OH237283   3.517   5.278   2.509
12447TIP3    H137284   3.477   5.329   2.439
12447TIP3    H237285   3.609   5.271   2.485
12448TIP3   OH237286   6.235   1.735   1.148
12448TIP3    H137287   6.189   1.651   1.143
12448TIP3    H237288   6.169   1.801   1.131
12449TIP3   OH237289   7.485   7.371   6.586
12449TIP3    H137290   7.410   7.383   6.528
12449TIP3    H237291   7.540   7.307   6.541
12450TIP3   OH237292   5.782   2.568   5.625
12450TIP3    H137293   5.752   2.529   5.542
12450TIP3    H237294   5.841   2.502   5.661
12451TIP3   OH237295   5.178   3.923   1.977
12451TIP3    H137296   5.246   3.979   2.015
12451TIP3    H237297   5.097   3.971   1.989
12452TIP3   OH237298   7.244   1.067   4.927
12452TIP3    H137299   7.177   1.122   4.969
12452TIP3    H237300   7.238   1.090   4.834
12453TIP3   OH237301   7.616   5.010   6.413
12453TIP3    H137302   7.662   4.952   6.474
12453TIP3    H237303   7.609   4.960   6.332
12454TIP3   OH237304   4.801   3.035   2.285
12454TIP3    H137305   4.804   2.973   2.213
12454TIP3    H237306   4.803   2.981   2.364
12455TIP3   OH237307   1.461   3.213   2.688
12455TIP3    H137308   1.511   3.267   2.627
12455TIP3    H237309   1.370   3.234   2.669
12456TIP3   OH237310   7.715   5.926   0.690
12456TIP3    H137311   7.641   5.986   0.698
12456TIP3    H237312   7.675   5.839   0.682
12457TIP3   OH237313   0.216   3.238   5.326
12457TIP3    H137314   0.223   3.178   5.400
12457TIP3    H237315   0.249   3.322   5.359
12458TIP3   OH237316   0.247   5.641   5.484
12458TIP3    H137317   0.223   5.625   5.392
12458TIP3    H237318   0.266   5.735   5.488
12459TIP3   OH237319   8.299   0.970   2.445
12459TIP3    H137320   8.364   0.958   2.514
12459TIP3    H237321   8.228   0.911   2.468
12460TIP3   OH237322   3.095   4.924   1.748
12460TIP3    H137323   3.006   4.889   1.738
12460TIP3    H237324   3.084   5.018   1.732
12461TIP3   OH237325   1.662   7.395   1.777
12461TIP3    H137326   1.647   7.318   1.721
12461TIP3    H237327   1.705   7.359   1.855
12462TIP3   OH237328   0.052   2.535   2.322
12462TIP3    H137329   0.073   2.483   2.244
12462TIP3    H237330   0.084   2.623   2.300
12463TIP3   OH237331   1.864   1.063   0.625
12463TIP3    H137332   1.862   0.989   0.686
12463TIP3    H237333   1.837   1.138   0.678
12464TIP3   OH237334   2.231   3.221   2.346
12464TIP3    H137335   2.254   3.269   2.266
12464TIP3    H237336   2.274   3.136   2.336
12465TIP3   OH237337   2.276   0.273   5.640
12465TIP3    H137338   2.333   0.230   5.576
12465TIP3    H237339   2.187   0.248   5.614
12466TIP3   OH237340   3.880   1.085   4.710
12466TIP3    H137341   3.861   1.032   4.633
12466TIP3    H237342   3.937   1.028   4.764
12467TIP3   OH237343   6.391   2.673   0.884
12467TIP3    H137344   6.458   2.708   0.824
12467TIP3    H237345   6.388   2.580   0.865
12468TIP3   OH237346   0.386   5.325   2.080
12468TIP3    H137347   0.482   5.327   2.077
12468TIP3    H237348   0.359   5.377   2.004
12469TIP3   OH237349   6.331   4.710   0.507
12469TIP3    H137350   6.377   4.637   0.548
12469TIP3    H237351   6.244   4.675   0.487
12470TIP3   OH237352   7.685   6.137   4.096
12470TIP3    H137353   7.648   6.219   4.129
12470TIP3    H237354   7.763   6.164   4.048
12471TIP3   OH237355   7.149   0.921   0.234
12471TIP3    H137356   7.055   0.905   0.246
12471TIP3    H237357   7.175   0.860   0.165
12472TIP3   OH237358   0.236   1.513   4.019
12472TIP3    H137359   0.324   1.511   4.057
12472TIP3    H237360   0.229   1.599   3.979
12473TIP3   OH237361   2.104   5.883   0.434
12473TIP3    H137362   2.161   5.812   0.406
12473TIP3    H237363   2.061   5.850   0.513
12474TIP3   OH237364   3.778   6.385   3.852
12474TIP3    H137365   3.691   6.344   3.853
12474TIP3    H237366   3.766   6.465   3.800
12475TIP3   OH237367   1.789   1.506   0.056
12475TIP3    H137368   1.810   1.413   0.061
12475TIP3    H237369   1.789   1.537   0.146
12476TIP3   OH237370   6.116   3.773   1.605
12476TIP3    H137371   6.079   3.785   1.692
12476TIP3    H237372   6.043   3.788   1.545
12477TIP3   OH237373   3.687   3.382   1.445
12477TIP3    H137374   3.621   3.449   1.462
12477TIP3    H237375   3.765   3.413   1.492
12478TIP3   OH237376   4.110   0.853   0.782
12478TIP3    H137377   4.176   0.862   0.713
12478TIP3    H237378   4.137   0.916   0.848
12479TIP3   OH237379   0.056   1.462   0.079
12479TIP3    H137380   0.115   1.511   0.021
12479TIP3    H237381   0.109   1.441   0.155
12480TIP3   OH237382   2.898   1.707   2.938
12480TIP3    H137383   2.820   1.666   2.903
12480TIP3    H237384   2.963   1.637   2.942
12481TIP3   OH237385   7.355   3.598   4.227
12481TIP3    H137386   7.370   3.621   4.319
12481TIP3    H237387   7.409   3.520   4.212
12482TIP3   OH237388   3.345   2.621   4.234
12482TIP3    H137389   3.326   2.712   4.212
12482TIP3    H237390   3.272   2.594   4.289
12483TIP3   OH237391   7.769   7.060   5.839
12483TIP3    H137392   7.707   7.012   5.894
12483TIP3    H237393   7.722   7.140   5.814
12484TIP3   OH237394   0.803   2.435   1.238
12484TIP3    H137395   0.823   2.521   1.274
12484TIP3    H237396   0.792   2.450   1.144
12485TIP3   OH237397   7.255   2.685   0.057
12485TIP3    H137398   7.239   2.743  -0.018
12485TIP3    H237399   7.223   2.734   0.132
12486TIP3   OH237400   6.692   0.126   2.329
12486TIP3    H137401   6.689   0.161   2.418
12486TIP3    H237402   6.778   0.151   2.296
12487TIP3   OH237403   4.795   2.692   3.052
12487TIP3    H137404   4.797   2.711   3.146
12487TIP3    H237405   4.876   2.643   3.035
12488TIP3   OH237406   1.151   2.658   4.412
12488TIP3    H137407   1.224   2.685   4.467
12488TIP3    H237408   1.119   2.740   4.373
12489TIP3   OH237409   7.025   7.438   6.549
12489TIP3    H137410   7.099   7.488   6.514
12489TIP3    H237411   7.006   7.374   6.480
12490TIP3   OH237412   6.713   2.736   2.984
12490TIP3    H137413   6.635   2.780   2.951
12490TIP3    H237414   6.761   2.709   2.906
12491TIP3   OH237415   7.727   3.056   6.372
12491TIP3    H137416   7.664   2.986   6.356
12491TIP3    H237417   7.725   3.109   6.292
12492TIP3   OH237418   0.792   2.673   4.119
12492TIP3    H137419   0.833   2.587   4.127
12492TIP3    H237420   0.809   2.716   4.203
12493TIP3   OH237421   2.428   7.798   1.886
12493TIP3    H137422   2.472   7.714   1.896
12493TIP3    H237423   2.498   7.863   1.884
12494TIP3   OH237424   1.540   5.920   2.622
12494TIP3    H137425   1.606   5.968   2.572
12494TIP3    H237426   1.542   5.831   2.587
12495TIP3   OH237427   3.147   3.638   1.580
12495TIP3    H137428   3.066   3.681   1.608
12495TIP3    H237429   3.123   3.595   1.497
12496TIP3   OH237430   6.514   6.995   3.092
12496TIP3    H137431   6.559   6.929   3.039
12496TIP3    H237432   6.569   7.004   3.170
12497TIP3   OH237433   7.833   2.542   4.268
12497TIP3    H137434   7.837   2.635   4.291
12497TIP3    H237435   7.920   2.522   4.233
12498TIP3   OH237436   7.157   6.834   4.403
12498TIP3    H137437   7.129   6.744   4.389
12498TIP3    H237438   7.209   6.831   4.483
12499TIP3   OH237439   1.603   5.680   2.496
12499TIP3    H137440   1.551   5.617   2.546
12499TIP3    H237441   1.597   5.650   2.405
12500TIP3   OH237442   3.817   4.541   6.137
12500TIP3    H137443   3.779   4.453   6.131
12500TIP3    H237444   3.894   4.530   6.193
12501TIP3   OH237445   5.230   6.737   6.569
12501TIP3    H137446   5.275   6.809   6.613
12501TIP3    H237447   5.268   6.736   6.481
12502TIP3   OH237448   4.906   3.954   3.011
12502TIP3    H137449   4.877   3.999   2.931
12502TIP3    H237450   4.829   3.956   3.068
12503TIP3   OH237451   1.749   7.451   4.223
12503TIP3    H137452   1.711   7.363   4.223
12503TIP3    H237453   1.690   7.503   4.168
12504TIP3   OH237454   1.241   1.846   4.108
12504TIP3    H137455   1.188   1.804   4.040
12504TIP3    H237456   1.181   1.855   4.182
12505TIP3   OH237457   4.997   2.053   0.137
12505TIP3    H137458   5.025   2.005   0.215
12505TIP3    H237459   5.059   2.125   0.129
12506TIP3   OH237460   0.557   1.340   2.217
12506TIP3    H137461   0.557   1.351   2.312
12506TIP3    H237462   0.531   1.425   2.183
12507TIP3   OH237463   6.847   2.656   2.764
12507TIP3    H137464   6.931   2.686   2.729
12507TIP3    H237465   6.798   2.629   2.686
12508TIP3   OH237466   2.328   1.238   4.554
12508TIP3    H137467   2.371   1.307   4.504
12508TIP3    H237468   2.244   1.276   4.579
12509TIP3   OH237469   4.511   4.217   0.626
12509TIP3    H137470   4.443   4.241   0.563
12509TIP3    H237471   4.546   4.301   0.657
12510TIP3   OH237472   6.531   6.541   3.913
12510TIP3    H137473   6.485   6.532   3.830
12510TIP3    H237474   6.611   6.590   3.892
12511TIP3   OH237475   1.367   5.906   3.230
12511TIP3    H137476   1.357   6.001   3.234
12511TIP3    H237477   1.387   5.881   3.320
12512TIP3   OH237478   2.300   5.928   2.624
12512TIP3    H137479   2.244   5.956   2.551
12512TIP3    H237480   2.306   5.833   2.614
12513TIP3   OH237481   6.627   2.486   2.241
12513TIP3    H137482   6.559   2.419   2.235
12513TIP3    H237483   6.707   2.443   2.210
12514TIP3   OH237484   4.770   1.105   1.449
12514TIP3    H137485   4.791   1.066   1.533
12514TIP3    H237486   4.796   1.040   1.384
12515TIP3   OH237487   2.241   3.124   1.908
12515TIP3    H137488   2.289   3.055   1.863
12515TIP3    H237489   2.150   3.093   1.909
12516TIP3   OH237490   6.043   7.225   3.903
12516TIP3    H137491   6.047   7.282   3.979
12516TIP3    H237492   5.971   7.260   3.850
12517TIP3   OH237493   1.181   5.641   6.538
12517TIP3    H137494   1.133   5.682   6.466
12517TIP3    H237495   1.164   5.548   6.529
12518TIP3   OH237496   0.476   4.103   1.382
12518TIP3    H137497   0.569   4.127   1.375
12518TIP3    H237498   0.477   4.008   1.393
12519TIP3   OH237499   5.462   2.820   5.287
12519TIP3    H137500   5.398   2.753   5.262
12519TIP3    H237501   5.496   2.790   5.372
12520TIP3   OH237502   0.028   1.958   5.067
12520TIP3    H137503   0.055   1.997   5.150
12520TIP3    H237504   0.070   1.871   5.067
12521TIP3   OH237505   8.059   3.831   2.776
12521TIP3    H137506   8.060   3.925   2.757
12521TIP3    H237507   7.989   3.821   2.840
12522TIP3   OH237508   5.149   1.193   0.652
12522TIP3    H137509   5.059   1.215   0.676
12522TIP3    H237510   5.141   1.116   0.595
12523TIP3   OH237511   0.857   0.550   3.937
12523TIP3    H137512   0.890   0.542   4.027
12523TIP3    H237513   0.818   0.465   3.918
12524TIP3   OH237514   0.740   4.879   3.316
12524TIP3    H137515   0.718   4.952   3.258
12524TIP3    H237516   0.817   4.839   3.275
12525TIP3   OH237517   0.840   6.120   4.234
12525TIP3    H137518   0.880   6.136   4.148
12525TIP3    H237519   0.747   6.140   4.221
12526TIP3   OH237520   1.241   4.281   0.361
12526TIP3    H137521   1.299   4.353   0.335
12526TIP3    H237522   1.300   4.207   0.374
12527TIP3   OH237523   6.357   0.749   3.805
12527TIP3    H137524   6.364   0.727   3.712
12527TIP3    H237525   6.264   0.742   3.824
12528TIP3   OH237526   7.317   0.067   0.349
12528TIP3    H137527   7.252   0.001   0.372
12528TIP3    H237528   7.323   0.124   0.427
12529TIP3   OH237529   4.152   6.255   4.137
12529TIP3    H137530   4.080   6.307   4.173
12529TIP3    H237531   4.213   6.245   4.210
12530TIP3   OH237532   1.732   5.062   5.189
12530TIP3    H137533   1.643   5.081   5.158
12530TIP3    H237534   1.774   5.147   5.195
12531TIP3   OH237535   1.255   0.549   5.244
12531TIP3    H137536   1.267   0.491   5.168
12531TIP3    H237537   1.343   0.583   5.261
12532TIP3   OH237538   0.186   2.390   4.030
12532TIP3    H137539   0.127   2.352   4.095
12532TIP3    H237540   0.196   2.321   3.964
12533TIP3   OH237541   2.076   4.929   3.812
12533TIP3    H137542   2.153   4.876   3.834
12533TIP3    H237543   2.004   4.867   3.808
12534TIP3   OH237544   0.445   5.570   3.227
12534TIP3    H137545   0.385   5.624   3.279
12534TIP3    H237546   0.489   5.633   3.170
12535TIP3   OH237547   4.530   2.218   4.837
12535TIP3    H137548   4.444   2.213   4.797
12535TIP3    H237549   4.558   2.127   4.845
12536TIP3   OH237550   4.375   7.121   6.074
12536TIP3    H137551   4.285   7.099   6.052
12536TIP3    H237552   4.369   7.208   6.115
12537TIP3   OH237553   4.627   2.943   5.166
12537TIP3    H137554   4.659   2.956   5.256
12537TIP3    H237555   4.643   2.850   5.148
12538TIP3   OH237556   2.039   0.720   3.023
12538TIP3    H137557   2.121   0.754   3.060
12538TIP3    H237558   2.063   0.690   2.935
12539TIP3   OH237559   3.330   5.698   2.963
12539TIP3    H137560   3.306   5.771   2.907
12539TIP3    H237561   3.247   5.662   2.994
12540TIP3   OH237562   4.055   1.963   4.448
12540TIP3    H137563   3.986   2.023   4.420
12540TIP3    H237564   4.128   1.981   4.389
12541TIP3   OH237565   1.916   4.707   2.186
12541TIP3    H137566   1.974   4.672   2.254
12541TIP3    H237567   1.829   4.704   2.226
12542TIP3   OH237568   3.183   1.967   4.963
12542TIP3    H137569   3.251   2.035   4.959
12542TIP3    H237570   3.222   1.896   5.014
12543TIP3   OH237571   5.564   0.727   5.673
12543TIP3    H137572   5.534   0.756   5.587
12543TIP3    H237573   5.564   0.631   5.667
12544TIP3   OH237574   0.277   0.459   4.758
12544TIP3    H137575   0.361   0.418   4.778
12544TIP3    H237576   0.288   0.494   4.669
12545TIP3   OH237577   7.985   5.394   1.486
12545TIP3    H137578   8.069   5.355   1.512
12545TIP3    H237579   8.002   5.488   1.482
12546TIP3   OH237580   0.160   2.560   5.759
12546TIP3    H137581   0.127   2.504   5.828
12546TIP3    H237582   0.245   2.523   5.736
12547TIP3   OH237583   2.408   7.373   3.618
12547TIP3    H137584   2.335   7.314   3.598
12547TIP3    H237585   2.404   7.386   3.713
12548TIP3   OH237586   4.497   1.106   2.377
12548TIP3    H137587   4.574   1.057   2.348
12548TIP3    H237588   4.431   1.091   2.309
12549TIP3   OH237589   0.093   4.076   3.990
12549TIP3    H137590   0.086   3.982   4.005
12549TIP3    H237591   0.023   4.115   4.042
12550TIP3   OH237592   7.551   7.165   6.229
12550TIP3    H137593   7.486   7.215   6.180
12550TIP3    H237594   7.633   7.178   6.181
12551TIP3   OH237595   7.789   7.208   0.906
12551TIP3    H137596   7.828   7.144   0.966
12551TIP3    H237597   7.752   7.155   0.836
12552TIP3   OH237598   8.071   1.732   3.456
12552TIP3    H137599   8.155   1.692   3.434
12552TIP3    H237600   8.010   1.699   3.389
12553TIP3   OH237601   5.294   4.695   3.467
12553TIP3    H137602   5.346   4.773   3.481
12553TIP3    H237603   5.262   4.702   3.377
12554TIP3   OH237604   6.887   2.423   2.890
12554TIP3    H137605   6.978   2.436   2.914
12554TIP3    H237606   6.861   2.507   2.851
12555TIP3   OH237607   2.056   4.818   0.204
12555TIP3    H137608   2.111   4.858   0.138
12555TIP3    H237609   2.091   4.849   0.287
12556TIP3   OH237610   5.341   5.128   0.427
12556TIP3    H137611   5.387   5.091   0.352
12556TIP3    H237612   5.368   5.073   0.501
12557TIP3   OH237613   1.900   0.629   0.199
12557TIP3    H137614   1.895   0.558   0.264
12557TIP3    H237615   1.834   0.692   0.228
12558TIP3   OH237616   1.236   4.526   3.860
12558TIP3    H137617   1.204   4.556   3.774
12558TIP3    H237618   1.272   4.440   3.843
12559TIP3   OH237619   4.625   3.514   1.008
12559TIP3    H137620   4.643   3.598   0.966
12559TIP3    H237621   4.678   3.516   1.088
12560TIP3   OH237622   6.919   5.162   4.866
12560TIP3    H137623   7.002   5.136   4.908
12560TIP3    H237624   6.939   5.165   4.773
12561TIP3   OH237625   0.535   1.277   1.790
12561TIP3    H137626   0.485   1.333   1.849
12561TIP3    H237627   0.614   1.255   1.838
12562TIP3   OH237628   5.907   2.597   3.525
12562TIP3    H137629   5.947   2.607   3.438
12562TIP3    H237630   5.816   2.624   3.512
12563TIP3   OH237631   0.408   4.655   1.092
12563TIP3    H137632   0.417   4.714   1.167
12563TIP3    H237633   0.396   4.568   1.131
12564TIP3   OH237634   1.543   2.081   5.638
12564TIP3    H137635   1.504   1.994   5.638
12564TIP3    H237636   1.533   2.112   5.548
12565TIP3   OH237637   5.817   1.070   4.719
12565TIP3    H137638   5.748   1.004   4.720
12565TIP3    H237639   5.880   1.039   4.654
12566TIP3   OH237640   4.517   5.443   4.581
12566TIP3    H137641   4.605   5.470   4.607
12566TIP3    H237642   4.493   5.374   4.643
12567TIP3   OH237643   0.721   6.414   4.250
12567TIP3    H137644   0.635   6.379   4.270
12567TIP3    H237645   0.733   6.485   4.312
12568TIP3   OH237646   3.877   4.674   5.912
12568TIP3    H137647   3.798   4.651   5.864
12568TIP3    H237648   3.855   4.657   6.004
12569TIP3   OH237649   1.949   4.184   4.900
12569TIP3    H137650   1.950   4.102   4.949
12569TIP3    H237651   2.004   4.244   4.951
12570TIP3   OH237652   6.307   7.195   1.236
12570TIP3    H137653   6.341   7.280   1.262
12570TIP3    H237654   6.269   7.158   1.316
12571TIP3   OH237655   6.008   2.613   3.840
12571TIP3    H137656   5.919   2.647   3.829
12571TIP3    H237657   6.060   2.664   3.779
12572TIP3   OH237658   4.113   7.716   6.032
12572TIP3    H137659   4.178   7.785   6.019
12572TIP3    H237660   4.165   7.636   6.041
12573TIP3   OH237661   3.097   5.518   1.730
12573TIP3    H137662   3.173   5.465   1.755
12573TIP3    H237663   3.027   5.491   1.790
12574TIP3   OH237664   3.749   5.567   5.238
12574TIP3    H137665   3.680   5.634   5.239
12574TIP3    H237666   3.726   5.509   5.311
12575TIP3   OH237667   4.262   2.326   3.548
12575TIP3    H137668   4.169   2.333   3.527
12575TIP3    H237669   4.285   2.411   3.586
12576TIP3   OH237670   0.756   1.658   1.150
12576TIP3    H137671   0.819   1.597   1.111
12576TIP3    H237672   0.671   1.626   1.121
12577TIP3   OH237673   4.733   2.025   1.116
12577TIP3    H137674   4.672   1.953   1.135
12577TIP3    H237675   4.810   1.982   1.079
12578TIP3   OH237676   0.245   2.224   0.242
12578TIP3    H137677   0.330   2.189   0.218
12578TIP3    H237678   0.194   2.221   0.161
12579TIP3   OH237679   4.689   3.650   4.546
12579TIP3    H137680   4.651   3.643   4.634
12579TIP3    H237681   4.619   3.621   4.488
12580TIP3   OH237682   2.359   1.265   6.088
12580TIP3    H137683   2.333   1.343   6.137
12580TIP3    H237684   2.280   1.238   6.042
12581TIP3   OH237685   2.533   3.928   3.901
12581TIP3    H137686   2.589   3.867   3.949
12581TIP3    H237687   2.446   3.886   3.904
12582TIP3   OH237688   5.677   3.254   6.503
12582TIP3    H137689   5.657   3.161   6.501
12582TIP3    H237690   5.732   3.269   6.426
12583TIP3   OH237691   6.620   2.330   0.355
12583TIP3    H137692   6.601   2.239   0.334
12583TIP3    H237693   6.613   2.376   0.271
12584TIP3   OH237694   3.061   6.948   2.459
12584TIP3    H137695   3.064   6.866   2.507
12584TIP3    H237696   3.128   7.003   2.501
12585TIP3   OH237697   5.209   6.188   0.067
12585TIP3    H137698   5.202   6.250  -0.006
12585TIP3    H237699   5.153   6.114   0.041
12586TIP3   OH237700   6.023   3.889   0.729
12586TIP3    H137701   6.113   3.879   0.698
12586TIP3    H237702   5.975   3.819   0.685
12587TIP3   OH237703   0.602   5.544   2.635
12587TIP3    H137704   0.600   5.569   2.543
12587TIP3    H237705   0.537   5.601   2.676
12588TIP3   OH237706   7.239   1.204   6.753
12588TIP3    H137707   7.189   1.124   6.734
12588TIP3    H237708   7.174   1.264   6.790
12589TIP3   OH237709   6.107   0.484   5.882
12589TIP3    H137710   6.203   0.487   5.892
12589TIP3    H237711   6.077   0.435   5.959
12590TIP3   OH237712   5.202   0.571   1.988
12590TIP3    H137713   5.141   0.504   1.958
12590TIP3    H237714   5.180   0.584   2.080
12591TIP3   OH237715   4.885   5.079   2.334
12591TIP3    H137716   4.875   5.114   2.423
12591TIP3    H237717   4.978   5.091   2.314
12592TIP3   OH237718   0.124   5.322   5.038
12592TIP3    H137719   0.157   5.356   4.955
12592TIP3    H237720   0.127   5.226   5.028
12593TIP3   OH237721   4.755   1.898   2.951
12593TIP3    H137722   4.774   1.844   2.874
12593TIP3    H237723   4.789   1.847   3.025
12594TIP3   OH237724   1.087   1.793   0.826
12594TIP3    H137725   1.080   1.701   0.851
12594TIP3    H237726   1.177   1.817   0.847
12595TIP3   OH237727   4.960   3.609   1.048
12595TIP3    H137728   4.940   3.668   1.120
12595TIP3    H237729   5.031   3.652   1.001
12596TIP3   OH237730   5.703   5.009   2.028
12596TIP3    H137731   5.757   5.010   2.107
12596TIP3    H237732   5.645   4.934   2.040
12597TIP3   OH237733   2.997   4.460   1.031
12597TIP3    H137734   2.999   4.409   0.949
12597TIP3    H237735   3.084   4.448   1.069
12598TIP3   OH237736   3.264   1.982   0.088
12598TIP3    H137737   3.316   1.939   0.156
12598TIP3    H237738   3.180   2.000   0.131
12599TIP3   OH237739   2.878   1.333   4.355
12599TIP3    H137740   2.819   1.286   4.413
12599TIP3    H237741   2.966   1.304   4.381
12600TIP3   OH237742   6.675   7.287   3.783
12600TIP3    H137743   6.763   7.254   3.802
12600TIP3    H237744   6.627   7.275   3.865
12601TIP3   OH237745   2.959   6.607   2.545
12601TIP3    H137746   2.884   6.646   2.502
12601TIP3    H237747   2.975   6.662   2.622
12602TIP3   OH237748   2.069   3.419   5.226
12602TIP3    H137749   2.021   3.424   5.143
12602TIP3    H237750   2.078   3.511   5.253
12603TIP3   OH237751   1.074   3.000   2.647
12603TIP3    H137752   1.081   2.989   2.742
12603TIP3    H237753   0.984   2.977   2.627
12604TIP3   OH237754   7.185   0.096   2.417
12604TIP3    H137755   7.110   0.154   2.428
12604TIP3    H237756   7.261   0.154   2.415
12605TIP3   OH237757   4.060   4.753   2.732
12605TIP3    H137758   4.133   4.733   2.674
12605TIP3    H237759   4.049   4.848   2.725
12606TIP3   OH237760   6.196   3.473   1.063
12606TIP3    H137761   6.212   3.380   1.080
12606TIP3    H237762   6.248   3.518   1.130
12607TIP3   OH237763   7.098   7.209   1.228
12607TIP3    H137764   7.030   7.177   1.286
12607TIP3    H237765   7.087   7.158   1.147
12608TIP3   OH237766   6.565   3.730   2.633
12608TIP3    H137767   6.620   3.676   2.689
12608TIP3    H237768   6.550   3.677   2.555
12609TIP3   OH237769   5.788   1.251   2.331
12609TIP3    H137770   5.702   1.208   2.328
12609TIP3    H237771   5.783   1.320   2.265
12610TIP3   OH237772   5.089   3.323   4.761
12610TIP3    H137773   5.109   3.333   4.854
12610TIP3    H237774   5.173   3.310   4.719
12611TIP3   OH237775   4.043   4.053   4.776
12611TIP3    H137776   3.951   4.055   4.802
12611TIP3    H237777   4.053   4.126   4.715
12612TIP3   OH237778   5.102   2.700   4.688
12612TIP3    H137779   5.188   2.703   4.646
12612TIP3    H237780   5.040   2.726   4.620
12613TIP3   OH237781   5.619   7.502   4.356
12613TIP3    H137782   5.623   7.557   4.277
12613TIP3    H237783   5.710   7.494   4.385
12614TIP3   OH237784   6.615   2.281   0.615
12614TIP3    H137785   6.647   2.191   0.620
12614TIP3    H237786   6.615   2.301   0.521
12615TIP3   OH237787   5.675   7.206   4.737
12615TIP3    H137788   5.634   7.123   4.761
12615TIP3    H237789   5.617   7.242   4.670
12616TIP3   OH237790   7.240   5.501   6.383
12616TIP3    H137791   7.193   5.495   6.300
12616TIP3    H237792   7.173   5.486   6.450
12617TIP3   OH237793   2.266   3.276   4.513
12617TIP3    H137794   2.267   3.185   4.483
12617TIP3    H237795   2.345   3.285   4.566
12618TIP3   OH237796   5.926   3.502   2.050
12618TIP3    H137797   5.928   3.422   1.997
12618TIP3    H237798   5.889   3.569   1.993
12619TIP3   OH237799   5.048   2.059   2.985
12619TIP3    H137800   5.088   1.982   2.945
12619TIP3    H237801   5.122   2.112   3.016
12620TIP3   OH237802   6.103   4.811   3.083
12620TIP3    H137803   6.114   4.893   3.130
12620TIP3    H237804   6.192   4.787   3.056
12621TIP3   OH237805   7.635   1.953   3.202
12621TIP3    H137806   7.638   1.911   3.117
12621TIP3    H237807   7.542   1.976   3.214
12622TIP3   OH237808   0.543   3.672   6.091
12622TIP3    H137809   0.573   3.624   6.168
12622TIP3    H237810   0.454   3.640   6.077
12623TIP3   OH237811   0.273   4.530   6.125
12623TIP3    H137812   0.217   4.606   6.139
12623TIP3    H237813   0.305   4.507   6.213
12624TIP3   OH237814   3.756   5.474   2.791
12624TIP3    H137815   3.834   5.528   2.802
12624TIP3    H237816   3.693   5.530   2.747
12625TIP3   OH237817   2.095   4.580   2.820
12625TIP3    H137818   2.121   4.665   2.784
12625TIP3    H237819   2.144   4.572   2.902
12626TIP3   OH237820   4.464   2.177   0.287
12626TIP3    H137821   4.484   2.121   0.212
12626TIP3    H237822   4.548   2.187   0.332
12627TIP3   OH237823   1.411   1.003   3.645
12627TIP3    H137824   1.360   0.954   3.711
12627TIP3    H237825   1.398   1.095   3.669
12628TIP3   OH237826   8.162   3.060   2.268
12628TIP3    H137827   8.066   3.063   2.266
12628TIP3    H237828   8.187   3.021   2.184
12629TIP3   OH237829   5.993   5.118   4.221
12629TIP3    H137830   6.062   5.120   4.288
12629TIP3    H237831   5.938   5.044   4.245
12630TIP3   OH237832   4.083   5.475   6.660
12630TIP3    H137833   4.073   5.564   6.694
12630TIP3    H237834   4.007   5.428   6.693
12631TIP3   OH237835   1.914   3.869   0.681
12631TIP3    H137836   1.928   3.879   0.587
12631TIP3    H237837   1.998   3.894   0.720
12632TIP3   OH237838   3.642   3.763   6.029
12632TIP3    H137839   3.703   3.739   6.099
12632TIP3    H237840   3.608   3.679   5.997
12633TIP3   OH237841   4.155   2.979   6.041
12633TIP3    H137842   4.166   3.074   6.041
12633TIP3    H237843   4.071   2.964   6.084
12634TIP3   OH237844   1.721   2.970   6.483
12634TIP3    H137845   1.794   2.966   6.544
12634TIP3    H237846   1.672   2.889   6.500
12635TIP3   OH237847   4.276   5.986   3.356
12635TIP3    H137848   4.279   5.895   3.387
12635TIP3    H237849   4.192   6.020   3.388
12636TIP3   OH237850   8.001   5.993   2.196
12636TIP3    H137851   8.055   5.916   2.211
12636TIP3    H237852   8.060   6.056   2.155
12637TIP3   OH237853   7.355   2.109   4.929
12637TIP3    H137854   7.381   2.143   4.843
12637TIP3    H237855   7.424   2.136   4.988
12638TIP3   OH237856   6.511   5.743   2.554
12638TIP3    H137857   6.502   5.655   2.591
12638TIP3    H237858   6.448   5.746   2.482
12639TIP3   OH237859   5.489   5.247   2.437
12639TIP3    H137860   5.535   5.311   2.382
12639TIP3    H237861   5.397   5.274   2.433
12640TIP3   OH237862   1.219   6.486   5.911
12640TIP3    H137863   1.215   6.456   6.002
12640TIP3    H237864   1.190   6.410   5.859
12641TIP3   OH237865   5.009   7.603   2.486
12641TIP3    H137866   5.032   7.542   2.416
12641TIP3    H237867   4.956   7.551   2.547
12642TIP3   OH237868   0.524   6.091   4.133
12642TIP3    H137869   0.431   6.084   4.155
12642TIP3    H237870   0.553   6.000   4.125
12643TIP3   OH237871   2.554   5.207   0.097
12643TIP3    H137872   2.640   5.165   0.098
12643TIP3    H237873   2.573   5.300   0.091
12644TIP3   OH237874   7.932   0.202   4.295
12644TIP3    H137875   7.882   0.149   4.233
12644TIP3    H237876   8.006   0.234   4.244
12645TIP3   OH237877   7.414   1.994   6.057
12645TIP3    H137878   7.417   2.068   5.997
12645TIP3    H237879   7.403   1.918   6.000
12646TIP3   OH237880   2.503   3.654   1.407
12646TIP3    H137881   2.534   3.589   1.469
12646TIP3    H237882   2.501   3.736   1.457
12647TIP3   OH237883   8.165   5.500   5.166
12647TIP3    H137884   8.121   5.585   5.163
12647TIP3    H237885   8.256   5.519   5.143
12648TIP3   OH237886   1.329   0.312   2.414
12648TIP3    H137887   1.255   0.346   2.365
12648TIP3    H237888   1.292   0.285   2.498
12649TIP3   OH237889   4.095   7.441   3.672
12649TIP3    H137890   4.030   7.511   3.673
12649TIP3    H237891   4.132   7.442   3.584
12650TIP3   OH237892   3.178   0.632   0.970
12650TIP3    H137893   3.268   0.628   0.939
12650TIP3    H237894   3.179   0.700   1.038
12651TIP3   OH237895   3.577   7.152   4.090
12651TIP3    H137896   3.584   7.057   4.086
12651TIP3    H237897   3.537   7.169   4.175
12652TIP3   OH237898   2.489   1.227   3.630
12652TIP3    H137899   2.579   1.197   3.621
12652TIP3    H237900   2.452   1.218   3.542
12653TIP3   OH237901   8.128   7.141   2.131
12653TIP3    H137902   8.038   7.113   2.113
12653TIP3    H237903   8.120   7.234   2.155
12654TIP3   OH237904   4.864   5.223   1.814
12654TIP3    H137905   4.844   5.262   1.729
12654TIP3    H237906   4.898   5.296   1.866
12655TIP3   OH237907   7.411   5.415   5.516
12655TIP3    H137908   7.426   5.508   5.496
12655TIP3    H237909   7.330   5.394   5.470
12656TIP3   OH237910   7.106   4.949   2.543
12656TIP3    H137911   7.119   4.916   2.454
12656TIP3    H237912   7.012   4.945   2.557
12657TIP3   OH237913   3.379   4.259   6.786
12657TIP3    H137914   3.302   4.289   6.834
12657TIP3    H237915   3.375   4.164   6.792
12658TIP3   OH237916   7.276   4.611   2.273
12658TIP3    H137917   7.355   4.567   2.244
12658TIP3    H237918   7.281   4.610   2.369
12659TIP3   OH237919   1.946   3.530   0.159
12659TIP3    H137920   2.007   3.526   0.086
12659TIP3    H237921   2.000   3.509   0.236
12660TIP3   OH237922   1.719   0.039   0.847
12660TIP3    H137923   1.680  -0.041   0.880
12660TIP3    H237924   1.655   0.074   0.785
12661TIP3   OH237925   1.037   3.190   0.338
12661TIP3    H137926   1.072   3.242   0.266
12661TIP3    H237927   0.970   3.246   0.377
12662TIP3   OH237928   0.151   6.381   1.721
12662TIP3    H137929   0.101   6.430   1.785
12662TIP3    H237930   0.100   6.388   1.640
12663TIP3   OH237931   2.156   5.081   5.634
12663TIP3    H137932   2.083   5.025   5.659
12663TIP3    H237933   2.135   5.110   5.545
12664TIP3   OH237934   6.930   1.329   2.896
12664TIP3    H137935   7.003   1.347   2.837
12664TIP3    H237936   6.947   1.241   2.929
12665TIP3   OH237937   1.145   4.501   5.817
12665TIP3    H137938   1.191   4.585   5.811
12665TIP3    H237939   1.095   4.495   5.735
12666TIP3   OH237940   1.049   7.367   6.319
12666TIP3    H137941   0.992   7.311   6.371
12666TIP3    H237942   1.045   7.452   6.363
12667TIP3   OH237943   4.868   3.173   2.906
12667TIP3    H137944   4.882   3.207   2.817
12667TIP3    H237945   4.795   3.226   2.940
12668TIP3   OH237946   4.833   6.595   5.431
12668TIP3    H137947   4.874   6.595   5.518
12668TIP3    H237948   4.801   6.505   5.420
12669TIP3   OH237949   5.127   3.891   2.541
12669TIP3    H137950   5.128   3.873   2.447
12669TIP3    H237951   5.217   3.916   2.562
12670TIP3   OH237952   0.763   1.867   1.760
12670TIP3    H137953   0.813   1.793   1.795
12670TIP3    H237954   0.674   1.835   1.752
12671TIP3   OH237955   3.344   3.543   0.462
12671TIP3    H137956   3.352   3.621   0.518
12671TIP3    H237957   3.276   3.491   0.504
12672TIP3   OH237958   0.134   0.403   1.951
12672TIP3    H137959   0.052   0.355   1.961
12672TIP3    H237960   0.110   0.482   1.903
12673TIP3   OH237961   3.595   0.450   5.049
12673TIP3    H137962   3.608   0.427   5.141
12673TIP3    H237963   3.517   0.506   5.049
12674TIP3   OH237964   3.884   5.615   5.810
12674TIP3    H137965   3.840   5.586   5.889
12674TIP3    H237966   3.902   5.708   5.825
12675TIP3   OH237967   1.947   0.468   5.607
12675TIP3    H137968   1.989   0.464   5.521
12675TIP3    H237969   1.966   0.556   5.640
12676TIP3   OH237970   7.408   5.682   6.522
12676TIP3    H137971   7.437   5.766   6.486
12676TIP3    H237972   7.356   5.642   6.452
12677TIP3   OH237973   5.673   6.453   4.877
12677TIP3    H137974   5.625   6.527   4.841
12677TIP3    H237975   5.633   6.376   4.835
12678TIP3   OH237976   4.863   3.849   5.863
12678TIP3    H137977   4.827   3.834   5.951
12678TIP3    H237978   4.953   3.875   5.878
12679TIP3   OH237979   2.474   0.567   3.736
12679TIP3    H137980   2.412   0.596   3.668
12679TIP3    H237981   2.552   0.539   3.686
12680TIP3   OH237982   2.239   7.397   6.235
12680TIP3    H137983   2.276   7.482   6.209
12680TIP3    H237984   2.185   7.417   6.311
12681TIP3   OH237985   4.148   1.310   1.189
12681TIP3    H137986   4.137   1.391   1.239
12681TIP3    H237987   4.150   1.339   1.098
12682TIP3   OH237988   5.587   4.215   5.002
12682TIP3    H137989   5.527   4.283   4.973
12682TIP3    H237990   5.603   4.161   4.925
12683TIP3   OH237991   1.048   0.655   2.840
12683TIP3    H137992   1.012   0.734   2.879
12683TIP3    H237993   1.116   0.627   2.901
12684TIP3   OH237994   2.431   4.432   6.293
12684TIP3    H137995   2.373   4.484   6.237
12684TIP3    H237996   2.417   4.342   6.264
12685TIP3   OH237997   4.856   4.604   6.541
12685TIP3    H137998   4.928   4.543   6.559
12685TIP3    H237999   4.899   4.686   6.518
12686TIP3   OH238000   3.221   3.440   5.532
12686TIP3    H138001   3.198   3.371   5.470
12686TIP3    H238002   3.159   3.510   5.512
12687TIP3   OH238003   6.693   3.510   0.562
12687TIP3    H138004   6.759   3.528   0.628
12687TIP3    H238005   6.734   3.447   0.502
12688TIP3   OH238006   2.544   4.948   4.417
12688TIP3    H138007   2.458   4.909   4.403
12688TIP3    H238008   2.534   5.040   4.391
12689TIP3   OH238009   5.743   5.204   5.244
12689TIP3    H138010   5.722   5.145   5.171
12689TIP3    H238011   5.791   5.276   5.203
12690TIP3   OH238012   4.487   6.640   6.397
12690TIP3    H138013   4.448   6.574   6.453
12690TIP3    H238014   4.483   6.603   6.309
12691TIP3   OH238015   1.869   6.547   2.808
12691TIP3    H138016   1.846   6.477   2.868
12691TIP3    H238017   1.800   6.546   2.741
12692TIP3   OH238018   0.270   2.003   5.503
12692TIP3    H138019   0.192   2.033   5.550
12692TIP3    H238020   0.317   1.949   5.567
12693TIP3   OH238021   5.056   6.331   3.704
12693TIP3    H138022   5.024   6.375   3.625
12693TIP3    H238023   5.134   6.380   3.729
12694TIP3   OH238024   0.733   4.786   4.931
12694TIP3    H138025   0.647   4.802   4.890
12694TIP3    H238026   0.793   4.841   4.881
12695TIP3   OH238027   2.174   1.003   4.190
12695TIP3    H138028   2.235   0.935   4.161
12695TIP3    H238029   2.183   1.004   4.286
12696TIP3   OH238030   0.453   2.454   0.134
12696TIP3    H138031   0.514   2.518   0.098
12696TIP3    H238032   0.444   2.477   0.226
12697TIP3   OH238033   6.844   7.813   0.136
12697TIP3    H138034   6.753   7.841   0.139
12697TIP3    H238035   6.868   7.817   0.044
12698TIP3   OH238036   6.223   5.703   2.408
12698TIP3    H138037   6.160   5.772   2.426
12698TIP3    H238038   6.220   5.692   2.313
12699TIP3   OH238039   2.405   0.248   0.436
12699TIP3    H138040   2.425   0.342   0.442
12699TIP3    H238041   2.489   0.205   0.452
12700TIP3   OH238042   6.938   4.401   0.468
12700TIP3    H138043   6.892   4.357   0.396
12700TIP3    H238044   7.019   4.351   0.480
12701TIP3   OH238045   7.515   1.594   0.379
12701TIP3    H138046   7.548   1.676   0.416
12701TIP3    H238047   7.508   1.612   0.285
12702TIP3   OH238048   7.901   4.489   4.142
12702TIP3    H138049   7.863   4.551   4.205
12702TIP3    H238050   7.926   4.413   4.195
12703TIP3   OH238051   8.005   3.909   3.827
12703TIP3    H138052   7.923   3.860   3.818
12703TIP3    H238053   7.982   3.984   3.882
12704TIP3   OH238054   4.246   6.547   3.083
12704TIP3    H138055   4.239   6.574   2.991
12704TIP3    H238056   4.181   6.477   3.092
12705TIP3   OH238057   3.100   1.282   2.993
12705TIP3    H138058   3.084   1.192   3.020
12705TIP3    H238059   3.152   1.275   2.913
12706TIP3   OH238060   3.376   3.473   4.392
12706TIP3    H138061   3.456   3.491   4.441
12706TIP3    H238062   3.352   3.384   4.418
12707TIP3   OH238063   4.320   2.844   4.044
12707TIP3    H138064   4.394   2.861   3.986
12707TIP3    H238065   4.359   2.808   4.124
12708TIP3   OH238066   4.734   0.054   2.978
12708TIP3    H138067   4.762   0.140   3.012
12708TIP3    H238068   4.770  -0.009   3.040
12709TIP3   OH238069   5.346   5.097   3.996
12709TIP3    H138070   5.317   5.029   3.935
12709TIP3    H238071   5.275   5.161   3.997
12710TIP3   OH238072   6.314   7.117   2.143
12710TIP3    H138073   6.373   7.101   2.217
12710TIP3    H238074   6.261   7.192   2.170
12711TIP3   OH238075   2.103   3.314   1.753
12711TIP3    H138076   2.140   3.402   1.754
12711TIP3    H238077   2.177   3.256   1.770
12712TIP3   OH238078   5.718   3.964   3.295
12712TIP3    H138079   5.727   3.888   3.351
12712TIP3    H238080   5.753   4.037   3.347
12713TIP3   OH238081   1.546   5.960   0.552
12713TIP3    H138082   1.544   5.921   0.639
12713TIP3    H238083   1.455   5.983   0.533
12714TIP3   OH238084   5.464   7.531   5.692
12714TIP3    H138085   5.427   7.607   5.738
12714TIP3    H238086   5.519   7.569   5.623
12715TIP3   OH238087   4.190   2.212   5.903
12715TIP3    H138088   4.270   2.258   5.876
12715TIP3    H238089   4.172   2.151   5.832
12716TIP3   OH238090   2.432   0.737   6.280
12716TIP3    H138091   2.350   0.775   6.314
12716TIP3    H238092   2.404   0.662   6.229
12717TIP3   OH238093   8.034   1.629   1.695
12717TIP3    H138094   8.126   1.603   1.697
12717TIP3    H238095   8.035   1.715   1.653
12718TIP3   OH238096   5.462   3.756   3.141
12718TIP3    H138097   5.513   3.691   3.094
12718TIP3    H238098   5.459   3.832   3.082
12719TIP3   OH238099   8.043   2.888   5.609
12719TIP3    H138100   7.997   2.958   5.656
12719TIP3    H238101   7.976   2.822   5.592
12720TIP3   OH238102   4.506   6.366   5.451
12720TIP3    H138103   4.489   6.392   5.361
12720TIP3    H238104   4.558   6.286   5.444
12721TIP3   OH238105   4.034   1.681   2.113
12721TIP3    H138106   3.971   1.609   2.124
12721TIP3    H238107   4.088   1.678   2.192
12722TIP3   OH238108   7.398   2.194   2.294
12722TIP3    H138109   7.384   2.181   2.388
12722TIP3    H238110   7.425   2.107   2.262
12723TIP3   OH238111   4.897   7.004   0.296
12723TIP3    H138112   4.913   7.089   0.255
12723TIP3    H238113   4.803   6.989   0.285
12724TIP3   OH238114   3.609   1.355   5.348
12724TIP3    H138115   3.618   1.259   5.348
12724TIP3    H238116   3.668   1.384   5.279
12725TIP3   OH238117   1.777   0.797   3.405
12725TIP3    H138118   1.752   0.716   3.449
12725TIP3    H238119   1.840   0.838   3.465
12726TIP3   OH238120   6.050   2.786   5.705
12726TIP3    H138121   5.962   2.820   5.724
12726TIP3    H238122   6.108   2.843   5.754
12727TIP3   OH238123   1.642   6.141   6.662
12727TIP3    H138124   1.637   6.132   6.757
12727TIP3    H238125   1.642   6.051   6.629
12728TIP3   OH238126   5.122   6.535   3.968
12728TIP3    H138127   5.207   6.522   3.925
12728TIP3    H238128   5.125   6.478   4.045
12729TIP3   OH238129   6.454   3.471   0.885
12729TIP3    H138130   6.436   3.383   0.918
12729TIP3    H238131   6.428   3.468   0.793
12730TIP3   OH238132   7.978   0.962   3.188
12730TIP3    H138133   7.992   1.044   3.141
12730TIP3    H238134   8.058   0.951   3.241
12731TIP3   OH238135   5.801   3.432   3.756
12731TIP3    H138136   5.718   3.449   3.802
12731TIP3    H238137   5.860   3.502   3.786
12732TIP3   OH238138   8.321   1.830   5.861
12732TIP3    H138139   8.266   1.810   5.936
12732TIP3    H238140   8.264   1.812   5.785
12733TIP3   OH238141   3.924   6.864   3.459
12733TIP3    H138142   3.928   6.769   3.461
12733TIP3    H238143   3.830   6.884   3.462
12734TIP3   OH238144   1.218   3.148   4.618
12734TIP3    H138145   1.298   3.115   4.658
12734TIP3    H238146   1.235   3.145   4.524
12735TIP3   OH238147   2.409   7.827   2.339
12735TIP3    H138148   2.346   7.757   2.327
12735TIP3    H238149   2.379   7.873   2.417
12736TIP3   OH238150   8.309   1.762   4.213
12736TIP3    H138151   8.323   1.845   4.258
12736TIP3    H238152   8.253   1.712   4.273
12737TIP3   OH238153   6.519   2.959   2.870
12737TIP3    H138154   6.460   2.945   2.797
12737TIP3    H238155   6.601   2.989   2.829
12738TIP3   OH238156   1.481   5.694   0.101
12738TIP3    H138157   1.471   5.703   0.006
12738TIP3    H238158   1.547   5.759   0.125
12739TIP3   OH238159   0.651   4.977   3.592
12739TIP3    H138160   0.659   4.924   3.512
12739TIP3    H238161   0.567   5.021   3.583
12740TIP3   OH238162   2.451   5.611   6.745
12740TIP3    H138163   2.379   5.658   6.704
12740TIP3    H238164   2.519   5.607   6.678
12741TIP3   OH238165   2.376   6.623   2.658
12741TIP3    H138166   2.366   6.715   2.682
12741TIP3    H238167   2.470   6.606   2.664
12742TIP3   OH238168   3.749   7.525   4.575
12742TIP3    H138169   3.759   7.607   4.526
12742TIP3    H238170   3.719   7.462   4.509
12743TIP3   OH238171   2.507   3.244   3.554
12743TIP3    H138172   2.472   3.289   3.478
12743TIP3    H238173   2.451   3.272   3.627
12744TIP3   OH238174   1.842   4.695   6.688
12744TIP3    H138175   1.855   4.743   6.606
12744TIP3    H238176   1.842   4.763   6.756
12745TIP3   OH238177   8.064   1.401   5.697
12745TIP3    H138178   8.037   1.441   5.780
12745TIP3    H238179   8.079   1.309   5.719
12746TIP3   OH238180   4.278   3.487   6.142
12746TIP3    H138181   4.225   3.565   6.128
12746TIP3    H238182   4.350   3.516   6.198
12747TIP3   OH238183   3.910   5.077   0.550
12747TIP3    H138184   4.002   5.052   0.542
12747TIP3    H238185   3.910   5.172   0.540
12748TIP3   OH238186   4.315   5.945   4.736
12748TIP3    H138187   4.260   5.873   4.705
12748TIP3    H238188   4.257   6.021   4.732
12749TIP3   OH238189   6.333   3.359   1.482
12749TIP3    H138190   6.293   3.345   1.396
12749TIP3    H238191   6.425   3.338   1.469
12750TIP3   OH238192   5.285   7.780   2.073
12750TIP3    H138193   5.270   7.850   2.010
12750TIP3    H238194   5.285   7.700   2.021
12751TIP3   OH238195   6.781   1.832   5.309
12751TIP3    H138196   6.814   1.806   5.396
12751TIP3    H238197   6.822   1.917   5.293
12752TIP3   OH238198   6.120   3.408   4.696
12752TIP3    H138199   6.129   3.397   4.602
12752TIP3    H238200   6.201   3.451   4.723
12753TIP3   OH238201   1.406   3.950   4.605
12753TIP3    H138202   1.399   4.045   4.594
12753TIP3    H238203   1.329   3.926   4.657
12754TIP3   OH238204   3.828   7.577   1.555
12754TIP3    H138205   3.761   7.577   1.487
12754TIP3    H238206   3.820   7.491   1.597
12755TIP3   OH238207   2.848   4.698   5.262
12755TIP3    H138208   2.793   4.629   5.299
12755TIP3    H238209   2.796   4.778   5.271
12756TIP3   OH238210   6.969   6.363   5.265
12756TIP3    H138211   7.027   6.289   5.283
12756TIP3    H238212   6.888   6.323   5.234
12757TIP3   OH238213   2.335   2.420   5.448
12757TIP3    H138214   2.406   2.358   5.436
12757TIP3    H238215   2.374   2.506   5.432
12758TIP3   OH238216   2.833   5.108   4.407
12758TIP3    H138217   2.864   5.037   4.350
12758TIP3    H238218   2.768   5.154   4.355
12759TIP3   OH238219   8.029   4.479   2.797
12759TIP3    H138220   8.043   4.570   2.771
12759TIP3    H238221   8.111   4.452   2.837
12760TIP3   OH238222   3.678   6.545   4.147
12760TIP3    H138223   3.623   6.584   4.079
12760TIP3    H238224   3.670   6.605   4.221
12761TIP3   OH238225   2.549   0.843   0.601
12761TIP3    H138226   2.565   0.758   0.642
12761TIP3    H238227   2.629   0.863   0.554
12762TIP3   OH238228   4.356   0.454   2.308
12762TIP3    H138229   4.365   0.361   2.287
12762TIP3    H238230   4.264   0.473   2.289
12763TIP3   OH238231   3.668   1.723   5.015
12763TIP3    H138232   3.763   1.735   5.005
12763TIP3    H238233   3.657   1.628   5.023
12764TIP3   OH238234   0.182   2.912   1.830
12764TIP3    H138235   0.213   2.847   1.767
12764TIP3    H238236   0.201   2.996   1.788
12765TIP3   OH238237   1.149   2.224   2.749
12765TIP3    H138238   1.055   2.240   2.745
12765TIP3    H238239   1.189   2.297   2.701
12766TIP3   OH238240   2.836   7.222   2.851
12766TIP3    H138241   2.873   7.309   2.867
12766TIP3    H238242   2.771   7.235   2.782
12767TIP3   OH238243   2.010   6.084   3.794
12767TIP3    H138244   2.078   6.113   3.854
12767TIP3    H238245   1.961   6.018   3.842
12768TIP3   OH238246   0.944   0.771   0.062
12768TIP3    H138247   1.000   0.787  -0.014
12768TIP3    H238248   0.928   0.677   0.061
12769TIP3   OH238249   3.741   0.219   3.931
12769TIP3    H138250   3.836   0.210   3.938
12769TIP3    H238251   3.711   0.217   4.022
12770TIP3   OH238252   4.867   1.847   5.868
12770TIP3    H138253   4.962   1.860   5.877
12770TIP3    H238254   4.847   1.773   5.925
12771TIP3   OH238255   0.221   7.051   4.119
12771TIP3    H138256   0.263   6.987   4.062
12771TIP3    H238257   0.129   7.049   4.093
12772TIP3   OH238258   3.772   7.387   6.622
12772TIP3    H138259   3.790   7.446   6.549
12772TIP3    H238260   3.697   7.426   6.667
12773TIP3   OH238261   0.925   6.115   0.628
12773TIP3    H138262   0.959   6.026   0.641
12773TIP3    H238263   0.853   6.123   0.691
12774TIP3   OH238264   5.687   6.601   1.994
12774TIP3    H138265   5.627   6.536   2.029
12774TIP3    H238266   5.731   6.557   1.921
12775TIP3   OH238267   2.654   7.104   3.727
12775TIP3    H138268   2.619   7.015   3.721
12775TIP3    H238269   2.749   7.093   3.719
12776TIP3   OH238270   7.848   2.428   3.188
12776TIP3    H138271   7.788   2.499   3.211
12776TIP3    H238272   7.792   2.353   3.169
12777TIP3   OH238273   2.419   5.429   2.178
12777TIP3    H138274   2.423   5.487   2.254
12777TIP3    H238275   2.354   5.470   2.121
12778TIP3   OH238276   1.829   7.187   4.397
12778TIP3    H138277   1.779   7.119   4.441
12778TIP3    H238278   1.892   7.217   4.463
12779TIP3   OH238279   4.781   0.801   5.769
12779TIP3    H138280   4.689   0.826   5.764
12779TIP3    H238281   4.826   0.882   5.793
12780TIP3   OH238282   5.759   3.790   3.067
12780TIP3    H138283   5.774   3.851   3.140
12780TIP3    H238284   5.844   3.749   3.053
12781TIP3   OH238285   4.601   5.621   5.254
12781TIP3    H138286   4.569   5.673   5.180
12781TIP3    H238287   4.615   5.685   5.324
12782TIP3   OH238288   0.072   6.738   6.151
12782TIP3    H138289   0.023   6.673   6.100
12782TIP3    H238290   0.087   6.810   6.089
12783TIP3   OH238291   5.107   4.409   1.788
12783TIP3    H138292   5.075   4.384   1.701
12783TIP3    H238293   5.072   4.497   1.802
12784TIP3   OH238294   7.723   3.219   0.100
12784TIP3    H138295   7.651   3.278   0.124
12784TIP3    H238296   7.684   3.160   0.035
12785TIP3   OH238297   6.453   7.500   4.228
12785TIP3    H138298   6.445   7.481   4.135
12785TIP3    H238299   6.385   7.448   4.270
12786TIP3   OH238300   7.678   7.758   4.367
12786TIP3    H138301   7.772   7.756   4.386
12786TIP3    H238302   7.643   7.682   4.414
12787TIP3   OH238303   4.070   6.567   0.278
12787TIP3    H138304   3.980   6.547   0.305
12787TIP3    H238305   4.092   6.496   0.217
12788TIP3   OH238306   7.860   0.357   3.733
12788TIP3    H138307   7.789   0.412   3.767
12788TIP3    H238308   7.817   0.279   3.699
12789TIP3   OH238309   0.937   1.445   1.013
12789TIP3    H138310   1.000   1.454   0.942
12789TIP3    H238311   0.963   1.364   1.058
12790TIP3   OH238312   3.459   1.933   3.784
12790TIP3    H138313   3.432   1.984   3.860
12790TIP3    H238314   3.494   1.997   3.723
12791TIP3   OH238315   2.777   6.101   0.957
12791TIP3    H138316   2.684   6.089   0.936
12791TIP3    H238317   2.780   6.102   1.053
12792TIP3   OH238318   7.910   1.134   6.251
12792TIP3    H138319   7.961   1.145   6.332
12792TIP3    H238320   7.970   1.161   6.182
12793TIP3   OH238321   2.617   0.177   4.127
12793TIP3    H138322   2.591   0.101   4.179
12793TIP3    H238323   2.710   0.189   4.147
12794TIP3   OH238324   3.041   2.455   1.172
12794TIP3    H138325   3.004   2.523   1.227
12794TIP3    H238326   3.010   2.373   1.211
12795TIP3   OH238327   7.305   0.192   5.706
12795TIP3    H138328   7.332   0.191   5.798
12795TIP3    H238329   7.236   0.259   5.702
12796TIP3   OH238330   2.009   5.251   4.364
12796TIP3    H138331   1.959   5.209   4.434
12796TIP3    H238332   1.955   5.241   4.286
12797TIP3   OH238333   6.951   3.154   0.234
12797TIP3    H138334   6.878   3.092   0.243
12797TIP3    H238335   6.996   3.126   0.155
12798TIP3   OH238336   2.698   2.816   0.644
12798TIP3    H138337   2.687   2.767   0.726
12798TIP3    H238338   2.666   2.757   0.576
12799TIP3   OH238339   1.870   2.936   2.825
12799TIP3    H138340   1.779   2.960   2.811
12799TIP3    H238341   1.918   2.986   2.760
12800TIP3   OH238342   4.977   2.444   0.392
12800TIP3    H138343   5.056   2.494   0.413
12800TIP3    H238344   4.904   2.502   0.415
12801TIP3   OH238345   4.859   0.137   1.976
12801TIP3    H138346   4.932   0.196   1.957
12801TIP3    H238347   4.875   0.061   1.921
12802TIP3   OH238348   8.075   7.149   5.702
12802TIP3    H138349   8.087   7.244   5.709
12802TIP3    H238350   7.980   7.137   5.701
12803TIP3   OH238351   1.291   3.985   2.565
12803TIP3    H138352   1.293   3.919   2.496
12803TIP3    H238353   1.379   4.023   2.564
12804TIP3   OH238354   6.446   5.365   2.956
12804TIP3    H138355   6.440   5.270   2.950
12804TIP3    H238356   6.391   5.397   2.884
12805TIP3   OH238357   2.499   1.686   3.618
12805TIP3    H138358   2.543   1.734   3.689
12805TIP3    H238359   2.509   1.743   3.541
12806TIP3   OH238360   4.021   3.147   4.354
12806TIP3    H138361   3.975   3.085   4.410
12806TIP3    H238362   3.951   3.202   4.317
12807TIP3   OH238363   7.433   5.791   4.465
12807TIP3    H138364   7.409   5.744   4.385
12807TIP3    H238365   7.361   5.773   4.526
12808TIP3   OH238366   4.012   2.854   0.172
12808TIP3    H138367   3.935   2.838   0.117
12808TIP3    H238368   3.982   2.915   0.239
12809TIP3   OH238369   2.372   6.111   2.810
12809TIP3    H138370   2.338   6.027   2.779
12809TIP3    H238371   2.324   6.176   2.760
12810TIP3   OH238372   3.953   2.778   6.105
12810TIP3    H138373   3.932   2.700   6.156
12810TIP3    H238374   3.959   2.747   6.015
12811TIP3   OH238375   5.655   2.168   2.092
12811TIP3    H138376   5.737   2.147   2.047
12811TIP3    H238377   5.678   2.171   2.185
12812TIP3   OH238378   5.214   3.996   6.503
12812TIP3    H138379   5.119   3.998   6.492
12812TIP3    H238380   5.230   3.924   6.563
12813TIP3   OH238381   5.973   4.603   3.232
12813TIP3    H138382   6.033   4.601   3.307
12813TIP3    H238383   6.020   4.653   3.166
12814TIP3   OH238384   1.447   4.106   0.375
12814TIP3    H138385   1.454   4.027   0.428
12814TIP3    H238386   1.534   4.116   0.336
12815TIP3   OH238387   2.200   6.516   3.077
12815TIP3    H138388   2.267   6.448   3.079
12815TIP3    H238389   2.175   6.523   2.985
12816TIP3   OH238390   6.903   0.765   5.041
12816TIP3    H138391   6.843   0.833   5.012
12816TIP3    H238392   6.941   0.799   5.122
12817TIP3   OH238393   2.019   2.540   5.485
12817TIP3    H138394   2.114   2.553   5.479
12817TIP3    H238395   1.984   2.629   5.495
12818TIP3   OH238396   0.962   7.120   0.662
12818TIP3    H138397   0.880   7.072   0.649
12818TIP3    H238398   0.939   7.190   0.723
12819TIP3   OH238399   5.963   2.963   5.106
12819TIP3    H138400   5.992   2.896   5.168
12819TIP3    H238401   5.888   3.005   5.149
12820TIP3   OH238402   1.590   4.915   0.905
12820TIP3    H138403   1.678   4.879   0.896
12820TIP3    H238404   1.592   4.966   0.985
12821TIP3   OH238405   4.720   2.828   6.074
12821TIP3    H138406   4.770   2.798   6.150
12821TIP3    H238407   4.640   2.776   6.074
12822TIP3   OH238408   1.631   1.477   5.824
12822TIP3    H138409   1.678   1.454   5.905
12822TIP3    H238410   1.698   1.472   5.756
12823TIP3   OH238411   5.606   6.563   1.597
12823TIP3    H138412   5.672   6.624   1.563
12823TIP3    H238413   5.655   6.503   1.653
12824TIP3   OH238414   7.677   1.665   2.646
12824TIP3    H138415   7.601   1.618   2.612
12824TIP3    H238416   7.659   1.676   2.739
12825TIP3   OH238417   3.661   4.481   6.491
12825TIP3    H138418   3.715   4.408   6.463
12825TIP3    H238419   3.575   4.463   6.453
12826TIP3   OH238420   6.843   2.105   4.836
12826TIP3    H138421   6.781   2.032   4.841
12826TIP3    H238422   6.797   2.172   4.785
12827TIP3   OH238423   5.144   3.964   3.964
12827TIP3    H138424   5.127   4.034   4.027
12827TIP3    H238425   5.189   4.008   3.892
12828TIP3   OH238426   5.630   2.782   6.233
12828TIP3    H138427   5.691   2.835   6.182
12828TIP3    H238428   5.575   2.845   6.279
12829TIP3   OH238429   1.477   0.159   1.334
12829TIP3    H138430   1.437   0.072   1.334
12829TIP3    H238431   1.535   0.159   1.258
12830TIP3   OH238432   0.109   4.493   0.083
12830TIP3    H138433   0.071   4.469   0.168
12830TIP3    H238434   0.079   4.425   0.023
12831TIP3   OH238435   0.771   6.458   0.376
12831TIP3    H138436   0.779   6.368   0.343
12831TIP3    H238437   0.767   6.512   0.298
12832TIP3   OH238438   1.448   3.100   5.396
12832TIP3    H138439   1.372   3.133   5.444
12832TIP3    H238440   1.418   3.018   5.357
12833TIP3   OH238441   6.483   2.533   5.372
12833TIP3    H138442   6.474   2.499   5.461
12833TIP3    H238443   6.397   2.519   5.332
12834TIP3   OH238444   7.116   5.129   5.509
12834TIP3    H138445   7.081   5.046   5.540
12834TIP3    H238446   7.211   5.118   5.514
12835TIP3   OH238447   6.299   4.591   2.318
12835TIP3    H138448   6.388   4.622   2.336
12835TIP3    H238449   6.310   4.509   2.271
12836TIP3   OH238450   0.063   2.142   0.057
12836TIP3    H138451   0.076   2.063   0.110
12836TIP3    H238452  -0.025   2.133   0.021
12837TIP3   OH238453   4.039   0.330   2.886
12837TIP3    H138454   4.086   0.312   2.804
12837TIP3    H238455   3.951   0.297   2.870
12838TIP3   OH238456   0.924   1.405   6.660
12838TIP3    H138457   1.002   1.355   6.635
12838TIP3    H238458   0.918   1.474   6.594
12839TIP3   OH238459   3.389   1.618   2.235
12839TIP3    H138460   3.401   1.674   2.311
12839TIP3    H238461   3.408   1.674   2.160
12840TIP3   OH238462   0.216   3.739   0.224
12840TIP3    H138463   0.131   3.707   0.255
12840TIP3    H238464   0.243   3.675   0.159
12841TIP3   OH238465   6.113   1.497   2.568
12841TIP3    H138466   6.177   1.434   2.601
12841TIP3    H238467   6.029   1.468   2.604
12842TIP3   OH238468   2.891   6.273   2.678
12842TIP3    H138469   2.809   6.224   2.673
12842TIP3    H238470   2.956   6.209   2.709
12843TIP3   OH238471   2.215   1.139   6.599
12843TIP3    H138472   2.208   1.053   6.558
12843TIP3    H238473   2.256   1.194   6.532
12844TIP3   OH238474   2.180   0.437   4.001
12844TIP3    H138475   2.181   0.342   4.001
12844TIP3    H238476   2.270   0.462   4.020
12845TIP3   OH238477   8.076   2.202   4.366
12845TIP3    H138478   8.072   2.108   4.344
12845TIP3    H238479   8.028   2.244   4.295
12846TIP3   OH238480   1.702   0.498   0.098
12846TIP3    H138481   1.786   0.536   0.125
12846TIP3    H238482   1.647   0.573   0.077
12847TIP3   OH238483   0.799   7.492   4.634
12847TIP3    H138484   0.822   7.414   4.684
12847TIP3    H238485   0.834   7.565   4.686
12848TIP3   OH238486   2.731   2.013   4.677
12848TIP3    H138487   2.793   2.005   4.604
12848TIP3    H238488   2.743   2.102   4.709
12849TIP3   OH238489   6.292   7.569   0.385
12849TIP3    H138490   6.281   7.537   0.296
12849TIP3    H238491   6.375   7.617   0.383
12850TIP3   OH238492   4.676   6.363   3.342
12850TIP3    H138493   4.613   6.406   3.283
12850TIP3    H238494   4.696   6.429   3.408
12851TIP3   OH238495   6.491   5.952   0.623
12851TIP3    H138496   6.448   5.923   0.703
12851TIP3    H238497   6.581   5.970   0.649
12852TIP3   OH238498   6.010   4.344   6.427
12852TIP3    H138499   5.965   4.301   6.499
12852TIP3    H238500   6.098   4.360   6.460
12853TIP3   OH238501   7.755   1.624   3.485
12853TIP3    H138502   7.793   1.538   3.470
12853TIP3    H238503   7.678   1.627   3.428
12854TIP3   OH238504   1.006   2.898   0.698
12854TIP3    H138505   0.953   2.974   0.675
12854TIP3    H238506   1.040   2.866   0.614
12855TIP3   OH238507   0.534   2.105   2.484
12855TIP3    H138508   0.539   2.012   2.508
12855TIP3    H238509   0.590   2.149   2.548
12856TIP3   OH238510   6.712   5.679   3.980
12856TIP3    H138511   6.699   5.742   3.910
12856TIP3    H238512   6.644   5.699   4.044
12857TIP3   OH238513   3.434   0.476   4.085
12857TIP3    H138514   3.359   0.463   4.026
12857TIP3    H238515   3.510   0.477   4.027
12858TIP3   OH238516   4.626   5.295   4.062
12858TIP3    H138517   4.582   5.359   4.118
12858TIP3    H238518   4.713   5.332   4.049
12859TIP3   OH238519   4.058   5.402   0.301
12859TIP3    H138520   4.107   5.484   0.305
12859TIP3    H238521   3.996   5.407   0.373
12860TIP3   OH238522   6.416   0.385   3.468
12860TIP3    H138523   6.421   0.475   3.500
12860TIP3    H238524   6.324   0.372   3.444
12861TIP3   OH238525   0.801   0.657   4.964
12861TIP3    H138526   0.747   0.587   4.928
12861TIP3    H238527   0.815   0.631   5.055
12862TIP3   OH238528   7.421   3.525   0.946
12862TIP3    H138529   7.428   3.610   0.990
12862TIP3    H238530   7.502   3.518   0.896
12863TIP3   OH238531   4.064   1.289   4.585
12863TIP3    H138532   4.020   1.369   4.558
12863TIP3    H238533   3.994   1.224   4.590
12864TIP3   OH238534   4.341   4.120   3.058
12864TIP3    H138535   4.359   4.028   3.077
12864TIP3    H238536   4.370   4.168   3.136
12865TIP3   OH238537   7.331   0.428   6.124
12865TIP3    H138538   7.361   0.421   6.034
12865TIP3    H238539   7.265   0.498   6.122
12866TIP3   OH238540   3.469   7.476   3.967
12866TIP3    H138541   3.375   7.465   3.983
12866TIP3    H238542   3.505   7.498   4.053
12867TIP3   OH238543   4.908   3.450   0.812
12867TIP3    H138544   4.911   3.496   0.896
12867TIP3    H238545   4.868   3.513   0.751
12868TIP3   OH238546   5.757   6.036   5.165
12868TIP3    H138547   5.778   5.944   5.182
12868TIP3    H238548   5.727   6.037   5.074
12869TIP3   OH238549   5.201   3.552   5.969
12869TIP3    H138550   5.202   3.457   5.981
12869TIP3    H238551   5.184   3.563   5.875
12870TIP3   OH238552   7.195   3.070   2.986
12870TIP3    H138553   7.136   2.999   3.008
12870TIP3    H238554   7.161   3.105   2.904
12871TIP3   OH238555   5.579   1.607   3.589
12871TIP3    H138556   5.534   1.530   3.624
12871TIP3    H238557   5.552   1.611   3.497
12872TIP3   OH238558   1.111   7.128   2.839
12872TIP3    H138559   1.070   7.105   2.755
12872TIP3    H238560   1.201   7.097   2.831
12873TIP3   OH238561   6.443   6.429   1.367
12873TIP3    H138562   6.504   6.405   1.297
12873TIP3    H238563   6.384   6.354   1.373
12874TIP3   OH238564   4.758   0.992   3.274
12874TIP3    H138565   4.695   0.992   3.202
12874TIP3    H238566   4.774   1.085   3.291
12875TIP3   OH238567   2.769   3.008   2.502
12875TIP3    H138568   2.707   3.040   2.567
12875TIP3    H238569   2.721   2.941   2.454
12876TIP3   OH238570   6.371   3.597   1.242
12876TIP3    H138571   6.423   3.522   1.269
12876TIP3    H238572   6.418   3.673   1.277
12877TIP3   OH238573   5.290   1.950   0.002
12877TIP3    H138574   5.205   1.958  -0.041
12877TIP3    H238575   5.273   1.899   0.081
12878TIP3   OH238576   5.091   2.921   4.891
12878TIP3    H138577   5.185   2.935   4.880
12878TIP3    H238578   5.075   2.836   4.850
12879TIP3   OH238579   4.102   1.729   5.675
12879TIP3    H138580   4.053   1.752   5.597
12879TIP3    H238581   4.050   1.762   5.748
12880TIP3   OH238582   2.684   3.725   6.004
12880TIP3    H138583   2.644   3.645   5.969
12880TIP3    H238584   2.623   3.754   6.072
12881TIP3   OH238585   4.747   4.662   4.261
12881TIP3    H138586   4.791   4.636   4.342
12881TIP3    H238587   4.655   4.670   4.286
12882TIP3   OH238588   4.248   4.714   4.174
12882TIP3    H138589   4.190   4.675   4.109
12882TIP3    H238590   4.271   4.799   4.137
12883TIP3   OH238591   7.990   3.546   3.356
12883TIP3    H138592   8.034   3.508   3.280
12883TIP3    H238593   8.054   3.605   3.395
12884TIP3   OH238594   0.150   1.700   5.139
12884TIP3    H138595   0.244   1.697   5.159
12884TIP3    H238596   0.108   1.690   5.224
12885TIP3   OH238597   1.266   6.359   1.299
12885TIP3    H138598   1.276   6.290   1.234
12885TIP3    H238599   1.354   6.393   1.313
12886TIP3   OH238600   3.682   6.471   5.168
12886TIP3    H138601   3.604   6.521   5.192
12886TIP3    H238602   3.672   6.387   5.213
12887TIP3   OH238603   3.353   1.617   1.723
12887TIP3    H138604   3.343   1.692   1.664
12887TIP3    H238605   3.264   1.581   1.730
12888TIP3   OH238606   5.882   7.217   4.258
12888TIP3    H138607   5.950   7.154   4.234
12888TIP3    H238608   5.903   7.242   4.349
12889TIP3   OH238609   3.056   2.374   4.445
12889TIP3    H138610   3.115   2.301   4.423
12889TIP3    H238611   3.023   2.404   4.361
12890TIP3   OH238612   7.084   6.529   2.332
12890TIP3    H138613   7.041   6.609   2.300
12890TIP3    H238614   7.110   6.551   2.421
12891TIP3   OH238615   2.991   5.185   2.053
12891TIP3    H138616   2.973   5.278   2.067
12891TIP3    H238617   2.990   5.174   1.958
12892TIP3   OH238618   7.934   5.267   1.235
12892TIP3    H138619   7.886   5.335   1.188
12892TIP3    H238620   7.966   5.311   1.314
12893TIP3   OH238621   2.208   7.263   3.931
12893TIP3    H138622   2.293   7.305   3.915
12893TIP3    H238623   2.149   7.303   3.867
12894TIP3   OH238624   2.218   4.318   1.050
12894TIP3    H138625   2.181   4.345   1.134
12894TIP3    H238626   2.220   4.398   0.998
12895TIP3   OH238627   6.938   4.941   4.137
12895TIP3    H138628   6.917   5.017   4.190
12895TIP3    H238629   6.996   4.975   4.068
12896TIP3   OH238630   5.381   1.636   3.335
12896TIP3    H138631   5.346   1.675   3.255
12896TIP3    H238632   5.364   1.543   3.325
12897TIP3   OH238633   1.921   6.261   2.559
12897TIP3    H138634   1.841   6.216   2.532
12897TIP3    H238635   1.954   6.210   2.633
12898TIP3   OH238636   2.492   1.560   0.597
12898TIP3    H138637   2.398   1.565   0.583
12898TIP3    H238638   2.531   1.596   0.517
12899TIP3   OH238639   3.149   0.496   6.587
12899TIP3    H138640   3.176   0.587   6.576
12899TIP3    H238641   3.222   0.454   6.632
12900TIP3   OH238642   7.503   2.100   1.557
12900TIP3    H138643   7.548   2.071   1.478
12900TIP3    H238644   7.434   2.159   1.525
12901TIP3   OH238645   2.950   2.579   2.752
12901TIP3    H138646   2.882   2.628   2.708
12901TIP3    H238647   2.979   2.636   2.823
12902TIP3   OH238648   5.780   3.633   6.010
12902TIP3    H138649   5.822   3.640   6.095
12902TIP3    H238650   5.691   3.667   6.024
12903TIP3   OH238651   0.751   7.088   5.217
12903TIP3    H138652   0.696   7.079   5.295
12903TIP3    H238653   0.763   7.183   5.207
12904TIP3   OH238654   0.876   6.793   0.973
12904TIP3    H138655   0.961   6.749   0.962
12904TIP3    H238656   0.858   6.831   0.887
12905TIP3   OH238657   2.644   2.949   4.324
12905TIP3    H138658   2.582   2.937   4.252
12905TIP3    H238659   2.706   3.015   4.292
12906TIP3   OH238660   0.471   4.113   0.364
12906TIP3    H138661   0.497   4.149   0.449
12906TIP3    H238662   0.405   4.175   0.332
12907TIP3   OH238663   0.684   5.571   3.397
12907TIP3    H138664   0.750   5.616   3.343
12907TIP3    H238665   0.600   5.601   3.361
12908TIP3   OH238666   5.019   7.109   4.331
12908TIP3    H138667   4.928   7.080   4.335
12908TIP3    H238668   5.014   7.204   4.345
12909TIP3   OH238669   3.541   7.797   3.377
12909TIP3    H138670   3.448   7.792   3.399
12909TIP3    H238671   3.578   7.717   3.415
12910TIP3   OH238672   2.733   7.626   6.679
12910TIP3    H138673   2.638   7.611   6.685
12910TIP3    H238674   2.771   7.559   6.736
12911TIP3   OH238675   7.668   7.305   5.717
12911TIP3    H138676   7.722   7.377   5.749
12911TIP3    H238677   7.591   7.306   5.773
12912TIP3   OH238678   1.417   3.525   0.562
12912TIP3    H138679   1.341   3.562   0.517
12912TIP3    H238680   1.384   3.446   0.604
12913TIP3   OH238681   2.528   7.039   3.476
12913TIP3    H138682   2.549   7.103   3.544
12913TIP3    H238683   2.491   6.965   3.523
12914TIP3   OH238684   1.834   6.040   5.500
12914TIP3    H138685   1.923   6.073   5.488
12914TIP3    H238686   1.784   6.083   5.430
12915TIP3   OH238687   1.449   6.218   2.135
12915TIP3    H138688   1.377   6.242   2.077
12915TIP3    H238689   1.410   6.218   2.223
12916TIP3   OH238690   8.119   1.258   1.328
12916TIP3    H138691   8.214   1.256   1.316
12916TIP3    H238692   8.106   1.239   1.421
12917TIP3   OH238693   1.946   3.724   1.508
12917TIP3    H138694   1.977   3.777   1.581
12917TIP3    H238695   2.025   3.686   1.471
12918TIP3   OH238696   2.212   0.682   5.171
12918TIP3    H138697   2.279   0.614   5.179
12918TIP3    H238698   2.261   0.764   5.166
12919TIP3   OH238699   7.121   4.169   2.909
12919TIP3    H138700   7.132   4.083   2.949
12919TIP3    H238701   7.132   4.154   2.815
12920TIP3   OH238702   7.956   6.837   0.897
12920TIP3    H138703   7.869   6.813   0.865
12920TIP3    H238704   7.990   6.756   0.936
12921TIP3   OH238705   8.038   0.921   3.976
12921TIP3    H138706   7.992   0.841   3.952
12921TIP3    H238707   8.068   0.958   3.893
12922TIP3   OH238708   0.034   5.571   0.886
12922TIP3    H138709   0.034   5.565   0.790
12922TIP3    H238710   0.126   5.587   0.909
12923TIP3   OH238711   0.463   2.471   1.636
12923TIP3    H138712   0.387   2.505   1.684
12923TIP3    H238713   0.514   2.549   1.615
12924TIP3   OH238714   7.909   1.427   2.891
12924TIP3    H138715   7.981   1.480   2.925
12924TIP3    H238716   7.918   1.431   2.796
12925TIP3   OH238717   6.635   6.794   2.887
12925TIP3    H138718   6.665   6.704   2.875
12925TIP3    H238719   6.715   6.845   2.897
12926TIP3   OH238720   6.433   5.019   5.022
12926TIP3    H138721   6.504   4.984   4.968
12926TIP3    H238722   6.357   5.020   4.964
12927TIP3   OH238723   4.021   2.672   3.660
12927TIP3    H138724   3.941   2.619   3.658
12927TIP3    H238725   4.022   2.711   3.747
12928TIP3   OH238726   4.979   3.506   5.246
12928TIP3    H138727   4.995   3.527   5.338
12928TIP3    H238728   4.888   3.530   5.231
12929TIP3   OH238729   6.989   0.976   6.135
12929TIP3    H138730   6.966   1.059   6.094
12929TIP3    H238731   6.970   0.910   6.067
12930TIP3   OH238732   4.965   3.834   4.112
12930TIP3    H138733   5.042   3.859   4.061
12930TIP3    H238734   4.999   3.814   4.199
12931TIP3   OH238735   7.070   3.445   3.255
12931TIP3    H138736   7.029   3.402   3.180
12931TIP3    H238737   7.143   3.389   3.278
12932TIP3   OH238738   3.301   2.508   2.313
12932TIP3    H138739   3.382   2.468   2.344
12932TIP3    H238740   3.318   2.530   2.221
12933TIP3   OH238741   3.791   7.020   2.152
12933TIP3    H138742   3.872   6.995   2.107
12933TIP3    H238743   3.731   6.947   2.136
12934TIP3   OH238744   0.341   3.694   4.278
12934TIP3    H138745   0.269   3.758   4.274
12934TIP3    H238746   0.302   3.613   4.247
12935TIP3   OH238747   3.433   6.401   3.006
12935TIP3    H138748   3.439   6.315   2.965
12935TIP3    H238749   3.339   6.421   3.005
12936TIP3   OH238750   4.570   2.142   1.459
12936TIP3    H138751   4.481   2.178   1.469
12936TIP3    H238752   4.612   2.199   1.395
12937TIP3   OH238753   0.297   6.997   3.544
12937TIP3    H138754   0.281   6.925   3.483
12937TIP3    H238755   0.210   7.023   3.574
12938TIP3   OH238756   5.674   4.303   4.250
12938TIP3    H138757   5.761   4.343   4.250
12938TIP3    H238758   5.620   4.362   4.197
12939TIP3   OH238759   3.757   6.984   5.377
12939TIP3    H138760   3.826   6.947   5.432
12939TIP3    H238761   3.786   7.073   5.359
12940TIP3   OH238762   7.133   4.810   3.611
12940TIP3    H138763   7.174   4.727   3.634
12940TIP3    H238764   7.063   4.785   3.550
12941TIP3   OH238765   1.436   3.588   4.570
12941TIP3    H138766   1.353   3.634   4.585
12941TIP3    H238767   1.425   3.503   4.612
12942TIP3   OH238768   7.115   5.428   2.820
12942TIP3    H138769   7.186   5.467   2.769
12942TIP3    H238770   7.122   5.334   2.802
12943TIP3   OH238771   2.052   0.757   2.146
12943TIP3    H138772   2.134   0.807   2.148
12943TIP3    H238773   2.020   0.765   2.056
12944TIP3   OH238774   6.329   2.022   2.089
12944TIP3    H138775   6.284   1.946   2.125
12944TIP3    H238776   6.417   1.990   2.068
12945TIP3   OH238777   5.591   7.554   2.450
12945TIP3    H138778   5.568   7.533   2.541
12945TIP3    H238779   5.594   7.469   2.406
12946TIP3   OH238780   5.590   5.065   3.638
12946TIP3    H138781   5.599   5.149   3.682
12946TIP3    H238782   5.677   5.046   3.604
12947TIP3   OH238783   4.392   0.637   2.094
12947TIP3    H138784   4.349   0.617   2.177
12947TIP3    H238785   4.347   0.584   2.029
12948TIP3   OH238786   2.806   7.181   0.534
12948TIP3    H138787   2.874   7.113   0.536
12948TIP3    H238788   2.847   7.256   0.577
12949TIP3   OH238789   2.160   0.407   2.420
12949TIP3    H138790   2.112   0.327   2.399
12949TIP3    H238791   2.102   0.477   2.393
12950TIP3   OH238792   4.690   5.451   2.475
12950TIP3    H138793   4.723   5.518   2.534
12950TIP3    H238794   4.607   5.486   2.442
12951TIP3   OH238795   2.851   5.863   0.875
12951TIP3    H138796   2.778   5.852   0.814
12951TIP3    H238797   2.845   5.954   0.904
12952TIP3   OH238798   1.359   5.169   1.002
12952TIP3    H138799   1.423   5.103   1.028
12952TIP3    H238800   1.277   5.120   0.991
12953TIP3   OH238801   3.942   3.991   0.988
12953TIP3    H138802   3.866   4.043   1.015
12953TIP3    H238803   4.013   4.054   0.982
12954TIP3   OH238804   4.449   0.556   2.554
12954TIP3    H138805   4.403   0.497   2.493
12954TIP3    H238806   4.384   0.622   2.577
12955TIP3   OH238807   7.973   1.585   4.792
12955TIP3    H138808   7.890   1.587   4.745
12955TIP3    H238809   7.953   1.540   4.874
12956TIP3   OH238810   6.461   1.294   6.561
12956TIP3    H138811   6.523   1.232   6.599
12956TIP3    H238812   6.513   1.344   6.498
12957TIP3   OH238813   0.123   6.223   0.153
12957TIP3    H138814   0.044   6.254   0.198
12957TIP3    H238815   0.122   6.128   0.168
12958TIP3   OH238816   1.082   7.012   0.121
12958TIP3    H138817   1.092   7.056   0.205
12958TIP3    H238818   1.138   7.062   0.061
12959TIP3   OH238819   0.243   1.920   2.718
12959TIP3    H138820   0.298   1.862   2.770
12959TIP3    H238821   0.230   1.873   2.635
12960TIP3   OH238822   2.299   0.771   3.087
12960TIP3    H138823   2.267   0.792   3.175
12960TIP3    H238824   2.362   0.839   3.067
12961TIP3   OH238825   4.436   2.356   5.979
12961TIP3    H138826   4.486   2.347   6.060
12961TIP3    H238827   4.403   2.446   5.981
12962TIP3   OH238828   2.335   2.268   1.692
12962TIP3    H138829   2.334   2.352   1.645
12962TIP3    H238830   2.428   2.251   1.707
12963TIP3   OH238831   7.091   4.603   1.363
12963TIP3    H138832   7.103   4.567   1.275
12963TIP3    H238833   7.014   4.558   1.397
12964TIP3   OH238834   7.054   4.748   6.671
12964TIP3    H138835   7.062   4.802   6.750
12964TIP3    H238836   7.139   4.757   6.627
12965TIP3   OH238837   1.175   6.559   3.297
12965TIP3    H138838   1.099   6.521   3.342
12965TIP3    H238839   1.138   6.623   3.237
12966TIP3   OH238840   4.617   1.264   0.403
12966TIP3    H138841   4.525   1.288   0.410
12966TIP3    H238842   4.663   1.348   0.400
12967TIP3   OH238843   2.854   4.469   6.713
12967TIP3    H138844   2.802   4.511   6.644
12967TIP3    H238845   2.933   4.440   6.668
12968TIP3   OH238846   5.165   3.901   5.817
12968TIP3    H138847   5.167   3.987   5.775
12968TIP3    H238848   5.255   3.869   5.813
12969TIP3   OH238849   5.183   5.502   6.161
12969TIP3    H138850   5.264   5.553   6.155
12969TIP3    H238851   5.156   5.511   6.252
12970TIP3   OH238852   6.697   4.584   2.144
12970TIP3    H138853   6.704   4.535   2.226
12970TIP3    H238854   6.737   4.668   2.163
12971TIP3   OH238855   3.389   0.344   3.064
12971TIP3    H138856   3.334   0.388   3.000
12971TIP3    H238857   3.329   0.320   3.135
12972TIP3   OH238858   5.914   5.577   2.178
12972TIP3    H138859   6.002   5.598   2.146
12972TIP3    H238860   5.871   5.537   2.103
12973TIP3   OH238861   3.024   6.680   1.150
12973TIP3    H138862   3.081   6.676   1.072
12973TIP3    H238863   3.076   6.641   1.219
12974TIP3   OH238864   2.265   6.112   2.389
12974TIP3    H138865   2.218   6.159   2.320
12974TIP3    H238866   2.297   6.182   2.448
12975TIP3   OH238867   1.190   3.234   2.611
12975TIP3    H138868   1.147   3.261   2.692
12975TIP3    H238869   1.149   3.150   2.589
12976TIP3   OH238870   7.752   5.630   6.036
12976TIP3    H138871   7.687   5.604   5.971
12976TIP3    H238872   7.778   5.719   6.010
12977TIP3   OH238873   4.238   1.354   4.064
12977TIP3    H138874   4.327   1.352   4.098
12977TIP3    H238875   4.229   1.273   4.014
12978TIP3   OH238876   1.476   6.609   5.349
12978TIP3    H138877   1.540   6.614   5.420
12978TIP3    H238878   1.391   6.606   5.393
12979TIP3   OH238879   7.631   0.803   2.805
12979TIP3    H138880   7.695   0.839   2.867
12979TIP3    H238881   7.613   0.715   2.837
12980TIP3   OH238882   0.701   6.718   6.091
12980TIP3    H138883   0.696   6.744   5.999
12980TIP3    H238884   0.610   6.702   6.117
12981TIP3   OH238885   2.969   2.934   1.668
12981TIP3    H138886   3.040   2.885   1.711
12981TIP3    H238887   2.945   3.002   1.731
12982TIP3   OH238888   0.455   0.253   6.509
12982TIP3    H138889   0.495   0.190   6.449
12982TIP3    H238890   0.362   0.231   6.510
12983TIP3   OH238891   5.844   2.118   1.300
12983TIP3    H138892   5.883   2.205   1.291
12983TIP3    H238893   5.754   2.130   1.268
12984TIP3   OH238894   5.242   2.121   0.480
12984TIP3    H138895   5.306   2.050   0.483
12984TIP3    H238896   5.169   2.086   0.428
12985TIP3   OH238897   5.337   4.393   2.099
12985TIP3    H138898   5.279   4.468   2.094
12985TIP3    H238899   5.350   4.366   2.008
12986TIP3   OH238900   3.301   5.396   1.864
12986TIP3    H138901   3.337   5.457   1.929
12986TIP3    H238902   3.364   5.324   1.862
12987TIP3   OH238903   7.433   5.335   5.793
12987TIP3    H138904   7.436   5.331   5.697
12987TIP3    H238905   7.340   5.332   5.814
12988TIP3   OH238906   3.702   3.125   1.876
12988TIP3    H138907   3.644   3.193   1.842
12988TIP3    H238908   3.753   3.168   1.945
12989TIP3   OH238909   4.560   6.391   0.129
12989TIP3    H138910   4.599   6.340   0.200
12989TIP3    H238911   4.505   6.456   0.173
12990TIP3   OH238912   2.142   5.043   2.068
12990TIP3    H138913   2.151   5.116   2.007
12990TIP3    H238914   2.226   5.038   2.114
12991TIP3   OH238915   2.972   0.932   5.739
12991TIP3    H138916   2.914   0.956   5.667
12991TIP3    H238917   3.058   0.961   5.712
12992TIP3   OH238918   2.773   6.861  -0.063
12992TIP3    H138919   2.700   6.846  -0.003
12992TIP3    H238920   2.827   6.926  -0.018
12993TIP3   OH238921   1.457   2.845   3.982
12993TIP3    H138922   1.468   2.754   3.952
12993TIP3    H238923   1.539   2.888   3.960
12994TIP3   OH238924   2.495   7.094   0.114
12994TIP3    H138925   2.510   7.006   0.080
12994TIP3    H238926   2.432   7.133   0.053
12995TIP3   OH238927   8.149   1.699   4.468
12995TIP3    H138928   8.081   1.632   4.461
12995TIP3    H238929   8.170   1.702   4.562
12996TIP3   OH238930   1.769   4.452   6.742
12996TIP3    H138931   1.841   4.398   6.710
12996TIP3    H238932   1.804   4.541   6.743
12997TIP3   OH238933   7.572   4.719   4.051
12997TIP3    H138934   7.622   4.719   3.970
12997TIP3    H238935   7.637   4.739   4.119
12998TIP3   OH238936   2.652   1.590   2.842
12998TIP3    H138937   2.653   1.495   2.855
12998TIP3    H238938   2.620   1.601   2.752
12999TIP3   OH238939   0.638   0.894   4.990
12999TIP3    H138940   0.675   0.814   4.952
12999TIP3    H238941   0.678   0.899   5.077
13000TIP3   OH238942   5.968   6.117   2.609
13000TIP3    H138943   5.907   6.141   2.679
13000TIP3    H238944   6.051   6.158   2.636
13001TIP3   OH238945   3.128   1.508   4.250
13001TIP3    H138946   3.143   1.448   4.177
13001TIP3    H238947   3.034   1.500   4.268
13002TIP3   OH238948   8.225   0.253   1.353
13002TIP3    H138949   8.315   0.281   1.364
13002TIP3    H238950   8.193   0.238   1.442
13003TIP3   OH238951   1.631   4.673   6.456
13003TIP3    H138952   1.647   4.660   6.549
13003TIP3    H238953   1.549   4.625   6.439
13004TIP3   OH238954   6.356   1.697   3.915
13004TIP3    H138955   6.434   1.659   3.955
13004TIP3    H238956   6.283   1.666   3.969
13005TIP3   OH238957   5.296   5.443   1.177
13005TIP3    H138958   5.306   5.538   1.182
13005TIP3    H238959   5.319   5.411   1.264
13006TIP3   OH238960   2.203   5.158   5.160
13006TIP3    H138961   2.223   5.133   5.070
13006TIP3    H238962   2.123   5.111   5.181
13007TIP3   OH238963   1.206   0.765   4.558
13007TIP3    H138964   1.142   0.836   4.568
13007TIP3    H238965   1.172   0.694   4.612
13008TIP3   OH238966   1.887   6.240   4.195
13008TIP3    H138967   1.851   6.321   4.160
13008TIP3    H238968   1.813   6.179   4.198
13009TIP3   OH238969   3.236   2.332   3.663
13009TIP3    H138970   3.315   2.282   3.680
13009TIP3    H238971   3.229   2.335   3.567
13010TIP3   OH238972   0.874   5.404   0.829
13010TIP3    H138973   0.894   5.322   0.783
13010TIP3    H238974   0.802   5.381   0.888
13011TIP3   OH238975   6.715   5.038   0.095
13011TIP3    H138976   6.788   4.981   0.120
13011TIP3    H238977   6.696   5.090   0.173
13012TIP3   OH238978   7.667   1.250   2.051
13012TIP3    H138979   7.588   1.210   2.086
13012TIP3    H238980   7.674   1.215   1.962
13013TIP3   OH238981   6.392   2.632   2.320
13013TIP3    H138982   6.330   2.645   2.248
13013TIP3    H238983   6.478   2.637   2.277
13014TIP3   OH238984   1.138   1.009   3.512
13014TIP3    H138985   1.161   0.917   3.528
13014TIP3    H238986   1.061   1.025   3.566
13015TIP3   OH238987   0.678   7.125   1.670
13015TIP3    H138988   0.682   7.205   1.723
13015TIP3    H238989   0.763   7.082   1.685
13016TIP3   OH238990   2.897   1.290   1.427
13016TIP3    H138991   2.938   1.257   1.507
13016TIP3    H238992   2.946   1.369   1.405
13017TIP3   OH238993   2.084   2.346   0.512
13017TIP3    H138994   2.073   2.441   0.508
13017TIP3    H238995   2.137   2.325   0.436
13018TIP3   OH238996   3.684   6.180   6.170
13018TIP3    H138997   3.684   6.225   6.085
13018TIP3    H238998   3.704   6.089   6.148
13019TIP3   OH238999   7.331   4.125   4.756
13019TIP3    H139000   7.347   4.215   4.726
13019TIP3    H239001   7.378   4.119   4.839
13020TIP3   OH239002   6.106   4.099   3.918
13020TIP3    H139003   6.066   4.102   3.831
13020TIP3    H239004   6.195   4.131   3.905
13021TIP3   OH239005   0.005   2.931   2.044
13021TIP3    H139006  -0.029   2.844   2.022
13021TIP3    H239007   0.079   2.943   1.983
13022TIP3   OH239008   1.715   3.419   0.272
13022TIP3    H139009   1.771   3.464   0.210
13022TIP3    H239010   1.684   3.342   0.224
13023TIP3   OH239011   7.522   4.900   3.844
13023TIP3    H139012   7.572   4.820   3.825
13023TIP3    H239013   7.448   4.870   3.896
13024TIP3   OH239014   8.109   6.183   6.736
13024TIP3    H139015   8.163   6.251   6.775
13024TIP3    H239016   8.099   6.117   6.805
13025TIP3   OH239017   1.130   2.718   3.949
13025TIP3    H139018   1.085   2.763   4.020
13025TIP3    H239019   1.196   2.664   3.993
13026TIP3   OH239020   3.356   5.610   5.614
13026TIP3    H139021   3.387   5.682   5.669
13026TIP3    H239022   3.334   5.540   5.676
13027TIP3   OH239023   0.483   3.374   4.936
13027TIP3    H139024   0.439   3.313   4.995
13027TIP3    H239025   0.413   3.410   4.882
13028TIP3   OH239026   2.043   0.094   0.883
13028TIP3    H139027   1.996   0.138   0.953
13028TIP3    H239028   2.084   0.164   0.833
13029TIP3   OH239029   5.965   7.385   1.758
13029TIP3    H139030   5.960   7.409   1.851
13029TIP3    H239031   5.919   7.302   1.752
13030TIP3   OH239032   2.754   4.423   2.818
13030TIP3    H139033   2.799   4.475   2.753
13030TIP3    H239034   2.664   4.417   2.785
13031TIP3   OH239035   6.268   4.388   3.935
13031TIP3    H139036   6.284   4.314   3.876
13031TIP3    H239037   6.226   4.454   3.881
13032TIP3   OH239038   3.908   3.847   0.230
13032TIP3    H139039   3.951   3.933   0.228
13032TIP3    H239040   3.819   3.866   0.259
13033TIP3   OH239041   4.947   5.728   6.209
13033TIP3    H139042   4.927   5.654   6.266
13033TIP3    H239043   5.008   5.693   6.144
13034TIP3   OH239044   6.036   2.089   2.645
13034TIP3    H139045   5.951   2.064   2.680
13034TIP3    H239046   6.020   2.173   2.601
13035TIP3   OH239047   2.051  -0.012   4.118
13035TIP3    H139048   2.101  -0.025   4.198
13035TIP3    H239049   2.026   0.081   4.120
13036TIP3   OH239050   8.057   7.019   6.352
13036TIP3    H139051   7.990   7.033   6.285
13036TIP3    H239052   8.013   7.037   6.435
13037TIP3   OH239053   2.090   3.275   3.379
13037TIP3    H139054   2.097   3.190   3.335
13037TIP3    H239055   2.004   3.309   3.352
13038TIP3   OH239056   3.791   5.517   0.845
13038TIP3    H139057   3.841   5.597   0.827
13038TIP3    H239058   3.723   5.545   0.906
13039TIP3   OH239059   2.080   2.338   5.268
13039TIP3    H139060   2.036   2.381   5.341
13039TIP3    H239061   2.165   2.382   5.262
13040TIP3   OH239062   6.969   6.513   2.901
13040TIP3    H139063   7.006   6.594   2.935
13040TIP3    H239064   6.984   6.517   2.807
13041TIP3   OH239065   0.878   2.905   3.450
13041TIP3    H139066   0.956   2.878   3.402
13041TIP3    H239067   0.806   2.864   3.402
13042TIP3   OH239068   5.125   3.117   6.276
13042TIP3    H139069   5.047   3.066   6.295
13042TIP3    H239070   5.149   3.091   6.187
13043TIP3   OH239071   2.091   6.688   1.725
13043TIP3    H139072   2.171   6.638   1.711
13043TIP3    H239073   2.077   6.734   1.642
13044TIP3   OH239074   8.191   1.924   2.232
13044TIP3    H139075   8.178   2.004   2.180
13044TIP3    H239076   8.152   1.945   2.318
13045TIP3   OH239077   7.797   6.948   1.444
13045TIP3    H139078   7.828   7.035   1.467
13045TIP3    H239079   7.778   6.954   1.350
13046TIP3   OH239080   3.519   0.700   3.333
13046TIP3    H139081   3.591   0.749   3.296
13046TIP3    H239082   3.541   0.608   3.317
13047TIP3   OH239083   0.864   6.328   2.604
13047TIP3    H139084   0.925   6.262   2.636
13047TIP3    H239085   0.905   6.361   2.524
13048TIP3   OH239086   6.102   6.345   0.751
13048TIP3    H139087   6.195   6.320   0.755
13048TIP3    H239088   6.060   6.273   0.705
13049TIP3   OH239089   0.048   7.524   0.805
13049TIP3    H139090   0.004   7.601   0.770
13049TIP3    H239091  -0.023   7.459   0.815
13050TIP3   OH239092   0.295   2.611   2.500
13050TIP3    H139093   0.215   2.578   2.459
13050TIP3    H239094   0.266   2.689   2.547
13051TIP3   OH239095   3.138   1.261   4.420
13051TIP3    H139096   3.170   1.342   4.380
13051TIP3    H239097   3.165   1.192   4.358
13052TIP3   OH239098   7.873   2.447   1.473
13052TIP3    H139099   7.932   2.371   1.481
13052TIP3    H239100   7.792   2.418   1.514
13053TIP3   OH239101   7.356   1.081   1.010
13053TIP3    H139102   7.322   1.092   0.921
13053TIP3    H239103   7.400   0.996   1.008
13054TIP3   OH239104   6.308   4.590   5.193
13054TIP3    H139105   6.230   4.571   5.244
13054TIP3    H239106   6.318   4.685   5.197
13055TIP3   OH239107   2.195   4.024   4.864
13055TIP3    H139108   2.127   4.069   4.813
13055TIP3    H239109   2.200   3.937   4.824
13056TIP3   OH239110   0.684   5.244   3.764
13056TIP3    H139111   0.693   5.338   3.751
13056TIP3    H239112   0.675   5.208   3.676
13057TIP3   OH239113   0.354   4.287   6.677
13057TIP3    H139114   0.338   4.292   6.771
13057TIP3    H239115   0.440   4.327   6.665
13058TIP3   OH239116   8.269   2.569   4.207
13058TIP3    H139117   8.343   2.510   4.223
13058TIP3    H239118   8.195   2.510   4.192
13059TIP3   OH239119   1.254   6.786   0.384
13059TIP3    H139120   1.258   6.691   0.389
13059TIP3    H239121   1.170   6.804   0.344
13060TIP3   OH239122   7.814   1.768   2.446
13060TIP3    H139123   7.813   1.862   2.428
13060TIP3    H239124   7.759   1.758   2.523
13061TIP3   OH239125   1.192   4.575   2.144
13061TIP3    H139126   1.114   4.546   2.191
13061TIP3    H239127   1.263   4.567   2.207
13062TIP3   OH239128   1.573   3.063   1.753
13062TIP3    H139129   1.615   3.033   1.834
13062TIP3    H239130   1.594   2.996   1.689
13063TIP3   OH239131   0.715   7.086   3.844
13063TIP3    H139132   0.651   7.086   3.773
13063TIP3    H239133   0.707   7.173   3.883
13064TIP3   OH239134   3.172   0.642   4.838
13064TIP3    H139135   3.169   0.721   4.783
13064TIP3    H239136   3.220   0.578   4.785
13065TIP3   OH239137   0.821   4.516   2.441
13065TIP3    H139138   0.770   4.583   2.396
13065TIP3    H239139   0.877   4.565   2.501
13066TIP3   OH239140   6.037   1.653   5.155
13066TIP3    H139141   5.982   1.722   5.120
13066TIP3    H239142   5.977   1.595   5.202
13067TIP3   OH239143   1.070   4.020   0.534
13067TIP3    H139144   1.080   4.115   0.549
13067TIP3    H239145   1.005   3.993   0.599
13068TIP3   OH239146   7.368   3.788   6.444
13068TIP3    H139147   7.336   3.708   6.485
13068TIP3    H239148   7.303   3.854   6.467
13069TIP3   OH239149   2.989   0.253   0.909
13069TIP3    H139150   2.956   0.248   0.820
13069TIP3    H239151   2.968   0.168   0.948
13070TIP3   OH239152   4.030   3.432   1.823
13070TIP3    H139153   4.111   3.452   1.869
13070TIP3    H239154   3.975   3.387   1.887
13071TIP3   OH239155   2.982   4.773   5.506
13071TIP3    H139156   2.965   4.864   5.531
13071TIP3    H239157   2.932   4.760   5.426
13072TIP3   OH239158   0.516   0.452   5.160
13072TIP3    H139159   0.585   0.458   5.093
13072TIP3    H239160   0.547   0.383   5.219
13073TIP3   OH239161   2.275   7.098   5.837
13073TIP3    H139162   2.207   7.081   5.771
13073TIP3    H239163   2.349   7.044   5.809
13074TIP3   OH239164   4.433   0.553   4.770
13074TIP3    H139165   4.420   0.631   4.716
13074TIP3    H239166   4.527   0.554   4.791
13075TIP3   OH239167   2.799   6.215   5.022
13075TIP3    H139168   2.848   6.202   4.940
13075TIP3    H239169   2.712   6.243   4.994
13076TIP3   OH239170   6.846   0.698   1.212
13076TIP3    H139171   6.934   0.709   1.176
13076TIP3    H239172   6.795   0.768   1.172
13077TIP3   OH239173   0.664   4.160   5.897
13077TIP3    H139174   0.731   4.106   5.854
13077TIP3    H239175   0.588   4.102   5.903
13078TIP3   OH239176   5.843   4.680   3.623
13078TIP3    H139177   5.893   4.756   3.593
13078TIP3    H239178   5.775   4.669   3.557
13079TIP3   OH239179   0.114   3.235   5.974
13079TIP3    H139180   0.066   3.313   6.000
13079TIP3    H239181   0.130   3.188   6.056
13080TIP3   OH239182   6.721   4.813   2.920
13080TIP3    H139183   6.629   4.794   2.938
13080TIP3    H239184   6.729   4.807   2.825
13081TIP3   OH239185   4.652   6.654   5.676
13081TIP3    H139186   4.700   6.722   5.628
13081TIP3    H239187   4.617   6.596   5.608
13082TIP3   OH239188   6.012   3.616   2.636
13082TIP3    H139189   6.046   3.623   2.547
13082TIP3    H239190   5.972   3.529   2.640
13083TIP3   OH239191   4.596   6.764   1.427
13083TIP3    H139192   4.619   6.795   1.340
13083TIP3    H239193   4.595   6.843   1.481
13084TIP3   OH239194   6.726   1.574   2.942
13084TIP3    H139195   6.727   1.670   2.949
13084TIP3    H239196   6.812   1.547   2.976
13085TIP3   OH239197   4.419   4.852   3.343
13085TIP3    H139198   4.330   4.837   3.376
13085TIP3    H239199   4.445   4.768   3.306
13086TIP3   OH239200   0.374   6.679   5.078
13086TIP3    H139201   0.404   6.695   4.989
13086TIP3    H239202   0.349   6.765   5.111
13087TIP3   OH239203   3.780   7.294   2.153
13087TIP3    H139204   3.819   7.332   2.232
13087TIP3    H239205   3.794   7.200   2.162
13088TIP3   OH239206   7.790   2.084   4.425
13088TIP3    H139207   7.813   2.177   4.426
13088TIP3    H239208   7.862   2.043   4.376
13089TIP3   OH239209   8.055   3.798   4.463
13089TIP3    H139210   8.069   3.891   4.444
13089TIP3    H239211   8.023   3.796   4.553
13090TIP3   OH239212   7.559   5.987   6.733
13090TIP3    H139213   7.615   6.014   6.806
13090TIP3    H239214   7.616   5.991   6.656
13091TIP3   OH239215   3.054   3.486   3.418
13091TIP3    H139216   3.106   3.449   3.489
13091TIP3    H239217   2.965   3.455   3.434
13092TIP3   OH239218   1.987   1.677   1.732
13092TIP3    H139219   2.025   1.740   1.671
13092TIP3    H239220   1.924   1.728   1.783
13093TIP3   OH239221   1.085   4.590   0.101
13093TIP3    H139222   1.040   4.674   0.105
13093TIP3    H239223   1.052   4.550   0.020
13094TIP3   OH239224   3.623   2.010   5.874
13094TIP3    H139225   3.610   2.038   5.783
13094TIP3    H239226   3.535   1.999   5.909
13095TIP3   OH239227   2.632   1.030   4.235
13095TIP3    H139228   2.692   0.961   4.206
13095TIP3    H239229   2.588   1.058   4.155
13096TIP3   OH239230   3.199   4.724   4.346
13096TIP3    H139231   3.155   4.796   4.391
13096TIP3    H239232   3.128   4.667   4.316
13097TIP3   OH239233   3.175   2.521   3.116
13097TIP3    H139234   3.263   2.486   3.130
13097TIP3    H239235   3.135   2.460   3.054
13098TIP3   OH239236   5.623   5.804   4.067
13098TIP3    H139237   5.690   5.844   4.012
13098TIP3    H239238   5.653   5.818   4.157
13099TIP3   OH239239   6.264   6.627   0.784
13099TIP3    H139240   6.323   6.586   0.720
13099TIP3    H239241   6.295   6.597   0.869
13100TIP3   OH239242   1.582   0.868   1.006
13100TIP3    H139243   1.543   0.818   1.078
13100TIP3    H239244   1.569   0.814   0.929
13101TIP3   OH239245   4.495   4.637   5.692
13101TIP3    H139246   4.427   4.703   5.681
13101TIP3    H239247   4.577   4.687   5.697
13102TIP3   OH239248   1.776   0.393   2.993
13102TIP3    H139249   1.703   0.451   3.016
13102TIP3    H239250   1.792   0.411   2.900
13103TIP3   OH239251   0.158   0.970   1.163
13103TIP3    H139252   0.117   0.906   1.105
13103TIP3    H239253   0.089   0.994   1.225
13104TIP3   OH239254   3.283   7.013   6.339
13104TIP3    H139255   3.215   7.013   6.405
13104TIP3    H239256   3.330   7.096   6.351
13105TIP3   OH239257   1.521   6.535   2.945
13105TIP3    H139258   1.504   6.578   2.861
13105TIP3    H239259   1.584   6.592   2.989
13106TIP3   OH239260   5.156   2.552   5.715
13106TIP3    H139261   5.088   2.619   5.703
13106TIP3    H239262   5.212   2.561   5.638
13107TIP3   OH239263   1.005   6.013   6.726
13107TIP3    H139264   1.087   5.977   6.758
13107TIP3    H239265   1.030   6.075   6.658
13108TIP3   OH239266   7.928   2.186   2.259
13108TIP3    H139267   7.846   2.205   2.214
13108TIP3    H239268   7.915   2.098   2.296
13109TIP3   OH239269   5.701   5.210   0.999
13109TIP3    H139270   5.706   5.197   0.904
13109TIP3    H239271   5.609   5.194   1.020
13110TIP3   OH239272   3.704   2.771   5.940
13110TIP3    H139273   3.705   2.732   6.027
13110TIP3    H239274   3.769   2.721   5.891
13111TIP3   OH239275   1.509   2.390   0.998
13111TIP3    H139276   1.450   2.316   0.986
13111TIP3    H239277   1.589   2.351   1.035
13112TIP3   OH239278   4.816   6.067   4.246
13112TIP3    H139279   4.864   6.007   4.303
13112TIP3    H239280   4.862   6.064   4.163
13113TIP3   OH239281   1.238   6.683   5.467
13113TIP3    H139282   1.182   6.746   5.422
13113TIP3    H239283   1.191   6.662   5.548
13114TIP3   OH239284   8.004   4.097   2.725
13114TIP3    H139285   7.945   4.140   2.787
13114TIP3    H239286   7.977   4.129   2.639
13115TIP3   OH239287   7.480   4.859   2.135
13115TIP3    H139288   7.465   4.868   2.041
13115TIP3    H239289   7.554   4.800   2.142
13116TIP3   OH239290   5.719   4.772   3.211
13116TIP3    H139291   5.708   4.721   3.131
13116TIP3    H239292   5.806   4.747   3.243
13117TIP3   OH239293   2.884   5.450   5.207
13117TIP3    H139294   2.945   5.521   5.189
13117TIP3    H239295   2.865   5.412   5.121
13118TIP3   OH239296   1.914   1.884   0.718
13118TIP3    H139297   1.831   1.856   0.678
13118TIP3    H239298   1.947   1.951   0.658
13119TIP3   OH239299   6.437   0.197   4.807
13119TIP3    H139300   6.408   0.106   4.812
13119TIP3    H239301   6.505   0.196   4.739
13120TIP3   OH239302   5.201   3.599   4.673
13120TIP3    H139303   5.246   3.648   4.742
13120TIP3    H239304   5.192   3.511   4.709
13121TIP3   OH239305   6.268   5.025   1.407
13121TIP3    H139306   6.274   5.104   1.461
13121TIP3    H239307   6.341   4.970   1.435
13122TIP3   OH239308   1.167   1.473   5.369
13122TIP3    H139309   1.215   1.433   5.442
13122TIP3    H239310   1.188   1.418   5.294
13123TIP3   OH239311   2.677   2.443   0.526
13123TIP3    H139312   2.729   2.414   0.601
13123TIP3    H239313   2.683   2.370   0.464
13124TIP3   OH239314   5.044   6.069   3.758
13124TIP3    H139315   4.950   6.050   3.766
13124TIP3    H239316   5.048   6.163   3.744
13125TIP3   OH239317   2.560   1.404   0.250
13125TIP3    H139318   2.468   1.396   0.272
13125TIP3    H239319   2.568   1.363   0.164
13126TIP3   OH239320   3.152   1.779   5.423
13126TIP3    H139321   3.214   1.754   5.493
13126TIP3    H239322   3.158   1.874   5.419
13127TIP3   OH239323   0.887   4.581   6.537
13127TIP3    H139324   0.977   4.579   6.569
13127TIP3    H239325   0.835   4.547   6.610
13128TIP3   OH239326   8.080   2.189   1.201
13128TIP3    H139327   8.145   2.180   1.270
13128TIP3    H239328   8.131   2.185   1.120
13129TIP3   OH239329   2.079   7.441   0.306
13129TIP3    H139330   2.089   7.359   0.258
13129TIP3    H239331   2.054   7.413   0.395
13130TIP3   OH239332   4.434   0.003   3.895
13130TIP3    H139333   4.496   0.075   3.910
13130TIP3    H239334   4.355   0.046   3.860
13131TIP3   OH239335   5.680   7.152   5.308
13131TIP3    H139336   5.586   7.156   5.287
13131TIP3    H239337   5.705   7.063   5.284
13132TIP3   OH239338   0.105   4.659   3.422
13132TIP3    H139339   0.072   4.597   3.358
13132TIP3    H239340   0.147   4.728   3.370
13133TIP3   OH239341   4.799   5.305   3.152
13133TIP3    H139342   4.778   5.297   3.059
13133TIP3    H239343   4.750   5.233   3.193
13134TIP3   OH239344   8.101   7.005   3.709
13134TIP3    H139345   8.078   6.935   3.770
13134TIP3    H239346   8.025   7.062   3.707
13135TIP3   OH239347   3.727   7.014   1.136
13135TIP3    H139348   3.801   7.055   1.180
13135TIP3    H239349   3.657   7.015   1.201
13136TIP3   OH239350   7.586   4.870   0.147
13136TIP3    H139351   7.675   4.876   0.112
13136TIP3    H239352   7.588   4.921   0.228
13137TIP3   OH239353   0.366   7.059   1.740
13137TIP3    H139354   0.419   7.137   1.723
13137TIP3    H239355   0.298   7.061   1.673
13138TIP3   OH239356   6.660   0.843   2.591
13138TIP3    H139357   6.641   0.807   2.504
13138TIP3    H239358   6.724   0.912   2.574
13139TIP3   OH239359   8.182   3.688   3.831
13139TIP3    H139360   8.129   3.768   3.832
13139TIP3    H239361   8.258   3.708   3.886
13140TIP3   OH239362   0.866   7.387   3.893
13140TIP3    H139363   0.821   7.364   3.975
13140TIP3    H239364   0.827   7.471   3.867
13141TIP3   OH239365   4.794   3.872   4.745
13141TIP3    H139366   4.831   3.800   4.694
13141TIP3    H239367   4.860   3.942   4.738
13142TIP3   OH239368   7.025   1.660   2.647
13142TIP3    H139369   7.029   1.709   2.565
13142TIP3    H239370   6.931   1.649   2.664
13143TIP3   OH239371   1.117   4.346   1.569
13143TIP3    H139372   1.126   4.271   1.510
13143TIP3    H239373   1.197   4.346   1.621
13144TIP3   OH239374   7.528   4.832   2.442
13144TIP3    H139375   7.515   4.790   2.357
13144TIP3    H239376   7.572   4.915   2.421
13145TIP3   OH239377   7.000   7.647   3.528
13145TIP3    H139378   6.919   7.667   3.481
13145TIP3    H239379   6.990   7.689   3.613
13146TIP3   OH239380   8.230   2.981   6.460
13146TIP3    H139381   8.289   3.043   6.417
13146TIP3    H239382   8.249   2.990   6.554
13147TIP3   OH239383   6.813   3.788   3.682
13147TIP3    H139384   6.797   3.695   3.695
13147TIP3    H239385   6.839   3.795   3.590
13148TIP3   OH239386   1.116   4.509   1.351
13148TIP3    H139387   1.135   4.460   1.431
13148TIP3    H239388   1.202   4.538   1.320
13149TIP3   OH239389   6.769   1.299   6.375
13149TIP3    H139390   6.863   1.293   6.395
13149TIP3    H239391   6.750   1.393   6.381
13150TIP3   OH239392   3.971   0.914   0.211
13150TIP3    H139393   3.982   0.993   0.264
13150TIP3    H239394   3.884   0.881   0.235
13151TIP3   OH239395   2.934   3.463   3.058
13151TIP3    H139396   3.016   3.491   3.018
13151TIP3    H239397   2.947   3.370   3.077
13152TIP3   OH239398   7.883   1.114   1.214
13152TIP3    H139399   7.933   1.194   1.232
13152TIP3    H239400   7.831   1.135   1.137
13153TIP3   OH239401   2.376   0.921   2.469
13153TIP3    H139402   2.340   0.877   2.546
13153TIP3    H239403   2.427   0.994   2.504
13154TIP3   OH239404   1.059   0.655   1.996
13154TIP3    H139405   1.097   0.653   2.083
13154TIP3    H239406   1.061   0.564   1.966
13155TIP3   OH239407   1.045   7.585   5.135
13155TIP3    H139408   1.082   7.602   5.048
13155TIP3    H239409   1.031   7.490   5.136
13156TIP3   OH239410   2.573   1.009   0.318
13156TIP3    H139411   2.545   0.917   0.311
13156TIP3    H239412   2.492   1.058   0.326
13157TIP3   OH239413   0.846   2.068   0.357
13157TIP3    H139414   0.812   2.146   0.401
13157TIP3    H239415   0.798   1.995   0.396
13158TIP3   OH239416   6.891   4.428   4.291
13158TIP3    H139417   6.837   4.470   4.224
13158TIP3    H239418   6.975   4.412   4.249
13159TIP3   OH239419   5.173   5.031   4.547
13159TIP3    H139420   5.202   4.953   4.502
13159TIP3    H239421   5.082   5.043   4.520
13160TIP3   OH239422   4.435   6.948   6.301
13160TIP3    H139423   4.486   6.894   6.241
13160TIP3    H239424   4.393   7.013   6.245
13161TIP3   OH239425   7.505   2.712   4.280
13161TIP3    H139426   7.542   2.654   4.214
13161TIP3    H239427   7.534   2.800   4.253
13162TIP3   OH239428   4.992   2.350   0.128
13162TIP3    H139429   5.065   2.409   0.148
13162TIP3    H239430   4.933   2.359   0.202
13163TIP3   OH239431   1.962   3.882   1.105
13163TIP3    H139432   2.012   3.855   1.027
13163TIP3    H239433   2.030   3.902   1.170
13164TIP3   OH239434   1.837   2.545   3.595
13164TIP3    H139435   1.835   2.549   3.499
13164TIP3    H239436   1.924   2.578   3.618
13165TIP3   OH239437   1.739   2.568   5.696
13165TIP3    H139438   1.735   2.536   5.786
13165TIP3    H239439   1.832   2.561   5.672
13166TIP3   OH239440   2.088   3.372   1.021
13166TIP3    H139441   2.033   3.429   0.967
13166TIP3    H239442   2.083   3.287   0.978
13167TIP3   OH239443   1.605   7.207   4.196
13167TIP3    H139444   1.594   7.224   4.102
13167TIP3    H239445   1.650   7.123   4.200
13168TIP3   OH239446   4.111   2.052   2.820
13168TIP3    H139447   4.047   2.105   2.771
13168TIP3    H239448   4.190   2.106   2.822
13169TIP3   OH239449   0.054   7.330   4.760
13169TIP3    H139450   0.055   7.260   4.695
13169TIP3    H239451  -0.039   7.354   4.768
13170TIP3   OH239452   4.435   7.594   1.741
13170TIP3    H139453   4.343   7.612   1.763
13170TIP3    H239454   4.484   7.656   1.795
13171TIP3   OH239455   5.658   4.582   1.940
13171TIP3    H139456   5.744   4.572   1.899
13171TIP3    H239457   5.675   4.578   2.034
13172TIP3   OH239458   4.597   6.523   0.721
13172TIP3    H139459   4.560   6.461   0.784
13172TIP3    H239460   4.544   6.510   0.642
13173TIP3   OH239461   7.957   1.194   4.014
13173TIP3    H139462   8.024   1.230   3.956
13173TIP3    H239463   7.975   1.100   4.017
13174TIP3   OH239464   1.412   6.031   0.208
13174TIP3    H139465   1.466   5.963   0.247
13174TIP3    H239466   1.451   6.047   0.122
13175TIP3   OH239467   1.610   7.607   4.595
13175TIP3    H139468   1.578   7.680   4.647
13175TIP3    H239469   1.556   7.609   4.515
13176TIP3   OH239470   5.639   0.386   4.028
13176TIP3    H139471   5.614   0.478   4.032
13176TIP3    H239472   5.691   0.372   4.108
13177TIP3   OH239473   2.970   6.181   2.321
13177TIP3    H139474   3.052   6.162   2.367
13177TIP3    H239475   2.904   6.131   2.369
13178TIP3   OH239476   7.304   1.265   3.910
13178TIP3    H139477   7.355   1.330   3.861
13178TIP3    H239478   7.368   1.224   3.969
13179TIP3   OH239479   7.131   4.156   2.135
13179TIP3    H139480   7.071   4.220   2.172
13179TIP3    H239481   7.115   4.076   2.185
13180TIP3   OH239482   4.351   5.060   2.868
13180TIP3    H139483   4.379   4.969   2.865
13180TIP3    H239484   4.426   5.109   2.834
13181TIP3   OH239485   7.913   4.746   3.082
13181TIP3    H139486   7.918   4.651   3.090
13181TIP3    H239487   7.827   4.769   3.118
13182TIP3   OH239488   4.822   7.489   5.761
13182TIP3    H139489   4.789   7.444   5.684
13182TIP3    H239490   4.835   7.420   5.826
13183TIP3   OH239491   6.564   1.950   2.325
13183TIP3    H139492   6.571   1.923   2.417
13183TIP3    H239493   6.576   1.869   2.276
13184TIP3   OH239494   0.215   2.361   4.493
13184TIP3    H139495   0.182   2.296   4.430
13184TIP3    H239496   0.143   2.375   4.554
13185TIP3   OH239497   3.095   0.424   1.094
13185TIP3    H139498   3.076   0.370   1.017
13185TIP3    H239499   3.121   0.509   1.058
13186TIP3   OH239500   0.778   0.279   2.680
13186TIP3    H139501   0.785   0.367   2.718
13186TIP3    H239502   0.689   0.275   2.645
13187TIP3   OH239503   6.410   3.084   1.780
13187TIP3    H139504   6.421   2.990   1.762
13187TIP3    H239505   6.479   3.104   1.843
13188TIP3   OH239506   7.320   2.227   5.446
13188TIP3    H139507   7.258   2.298   5.464
13188TIP3    H239508   7.264   2.152   5.424
13189TIP3   OH239509   1.072   3.607   5.308
13189TIP3    H139510   1.136   3.550   5.349
13189TIP3    H239511   1.054   3.566   5.223
13190TIP3   OH239512   3.920   0.498   2.494
13190TIP3    H139513   3.857   0.427   2.480
13190TIP3    H239514   3.955   0.516   2.407
13191TIP3   OH239515   6.666   6.648   0.726
13191TIP3    H139516   6.756   6.653   0.756
13191TIP3    H239517   6.663   6.571   0.670
13192TIP3   OH239518   1.743   3.525   0.795
13192TIP3    H139519   1.703   3.452   0.841
13192TIP3    H239520   1.678   3.595   0.800
13193TIP3   OH239521   8.066   3.216   4.798
13193TIP3    H139522   7.979   3.179   4.781
13193TIP3    H239523   8.095   3.172   4.878
13194TIP3   OH239524   4.537   1.257   1.457
13194TIP3    H139525   4.624   1.217   1.461
13194TIP3    H239526   4.501   1.245   1.544
13195TIP3   OH239527   6.185   7.321   3.542
13195TIP3    H139528   6.124   7.361   3.480
13195TIP3    H239529   6.132   7.258   3.591
13196TIP3   OH239530   6.777   1.587   1.634
13196TIP3    H139531   6.822   1.621   1.555
13196TIP3    H239532   6.752   1.498   1.611
13197TIP3   OH239533   2.577   4.651   3.137
13197TIP3    H139534   2.519   4.633   3.062
13197TIP3    H239535   2.626   4.570   3.148
13198TIP3   OH239536   0.327   6.304   3.446
13198TIP3    H139537   0.373   6.380   3.410
13198TIP3    H239538   0.250   6.341   3.489
13199TIP3   OH239539   5.696   0.100   5.512
13199TIP3    H139540   5.782   0.087   5.552
13199TIP3    H239541   5.664   0.012   5.494
13200TIP3   OH239542   1.053   4.021   3.110
13200TIP3    H139543   0.983   4.016   3.175
13200TIP3    H239544   1.129   4.054   3.159
13201TIP3   OH239545   1.978   4.448   2.592
13201TIP3    H139546   2.011   4.499   2.665
13201TIP3    H239547   1.944   4.368   2.631
13202TIP3   OH239548   3.326   1.409   1.401
13202TIP3    H139549   3.308   1.415   1.307
13202TIP3    H239550   3.245   1.439   1.442
13203TIP3   OH239551   4.862   5.619   5.849
13203TIP3    H139552   4.785   5.667   5.882
13203TIP3    H239553   4.828   5.532   5.828
13204TIP3   OH239554   6.714   2.975   4.055
13204TIP3    H139555   6.662   2.933   3.986
13204TIP3    H239556   6.660   2.970   4.133
13205TIP3   OH239557   2.646   7.114   5.611
13205TIP3    H139558   2.741   7.123   5.603
13205TIP3    H239559   2.611   7.154   5.531
13206TIP3   OH239560   7.518   3.511   5.327
13206TIP3    H139561   7.490   3.496   5.237
13206TIP3    H239562   7.439   3.500   5.380
13207TIP3   OH239563   5.349   1.341   4.675
13207TIP3    H139564   5.384   1.267   4.724
13207TIP3    H239565   5.254   1.336   4.689
13208TIP3   OH239566   7.068   0.208   3.110
13208TIP3    H139567   7.110   0.253   3.036
13208TIP3    H239568   6.975   0.229   3.101
13209TIP3   OH239569   2.739   4.698   1.467
13209TIP3    H139570   2.765   4.763   1.401
13209TIP3    H239571   2.810   4.634   1.467
13210TIP3   OH239572   6.234   7.355   1.632
13210TIP3    H139573   6.297   7.361   1.703
13210TIP3    H239574   6.149   7.360   1.675
13211TIP3   OH239575   8.077   5.110   4.819
13211TIP3    H139576   7.983   5.118   4.801
13211TIP3    H239577   8.089   5.153   4.904
13212TIP3   OH239578   2.465   5.287   1.839
13212TIP3    H139579   2.508   5.225   1.898
13212TIP3    H239580   2.490   5.373   1.872
13213TIP3   OH239581   0.403   4.081   2.001
13213TIP3    H139582   0.418   4.004   1.946
13213TIP3    H239583   0.330   4.126   1.959
13214TIP3   OH239584   1.430   0.932   2.079
13214TIP3    H139585   1.472   0.950   2.163
13214TIP3    H239586   1.383   1.013   2.057
13215TIP3   OH239587   7.450   2.562   3.105
13215TIP3    H139588   7.503   2.532   3.179
13215TIP3    H239589   7.498   2.638   3.071
13216TIP3   OH239590   3.264   5.184   2.105
13216TIP3    H139591   3.306   5.161   2.022
13216TIP3    H239592   3.172   5.161   2.092
13217TIP3   OH239593   8.101   5.276   6.596
13217TIP3    H139594   8.030   5.214   6.581
13217TIP3    H239595   8.083   5.348   6.536
13218TIP3   OH239596   1.871   6.707   1.854
13218TIP3    H139597   1.846   6.614   1.849
13218TIP3    H239598   1.953   6.713   1.805
13219TIP3   OH239599   6.984   1.874   3.644
13219TIP3    H139600   7.046   1.805   3.667
13219TIP3    H239601   6.960   1.856   3.553
13220TIP3   OH239602   6.134   3.085   4.298
13220TIP3    H139603   6.162   3.152   4.360
13220TIP3    H239604   6.100   3.015   4.353
13221TIP3   OH239605   1.815   7.085   4.796
13221TIP3    H139606   1.885   7.063   4.734
13221TIP3    H239607   1.856   7.144   4.859
13222TIP3   OH239608   1.537   6.891   3.524
13222TIP3    H139609   1.448   6.858   3.511
13222TIP3    H239610   1.571   6.842   3.598
13223TIP3   OH239611   4.458   0.176   5.581
13223TIP3    H139612   4.514   0.204   5.654
13223TIP3    H239613   4.475   0.082   5.572
13224TIP3   OH239614   7.024   0.985   1.678
13224TIP3    H139615   7.089   0.916   1.668
13224TIP3    H239616   7.048   1.051   1.614
13225TIP3   OH239617   5.657   2.550   5.041
13225TIP3    H139618   5.575   2.530   5.085
13225TIP3    H239619   5.689   2.466   5.010
13226TIP3   OH239620   4.025   5.698   3.046
13226TIP3    H139621   4.039   5.786   3.082
13226TIP3    H239622   4.113   5.663   3.033
13227TIP3   OH239623   8.058   5.878   4.676
13227TIP3    H139624   8.131   5.841   4.626
13227TIP3    H239625   8.032   5.955   4.625
13228TIP3   OH239626   3.610   7.484   2.773
13228TIP3    H139627   3.610   7.395   2.738
13228TIP3    H239628   3.522   7.496   2.807
13229TIP3   OH239629   8.147   1.715   1.000
13229TIP3    H139630   8.144   1.648   0.931
13229TIP3    H239631   8.123   1.668   1.080
13230TIP3   OH239632   1.019   0.791   0.504
13230TIP3    H139633   1.036   0.873   0.458
13230TIP3    H239634   0.947   0.750   0.455
13231TIP3   OH239635   0.771   6.611   0.124
13231TIP3    H139636   0.689   6.564   0.107
13231TIP3    H239637   0.820   6.605   0.043
13232TIP3   OH239638   2.168   1.507   4.749
13232TIP3    H139639   2.261   1.498   4.730
13232TIP3    H239640   2.164   1.525   4.843
13233TIP3   OH239641   5.448   1.623   4.669
13233TIP3    H139642   5.465   1.637   4.762
13233TIP3    H239643   5.434   1.529   4.660
13234TIP3   OH239644   4.174   1.982   0.691
13234TIP3    H139645   4.224   1.991   0.610
13234TIP3    H239646   4.159   1.888   0.700
13235TIP3   OH239647   3.765   2.686   4.509
13235TIP3    H139648   3.694   2.651   4.455
13235TIP3    H239649   3.721   2.743   4.572
13236TIP3   OH239650   3.584   1.278   1.122
13236TIP3    H139651   3.618   1.289   1.033
13236TIP3    H239652   3.503   1.228   1.111
13237TIP3   OH239653   2.093   2.632   1.845
13237TIP3    H139654   2.103   2.626   1.940
13237TIP3    H239655   2.180   2.655   1.813
13238TIP3   OH239656   1.021   3.168   1.946
13238TIP3    H139657   1.046   3.223   2.020
13238TIP3    H239658   1.095   3.108   1.934
13239TIP3   OH239659   4.645   3.788   5.211
13239TIP3    H139660   4.669   3.697   5.227
13239TIP3    H239661   4.728   3.831   5.190
13240TIP3   OH239662   5.763   2.930   3.203
13240TIP3    H139663   5.698   2.965   3.264
13240TIP3    H239664   5.836   2.903   3.258
13241TIP3   OH239665   0.866   7.735   6.359
13241TIP3    H139666   0.953   7.699   6.376
13241TIP3    H239667   0.809   7.658   6.351
13242TIP3   OH239668   7.382   0.183   5.963
13242TIP3    H139669   7.467   0.207   5.928
13242TIP3    H239670   7.399   0.166   6.056
13243TIP3   OH239671   3.698   2.651   6.548
13243TIP3    H139672   3.718   2.657   6.641
13243TIP3    H239673   3.623   2.708   6.535
13244TIP3   OH239674   5.487   7.460   1.521
13244TIP3    H139675   5.507   7.541   1.567
13244TIP3    H239676   5.415   7.484   1.462
13245TIP3   OH239677   6.051   0.704   4.377
13245TIP3    H139678   6.046   0.701   4.473
13245TIP3    H239679   5.961   0.693   4.348
13246TIP3   OH239680   7.290   6.427   6.473
13246TIP3    H139681   7.255   6.420   6.562
13246TIP3    H239682   7.376   6.384   6.478
13247TIP3   OH239683   2.541   0.317   5.510
13247TIP3    H139684   2.630   0.297   5.482
13247TIP3    H239685   2.519   0.249   5.573
13248TIP3   OH239686   5.302   5.404   1.841
13248TIP3    H139687   5.386   5.429   1.802
13248TIP3    H239688   5.289   5.314   1.814
13249TIP3   OH239689   4.297   7.408   4.622
13249TIP3    H139690   4.383   7.407   4.665
13249TIP3    H239691   4.235   7.398   4.694
13250TIP3   OH239692   6.923   5.799   5.657
13250TIP3    H139693   6.871   5.719   5.663
13250TIP3    H239694   6.973   5.790   5.576
13251TIP3   OH239695   3.887   3.673   0.624
13251TIP3    H139696   3.966   3.700   0.672
13251TIP3    H239697   3.920   3.642   0.540
13252TIP3   OH239698   7.031   7.553   6.156
13252TIP3    H139699   7.066   7.631   6.114
13252TIP3    H239700   6.936   7.562   6.149
13253TIP3   OH239701   4.137   1.714   4.563
13253TIP3    H139702   4.090   1.789   4.524
13253TIP3    H239703   4.226   1.722   4.530
13254TIP3   OH239704   6.992   1.019   0.636
13254TIP3    H139705   6.969   0.934   0.675
13254TIP3    H239706   6.951   1.084   0.693
13255TIP3   OH239707   4.236   4.798   2.255
13255TIP3    H139708   4.219   4.720   2.309
13255TIP3    H239709   4.149   4.832   2.235
13256TIP3   OH239710   1.466   7.365   5.026
13256TIP3    H139711   1.434   7.380   4.937
13256TIP3    H239712   1.412   7.293   5.060
13257TIP3   OH239713   3.405   0.988   3.867
13257TIP3    H139714   3.350   1.056   3.906
13257TIP3    H239715   3.388   0.910   3.920
13258TIP3   OH239716   1.492   4.905   0.226
13258TIP3    H139717   1.528   4.848   0.294
13258TIP3    H239718   1.401   4.878   0.217
13259TIP3   OH239719   3.597   3.450   2.766
13259TIP3    H139720   3.588   3.545   2.774
13259TIP3    H239721   3.571   3.416   2.852
13260TIP3   OH239722   5.967   4.549   4.596
13260TIP3    H139723   5.926   4.541   4.682
13260TIP3    H239724   6.051   4.504   4.605
13261TIP3   OH239725   8.284   0.564   2.439
13261TIP3    H139726   8.237   0.646   2.456
13261TIP3    H239727   8.308   0.568   2.347
13262TIP3   OH239728   5.810   2.600   4.635
13262TIP3    H139729   5.718   2.592   4.660
13262TIP3    H239730   5.809   2.643   4.550
13263TIP3   OH239731   2.145   0.594   6.654
13263TIP3    H139732   2.130   0.517   6.708
13263TIP3    H239733   2.065   0.604   6.602
13264TIP3   OH239734   6.452   4.227   6.564
13264TIP3    H139735   6.366   4.186   6.558
13264TIP3    H239736   6.490   4.190   6.644
13265TIP3   OH239737   1.720   6.162   0.354
13265TIP3    H139738   1.796   6.213   0.381
13265TIP3    H239739   1.742   6.131   0.266
13266TIP3   OH239740   5.183   2.380   1.369
13266TIP3    H139741   5.190   2.463   1.322
13266TIP3    H239742   5.099   2.385   1.413
13267TIP3   OH239743   6.121   5.505   5.361
13267TIP3    H139744   6.171   5.527   5.282
13267TIP3    H239745   6.186   5.510   5.432
13268TIP3   OH239746   7.517   6.058   0.997
13268TIP3    H139747   7.476   6.074   1.082
13268TIP3    H239748   7.494   5.967   0.976
13269TIP3   OH239749   5.711   2.588   0.730
13269TIP3    H139750   5.633   2.598   0.785
13269TIP3    H239751   5.781   2.568   0.791
13270TIP3   OH239752   5.462   6.043   6.416
13270TIP3    H139753   5.404   6.061   6.342
13270TIP3    H239754   5.406   6.054   6.493
13271TIP3   OH239755   4.387   3.832   0.874
13271TIP3    H139756   4.476   3.819   0.907
13271TIP3    H239757   4.398   3.876   0.790
13272TIP3   OH239758   1.202   6.351   0.066
13272TIP3    H139759   1.163   6.428   0.024
13272TIP3    H239760   1.161   6.276   0.022
13273TIP3   OH239761   8.074   5.006   1.752
13273TIP3    H139762   8.168   5.020   1.758
13273TIP3    H239763   8.058   4.989   1.659
13274TIP3   OH239764   4.869   3.757   0.688
13274TIP3    H139765   4.777   3.735   0.704
13274TIP3    H239766   4.875   3.850   0.711
13275TIP3   OH239767   6.160   0.174   2.635
13275TIP3    H139768   6.213   0.144   2.562
13275TIP3    H239769   6.084   0.216   2.595
13276TIP3   OH239770   5.798   0.125   5.994
13276TIP3    H139771   5.818   0.062   6.063
13276TIP3    H239772   5.720   0.091   5.951
13277TIP3   OH239773   2.554   7.790   5.392
13277TIP3    H139774   2.533   7.870   5.344
13277TIP3    H239775   2.481   7.731   5.375
13278TIP3   OH239776   1.983   6.076   2.749
13278TIP3    H139777   1.965   6.090   2.842
13278TIP3    H239778   2.047   6.005   2.748
13279TIP3   OH239779   8.112   1.220   2.825
13279TIP3    H139780   8.159   1.144   2.858
13279TIP3    H239781   8.061   1.187   2.752
13280TIP3   OH239782   2.610   7.394   3.161
13280TIP3    H139783   2.543   7.335   3.196
13280TIP3    H239784   2.635   7.450   3.235
13281TIP3   OH239785   6.433   2.838   1.686
13281TIP3    H139786   6.369   2.771   1.710
13281TIP3    H239787   6.504   2.789   1.644
13282TIP3   OH239788   2.359   6.942   4.713
13282TIP3    H139789   2.305   6.866   4.688
13282TIP3    H239790   2.380   6.984   4.630
13283TIP3   OH239791   4.999   2.395   2.308
13283TIP3    H139792   5.020   2.438   2.226
13283TIP3    H239793   4.904   2.405   2.317
13284TIP3   OH239794   6.076   4.797   0.675
13284TIP3    H139795   6.133   4.828   0.605
13284TIP3    H239796   6.134   4.790   0.751
13285TIP3   OH239797   4.242   5.746   5.310
13285TIP3    H139798   4.191   5.696   5.374
13285TIP3    H239799   4.299   5.681   5.269
13286TIP3   OH239800   0.342   5.760   3.429
13286TIP3    H139801   0.288   5.839   3.425
13286TIP3    H239802   0.346   5.739   3.522
13287TIP3   OH239803   2.313   5.350   5.977
13287TIP3    H139804   2.293   5.326   5.887
13287TIP3    H239805   2.249   5.303   6.030
13288TIP3   OH239806   5.450   0.945   2.769
13288TIP3    H139807   5.416   0.872   2.821
13288TIP3    H239808   5.372   0.993   2.741
13289TIP3   OH239809   5.627   1.556   2.177
13289TIP3    H139810   5.688   1.629   2.183
13289TIP3    H239811   5.673   1.491   2.125
13290TIP3   OH239812   7.357   6.286   3.991
13290TIP3    H139813   7.437   6.339   3.988
13290TIP3    H239814   7.389   6.196   3.992
13291TIP3   OH239815   1.930   7.425   6.074
13291TIP3    H139816   1.961   7.507   6.111
13291TIP3    H239817   2.003   7.393   6.021
13292TIP3   OH239818   7.784   3.717   0.179
13292TIP3    H139819   7.769   3.693   0.271
13292TIP3    H239820   7.713   3.778   0.159
13293TIP3   OH239821   2.377   4.686   5.072
13293TIP3    H139822   2.394   4.641   5.155
13293TIP3    H239823   2.322   4.626   5.022
13294TIP3   OH239824   7.552   4.509   2.265
13294TIP3    H139825   7.611   4.575   2.230
13294TIP3    H239826   7.531   4.452   2.191
13295TIP3   OH239827   3.936   1.717   4.975
13295TIP3    H139828   3.993   1.773   4.923
13295TIP3    H239829   3.995   1.664   5.029
13296TIP3   OH239830   2.183   1.541   5.022
13296TIP3    H139831   2.115   1.570   5.083
13296TIP3    H239832   2.265   1.573   5.060
13297TIP3   OH239833   1.578   1.850   1.702
13297TIP3    H139834   1.653   1.871   1.757
13297TIP3    H239835   1.608   1.870   1.613
13298TIP3   OH239836   4.471   5.329   3.082
13298TIP3    H139837   4.515   5.321   2.998
13298TIP3    H239838   4.453   5.238   3.109
13299TIP3   OH239839   1.539   7.781   4.782
13299TIP3    H139840   1.520   7.736   4.864
13299TIP3    H239841   1.545   7.874   4.806
13300TIP3   OH239842   0.364   4.570   6.476
13300TIP3    H139843   0.301   4.641   6.489
13300TIP3    H239844   0.423   4.602   6.408
13301TIP3   OH239845   4.913   6.975   5.745
13301TIP3    H139846   4.924   6.890   5.703
13301TIP3    H239847   4.828   7.006   5.714
13302TIP3   OH239848   7.731   2.397   5.136
13302TIP3    H139849   7.780   2.348   5.202
13302TIP3    H239850   7.665   2.445   5.186
13303TIP3   OH239851   3.056   2.362   2.645
13303TIP3    H139852   3.074   2.357   2.551
13303TIP3    H239853   2.995   2.436   2.654
13304TIP3   OH239854   3.996   5.103   3.252
13304TIP3    H139855   3.915   5.054   3.237
13304TIP3    H239856   3.982   5.187   3.208
13305TIP3   OH239857   7.208   0.408   6.647
13305TIP3    H139858   7.236   0.499   6.631
13305TIP3    H239859   7.130   0.397   6.593
13306TIP3   OH239860   1.928   3.625   1.800
13306TIP3    H139861   1.981   3.579   1.736
13306TIP3    H239862   1.890   3.556   1.854
13307TIP3   OH239863   2.084   3.771   2.639
13307TIP3    H139864   2.038   3.696   2.678
13307TIP3    H239865   2.099   3.831   2.712
13308TIP3   OH239866   7.534   1.473   5.851
13308TIP3    H139867   7.480   1.394   5.847
13308TIP3    H239868   7.572   1.481   5.764
13309TIP3   OH239869   2.122   0.707   4.099
13309TIP3    H139870   2.147   0.626   4.054
13309TIP3    H239871   2.177   0.774   4.059
13310TIP3   OH239872   1.884   4.678   0.026
13310TIP3    H139873   1.934   4.643  -0.048
13310TIP3    H239874   1.947   4.734   0.073
13311TIP3   OH239875   5.020   4.909   5.866
13311TIP3    H139876   4.963   4.957   5.806
13311TIP3    H239877   4.959   4.866   5.927
13312TIP3   OH239878   3.702   4.855   3.537
13312TIP3    H139879   3.796   4.870   3.532
13312TIP3    H239880   3.680   4.869   3.629
13313TIP3   OH239881   4.888   0.262   6.749
13313TIP3    H139882   4.794   0.251   6.730
13313TIP3    H239883   4.916   0.333   6.692
13314TIP3   OH239884   1.105   1.159   5.883
13314TIP3    H139885   1.039   1.228   5.876
13314TIP3    H239886   1.135   1.164   5.974
13315TIP3   OH239887   0.316   7.242   4.361
13315TIP3    H139888   0.292   7.173   4.298
13315TIP3    H239889   0.405   7.266   4.336
13316TIP3   OH239890   0.161   4.693   1.300
13316TIP3    H139891   0.253   4.721   1.298
13316TIP3    H239892   0.119   4.756   1.359
13317TIP3   OH239893   0.785   1.109   4.290
13317TIP3    H139894   0.836   1.040   4.333
13317TIP3    H239895   0.850   1.170   4.256
13318TIP3   OH239896   1.677   5.593   0.381
13318TIP3    H139897   1.656   5.677   0.340
13318TIP3    H239898   1.670   5.529   0.310
13319TIP3   OH239899   6.722   3.942   2.258
13319TIP3    H139900   6.628   3.923   2.256
13319TIP3    H239901   6.760   3.866   2.301
13320TIP3   OH239902   2.248   2.234   6.376
13320TIP3    H139903   2.311   2.249   6.447
13320TIP3    H239904   2.164   2.223   6.421
13321TIP3   OH239905   0.305   1.082   2.130
13321TIP3    H139906   0.263   0.998   2.148
13321TIP3    H239907   0.393   1.058   2.099
13322TIP3   OH239908   2.612   3.546   1.632
13322TIP3    H139909   2.538   3.563   1.690
13322TIP3    H239910   2.639   3.456   1.652
13323TIP3   OH239911   6.181   1.608   0.135
13323TIP3    H139912   6.232   1.656   0.070
13323TIP3    H239913   6.123   1.674   0.174
13324TIP3   OH239914   3.072   2.363   2.363
13324TIP3    H139915   3.145   2.418   2.336
13324TIP3    H239916   3.003   2.380   2.299
13325TIP3   OH239917   6.360   5.832   2.829
13325TIP3    H139918   6.408   5.766   2.880
13325TIP3    H239919   6.281   5.849   2.881
13326TIP3   OH239920   7.752   4.194   2.319
13326TIP3    H139921   7.703   4.128   2.271
13326TIP3    H239922   7.686   4.241   2.371
13327TIP3   OH239923   7.781   6.073   5.234
13327TIP3    H139924   7.798   5.987   5.197
13327TIP3    H239925   7.697   6.064   5.279
13328TIP3   OH239926   2.211   6.671   0.543
13328TIP3    H139927   2.191   6.604   0.477
13328TIP3    H239928   2.248   6.622   0.616
13329TIP3   OH239929   0.187   4.754   0.917
13329TIP3    H139930   0.236   4.699   0.978
13329TIP3    H239931   0.171   4.697   0.841
13330TIP3   OH239932   3.313   7.532   6.391
13330TIP3    H139933   3.314   7.575   6.305
13330TIP3    H239934   3.329   7.603   6.453
13331TIP3   OH239935   0.089   3.296   3.804
13331TIP3    H139936   0.091   3.210   3.846
13331TIP3    H239937   0.039   3.351   3.865
13332TIP3   OH239938   2.493   2.150   4.149
13332TIP3    H139939   2.484   2.110   4.062
13332TIP3    H239940   2.503   2.076   4.208
13333TIP3   OH239941   0.144   5.238   2.528
13333TIP3    H139942   0.171   5.303   2.593
13333TIP3    H239943   0.189   5.262   2.448
13334TIP3   OH239944   5.090   5.112   1.378
13334TIP3    H139945   5.032   5.054   1.428
13334TIP3    H239946   5.077   5.198   1.418
13335TIP3   OH239947   0.529   1.801   4.719
13335TIP3    H139948   0.584   1.879   4.721
13335TIP3    H239949   0.555   1.751   4.797
13336TIP3   OH239950   0.933   5.934   1.621
13336TIP3    H139951   1.019   5.956   1.655
13336TIP3    H239952   0.896   5.874   1.687
13337TIP3   OH239953   6.425   1.123   0.163
13337TIP3    H139954   6.342   1.165   0.184
13337TIP3    H239955   6.424   1.113   0.067
13338TIP3   OH239956   0.505   1.529   4.107
13338TIP3    H139957   0.570   1.559   4.044
13338TIP3    H239958   0.534   1.440   4.129
13339TIP3   OH239959   4.276   5.627   0.558
13339TIP3    H139960   4.251   5.585   0.476
13339TIP3    H239961   4.334   5.699   0.531
13340TIP3   OH239962   7.860   4.938   0.318
13340TIP3    H139963   7.831   5.023   0.350
13340TIP3    H239964   7.903   4.957   0.234
13341TIP3   OH239965   7.572   3.275   1.566
13341TIP3    H139966   7.544   3.204   1.624
13341TIP3    H239967   7.539   3.354   1.608
13342TIP3   OH239968   7.229   6.422   3.052
13342TIP3    H139969   7.210   6.478   3.127
13342TIP3    H239970   7.184   6.340   3.072
13343TIP3   OH239971   5.398   4.578   6.312
13343TIP3    H139972   5.319   4.609   6.269
13343TIP3    H239973   5.465   4.643   6.291
13344TIP3   OH239974   2.375   3.830   4.502
13344TIP3    H139975   2.299   3.807   4.449
13344TIP3    H239976   2.379   3.761   4.569
13345TIP3   OH239977   7.618   0.288   5.894
13345TIP3    H139978   7.701   0.290   5.846
13345TIP3    H239979   7.605   0.378   5.924
13346TIP3   OH239980   0.969   2.245   6.572
13346TIP3    H139981   0.962   2.295   6.490
13346TIP3    H239982   1.025   2.297   6.628
13347TIP3   OH239983   4.119   5.741   2.464
13347TIP3    H139984   4.162   5.751   2.379
13347TIP3    H239985   4.177   5.684   2.514
13348TIP3   OH239986   1.663   4.624   2.838
13348TIP3    H139987   1.667   4.680   2.916
13348TIP3    H239988   1.621   4.543   2.868
13349TIP3   OH239989   3.476   5.601   0.037
13349TIP3    H139990   3.461   5.532   0.101
13349TIP3    H239991   3.554   5.646   0.069
13350TIP3   OH239992   0.733   0.665   1.811
13350TIP3    H139993   0.770   0.724   1.876
13350TIP3    H239994   0.639   0.671   1.823
13351TIP3   OH239995   5.875   5.246   6.025
13351TIP3    H139996   5.949   5.294   6.063
13351TIP3    H239997   5.835   5.309   5.964
13352TIP3   OH239998   6.726   7.732   5.821
13352TIP3    H139999   6.666   7.784   5.767
13352TIP3    H240000   6.811   7.774   5.809
13353TIP3   OH240001   5.903   3.583   4.627
13353TIP3    H140002   5.885   3.540   4.544
13353TIP3    H240003   5.980   3.538   4.662
13354TIP3   OH240004   6.654   4.203   2.988
13354TIP3    H140005   6.567   4.188   3.024
13354TIP3    H240006   6.705   4.127   3.018
13355TIP3   OH240007   0.144   1.969   6.670
13355TIP3    H140008   0.236   1.990   6.683
13355TIP3    H240009   0.097   2.030   6.728
13356TIP3   OH240010   2.972   5.227   3.232
13356TIP3    H140011   2.942   5.314   3.205
13356TIP3    H240012   3.013   5.241   3.317
13357TIP3   OH240013   7.387   3.090   6.109
13357TIP3    H140014   7.461   3.076   6.051
13357TIP3    H240015   7.424   3.087   6.197
13358TIP3   OH240016   2.198   2.827   6.410
13358TIP3    H140017   2.211   2.734   6.429
13358TIP3    H240018   2.103   2.837   6.406
13359TIP3   OH240019   3.231   0.000   6.333
13359TIP3    H140020   3.229   0.095   6.336
13359TIP3    H240021   3.140  -0.026   6.322
13360TIP3   OH240022   3.137   3.257   4.415
13360TIP3    H140023   3.145   3.328   4.351
13360TIP3    H240024   3.090   3.297   4.489
13361TIP3   OH240025   7.854   3.560   2.614
13361TIP3    H140026   7.904   3.637   2.587
13361TIP3    H240027   7.853   3.503   2.537
13362TIP3   OH240028   6.247   5.735   4.877
13362TIP3    H140029   6.341   5.716   4.884
13362TIP3    H240030   6.203   5.655   4.906
13363TIP3   OH240031   0.602   0.112   0.155
13363TIP3    H140032   0.643   0.138   0.238
13363TIP3    H240033   0.547   0.037   0.179
13364TIP3   OH240034   6.077   2.256   5.248
13364TIP3    H140035   5.999   2.207   5.274
13364TIP3    H240036   6.130   2.193   5.198
13365TIP3   OH240037   5.927   5.240   2.859
13365TIP3    H140038   6.018   5.254   2.835
13365TIP3    H240039   5.930   5.170   2.925
13366TIP3   OH240040   7.885   6.340   5.776
13366TIP3    H140041   7.825   6.277   5.735
13366TIP3    H240042   7.838   6.423   5.773
13367TIP3   OH240043   5.394   4.462   2.406
13367TIP3    H140044   5.398   4.541   2.352
13367TIP3    H240045   5.374   4.493   2.494
13368TIP3   OH240046   6.080   3.280   5.989
13368TIP3    H140047   6.132   3.278   5.909
13368TIP3    H240048   5.989   3.281   5.958
13369TIP3   OH240049   4.056   7.383   6.772
13369TIP3    H140050   4.085   7.464   6.729
13369TIP3    H240051   4.022   7.329   6.702
13370TIP3   OH240052   6.885   2.706   1.935
13370TIP3    H140053   6.842   2.633   1.892
13370TIP3    H240054   6.906   2.767   1.864
13371TIP3   OH240055   3.711   2.147   1.473
13371TIP3    H140056   3.705   2.105   1.559
13371TIP3    H240057   3.667   2.231   1.483
13372TIP3   OH240058   6.499   5.990   3.492
13372TIP3    H140059   6.588   6.017   3.471
13372TIP3    H240060   6.453   5.991   3.408
13373TIP3   OH240061   2.543   1.090   3.963
13373TIP3    H140062   2.479   1.116   3.897
13373TIP3    H240063   2.568   1.001   3.939
13374TIP3   OH240064   2.923   5.146   2.970
13374TIP3    H140065   2.871   5.069   2.950
13374TIP3    H240066   2.934   5.143   3.065
13375TIP3   OH240067   1.495   7.225   3.241
13375TIP3    H140068   1.567   7.163   3.255
13375TIP3    H240069   1.416   7.175   3.264
13376TIP3   OH240070   3.589   5.019   5.766
13376TIP3    H140071   3.544   5.027   5.682
13376TIP3    H240072   3.537   4.955   5.815
13377TIP3   OH240073   2.361   0.900   5.105
13377TIP3    H140074   2.388   0.986   5.139
13377TIP3    H240075   2.440   0.865   5.062
13378TIP3   OH240076   6.433   6.693   4.142
13378TIP3    H140077   6.468   6.780   4.119
13378TIP3    H240078   6.432   6.645   4.059
13379TIP3   OH240079   0.791   3.034   2.989
13379TIP3    H140080   0.716   2.976   3.007
13379TIP3    H240081   0.786   3.101   3.057
13380TIP3   OH240082   1.823   3.049   6.234
13380TIP3    H140083   1.744   3.028   6.186
13380TIP3    H240084   1.798   3.043   6.326
13381TIP3   OH240085   5.025   5.965   5.712
13381TIP3    H140086   5.013   5.966   5.807
13381TIP3    H240087   4.979   5.886   5.683
13382TIP3   OH240088   7.062   7.125   3.402
13382TIP3    H140089   6.998   7.115   3.473
13382TIP3    H240090   7.024   7.076   3.329
13383TIP3   OH240091   4.614   7.579   5.156
13383TIP3    H140092   4.647   7.574   5.066
13383TIP3    H240093   4.538   7.637   5.150
13384TIP3   OH240094   1.647   2.260   1.476
13384TIP3    H140095   1.658   2.234   1.567
13384TIP3    H240096   1.710   2.206   1.428
13385TIP3   OH240097   4.264   7.300   2.319
13385TIP3    H140098   4.317   7.342   2.251
13385TIP3    H240099   4.307   7.324   2.401
13386TIP3   OH240100   4.306   2.960   1.359
13386TIP3    H140101   4.256   2.966   1.278
13386TIP3    H240102   4.292   3.043   1.403
13387TIP3   OH240103   2.851   0.996   4.695
13387TIP3    H140104   2.882   1.085   4.678
13387TIP3    H240105   2.778   1.007   4.756
13388TIP3   OH240106   2.121   5.556   6.334
13388TIP3    H140107   2.056   5.544   6.403
13388TIP3    H240108   2.137   5.650   6.333
13389TIP3   OH240109   7.543   2.627   5.598
13389TIP3    H140110   7.457   2.656   5.568
13389TIP3    H240111   7.563   2.684   5.673
13390TIP3   OH240112   2.891   1.967   0.816
13390TIP3    H140113   2.872   2.005   0.730
13390TIP3    H240114   2.970   1.916   0.802
13391TIP3   OH240115   4.805   4.844   2.534
13391TIP3    H140116   4.740   4.892   2.584
13391TIP3    H240117   4.753   4.790   2.473
13392TIP3   OH240118   7.274   2.882   3.237
13392TIP3    H140119   7.193   2.854   3.194
13392TIP3    H240120   7.265   2.977   3.246
13393TIP3   OH240121   4.365   5.727   6.537
13393TIP3    H140122   4.388   5.761   6.623
13393TIP3    H240123   4.400   5.638   6.535
13394TIP3   OH240124   5.708   4.027   3.666
13394TIP3    H140125   5.673   4.066   3.586
13394TIP3    H240126   5.631   4.018   3.723
13395TIP3   OH240127   0.321   0.301   5.048
13395TIP3    H140128   0.342   0.288   4.956
13395TIP3    H240129   0.377   0.374   5.075
13396TIP3   OH240130   0.728   3.409   4.809
13396TIP3    H140131   0.773   3.471   4.867
13396TIP3    H240132   0.654   3.377   4.860
13397TIP3   OH240133   2.196   6.564   1.467
13397TIP3    H140134   2.232   6.560   1.378
13397TIP3    H240135   2.170   6.655   1.478
13398TIP3   OH240136   2.393   2.569   2.753
13398TIP3    H140137   2.338   2.493   2.734
13398TIP3    H240138   2.454   2.538   2.820
13399TIP3   OH240139   6.699   3.532   0.170
13399TIP3    H140140   6.789   3.562   0.154
13399TIP3    H240141   6.706   3.472   0.244
13400TIP3   OH240142   6.045   0.571   6.455
13400TIP3    H140143   6.004   0.656   6.466
13400TIP3    H240144   5.979   0.508   6.483
13401TIP3   OH240145   3.564   6.852   4.443
13401TIP3    H140146   3.604   6.939   4.434
13401TIP3    H240147   3.638   6.792   4.446
13402TIP3   OH240148   2.279   5.901   1.524
13402TIP3    H140149   2.330   5.977   1.552
13402TIP3    H240150   2.339   5.827   1.532
13403TIP3   OH240151   0.903   0.827   0.788
13403TIP3    H140152   0.913   0.813   0.693
13403TIP3    H240153   0.855   0.909   0.795
13404TIP3   OH240154   7.196   2.380   2.674
13404TIP3    H140155   7.120   2.356   2.728
13404TIP3    H240156   7.235   2.454   2.719
13405TIP3   OH240157   7.189   5.152   2.724
13405TIP3    H140158   7.250   5.121   2.791
13405TIP3    H240159   7.163   5.074   2.676
13406TIP3   OH240160   6.822   0.404   3.740
13406TIP3    H140161   6.740   0.357   3.726
13406TIP3    H240162   6.796   0.484   3.786
13407TIP3   OH240163   5.943   3.376   6.266
13407TIP3    H140164   5.875   3.321   6.229
13407TIP3    H240165   6.007   3.314   6.302
13408TIP3   OH240166   4.048   4.774   0.606
13408TIP3    H140167   4.089   4.838   0.548
13408TIP3    H240168   3.994   4.826   0.665
13409TIP3   OH240169   3.004   1.340   1.072
13409TIP3    H140170   2.977   1.353   0.981
13409TIP3    H240171   2.993   1.247   1.088
13410TIP3   OH240172   3.799   4.878   2.884
13410TIP3    H140173   3.768   4.798   2.840
13410TIP3    H240174   3.862   4.916   2.823
13411TIP3   OH240175   7.011   6.106   5.889
13411TIP3    H140176   7.086   6.051   5.910
13411TIP3    H240177   6.999   6.096   5.794
13412TIP3   OH240178   5.495   2.483   6.395
13412TIP3    H140179   5.425   2.506   6.334
13412TIP3    H240180   5.575   2.510   6.351
13413TIP3   OH240181   3.714   3.054   4.360
13413TIP3    H140182   3.790   3.022   4.409
13413TIP3    H240183   3.677   2.975   4.320
13414TIP3   OH240184   0.944   4.613   5.365
13414TIP3    H140185   0.991   4.534   5.337
13414TIP3    H240186   0.939   4.667   5.287
13415TIP3   OH240187   7.306   2.895   1.036
13415TIP3    H140188   7.321   2.920   1.127
13415TIP3    H240189   7.392   2.897   0.995
13416TIP3   OH240190   5.318   4.621   1.562
13416TIP3    H140191   5.262   4.679   1.614
13416TIP3    H240192   5.307   4.653   1.472
13417TIP3   OH240193   6.120   5.062   3.184
13417TIP3    H140194   6.118   5.157   3.175
13417TIP3    H240195   6.212   5.043   3.206
13418TIP3   OH240196   2.309   7.518   0.152
13418TIP3    H140197   2.220   7.506   0.185
13418TIP3    H240198   2.354   7.566   0.222
13419TIP3   OH240199   7.605   0.645   2.312
13419TIP3    H140200   7.590   0.658   2.219
13419TIP3    H240201   7.561   0.562   2.332
13420TIP3   OH240202   4.751   0.439   4.731
13420TIP3    H140203   4.833   0.390   4.741
13420TIP3    H240204   4.776   0.518   4.684
13421TIP3   OH240205   5.355   3.159   0.003
13421TIP3    H140206   5.443   3.173   0.039
13421TIP3    H240207   5.329   3.073   0.037
13422TIP3   OH240208   6.428   4.952   6.797
13422TIP3    H140209   6.424   4.865   6.757
13422TIP3    H240210   6.516   4.983   6.777
13423TIP3   OH240211   6.988   0.675   2.357
13423TIP3    H140212   7.071   0.699   2.316
13423TIP3    H240213   6.949   0.611   2.298
13424TIP3   OH240214   7.523   4.644   3.151
13424TIP3    H140215   7.439   4.652   3.195
13424TIP3    H240216   7.586   4.632   3.222
13425TIP3   OH240217   3.082   5.074   6.529
13425TIP3    H140218   2.999   5.082   6.484
13425TIP3    H240219   3.129   5.005   6.481
13426TIP3   OH240220   3.714   1.458   2.396
13426TIP3    H140221   3.673   1.507   2.467
13426TIP3    H240222   3.712   1.518   2.321
13427TIP3   OH240223   0.846   3.329   3.116
13427TIP3    H140224   0.931   3.310   3.155
13427TIP3    H240225   0.865   3.388   3.043
13428TIP3   OH240226   1.305   4.886   2.300
13428TIP3    H140227   1.319   4.964   2.355
13428TIP3    H240228   1.365   4.899   2.226
13429TIP3   OH240229   7.244   7.592   0.703
13429TIP3    H140230   7.217   7.521   0.762
13429TIP3    H240231   7.162   7.633   0.676
13430TIP3   OH240232   7.957   1.860   0.726
13430TIP3    H140233   7.956   1.781   0.671
13430TIP3    H240234   8.019   1.918   0.682
13431TIP3   OH240235   8.091   2.911   0.223
13431TIP3    H140236   8.052   2.999   0.224
13431TIP3    H240237   8.181   2.924   0.252
13432TIP3   OH240238   6.841   3.858   0.824
13432TIP3    H140239   6.747   3.871   0.832
13432TIP3    H240240   6.879   3.945   0.835
13433TIP3   OH240241  -0.046   5.484   3.558
13433TIP3    H140242  -0.137   5.454   3.559
13433TIP3    H240243  -0.016   5.471   3.648
13434TIP3   OH240244   5.537   6.795   5.545
13434TIP3    H140245   5.503   6.748   5.469
13434TIP3    H240246   5.505   6.885   5.533
13435TIP3   OH240247   7.478   3.364   4.166
13435TIP3    H140248   7.541   3.370   4.095
13435TIP3    H240249   7.503   3.286   4.214
13436TIP3   OH240250   3.227   2.564   6.407
13436TIP3    H140251   3.185   2.651   6.404
13436TIP3    H240252   3.261   2.552   6.318
13437TIP3   OH240253   6.642   7.424   3.479
13437TIP3    H140254   6.736   7.439   3.472
13437TIP3    H240255   6.633   7.341   3.525
13438TIP3   OH240256   4.475   1.524   0.963
13438TIP3    H140257   4.397   1.536   1.018
13438TIP3    H240258   4.443   1.535   0.874
13439TIP3   OH240259   7.286   2.887   2.686
13439TIP3    H140260   7.378   2.908   2.703
13439TIP3    H240261   7.251   2.967   2.646
13440TIP3   OH240262   0.097   3.761   3.608
13440TIP3    H140263   0.050   3.678   3.612
13440TIP3    H240264   0.189   3.736   3.618
13441TIP3   OH240265   1.401   4.664   4.016
13441TIP3    H140266   1.336   4.617   3.964
13441TIP3    H240267   1.388   4.756   3.993
13442TIP3   OH240268   7.801   3.989   3.153
13442TIP3    H140269   7.707   4.003   3.145
13442TIP3    H240270   7.818   3.909   3.103
13443TIP3   OH240271   4.108   1.639   3.359
13443TIP3    H140272   4.152   1.555   3.370
13443TIP3    H240273   4.150   1.678   3.282
13444TIP3   OH240274   5.940   2.786   2.868
13444TIP3    H140275   6.004   2.717   2.854
13444TIP3    H240276   5.974   2.836   2.943
13445TIP3   OH240277   6.476   1.466   2.427
13445TIP3    H140278   6.464   1.449   2.334
13445TIP3    H240279   6.509   1.383   2.463
13446TIP3   OH240280   6.081   4.568   1.545
13446TIP3    H140281   6.068   4.473   1.542
13446TIP3    H240282   6.000   4.603   1.508
13447TIP3   OH240283   6.958   2.873   1.714
13447TIP3    H140284   7.035   2.904   1.665
13447TIP3    H240285   6.907   2.824   1.649
13448TIP3   OH240286   2.063   1.754   4.349
13448TIP3    H140287   2.135   1.691   4.351
13448TIP3    H240288   2.027   1.752   4.438
13449TIP3   OH240289   4.850   6.398   0.704
13449TIP3    H140290   4.892   6.369   0.785
13449TIP3    H240291   4.765   6.433   0.733
13450TIP3   OH240292   2.277   3.324   2.081
13450TIP3    H140293   2.361   3.366   2.097
13450TIP3    H240294   2.293   3.265   2.007
13451TIP3   OH240295   3.557   7.871   2.454
13451TIP3    H140296   3.603   7.810   2.512
13451TIP3    H240297   3.554   7.827   2.370
13452TIP3   OH240298   6.358   3.874   3.713
13452TIP3    H140299   6.264   3.861   3.704
13452TIP3    H240300   6.395   3.786   3.718
13453TIP3   OH240301   4.272   3.145   2.035
13453TIP3    H140302   4.273   3.219   2.095
13453TIP3    H240303   4.346   3.091   2.062
13454TIP3   OH240304   4.492   0.817   3.298
13454TIP3    H140305   4.444   0.782   3.223
13454TIP3    H240306   4.527   0.740   3.342
13455TIP3   OH240307   2.352   4.703   0.870
13455TIP3    H140308   2.406   4.774   0.835
13455TIP3    H240309   2.405   4.625   0.858
13456TIP3   OH240310   3.048   7.126   2.727
13456TIP3    H140311   2.990   7.185   2.775
13456TIP3    H240312   3.122   7.112   2.787
13457TIP3   OH240313   1.625   0.635   2.964
13457TIP3    H140314   1.629   0.684   2.882
13457TIP3    H240315   1.566   0.686   3.020
13458TIP3   OH240316   2.862   3.027   0.683
13458TIP3    H140317   2.783   2.975   0.696
13458TIP3    H240318   2.890   3.006   0.593
13459TIP3   OH240319   6.971   1.248   2.439
13459TIP3    H140320   7.040   1.194   2.400
13459TIP3    H240321   6.908   1.262   2.368
13460TIP3   OH240322   5.043   7.644   4.718
13460TIP3    H140323   5.016   7.553   4.731
13460TIP3    H240324   5.130   7.648   4.758
13461TIP3   OH240325   7.986   0.901   0.536
13461TIP3    H140326   8.050   0.955   0.582
13461TIP3    H240327   7.942   0.961   0.476
13462TIP3   OH240328   5.770   1.979   2.683
13462TIP3    H140329   5.771   1.973   2.779
13462TIP3    H240330   5.819   1.902   2.654
13463TIP3   OH240331   7.554   1.945   4.317
13463TIP3    H140332   7.601   1.862   4.319
13463TIP3    H240333   7.619   2.010   4.343
13464TIP3   OH240334   6.301   6.145   4.562
13464TIP3    H140335   6.342   6.221   4.522
13464TIP3    H240336   6.236   6.181   4.622
13465TIP3   OH240337   4.093   7.374   4.794
13465TIP3    H140338   4.050   7.458   4.783
13465TIP3    H240339   4.095   7.360   4.888
13466TIP3   OH240340   3.687   1.776   6.764
13466TIP3    H140341   3.699   1.871   6.753
13466TIP3    H240342   3.646   1.747   6.683
13467TIP3   OH240343   0.832   7.316   6.528
13467TIP3    H140344   0.820   7.403   6.566
13467TIP3    H240345   0.905   7.278   6.578
13468TIP3   OH240346   6.427   3.630   3.490
13468TIP3    H140347   6.486   3.564   3.455
13468TIP3    H240348   6.422   3.611   3.584
13469TIP3   OH240349   0.005   5.075   6.719
13469TIP3    H140350   0.077   5.052   6.777
13469TIP3    H240351  -0.049   4.995   6.715
13470TIP3   OH240352   1.399   6.212   1.040
13470TIP3    H140353   1.469   6.261   1.085
13470TIP3    H240354   1.399   6.248   0.951
13471TIP3   OH240355   5.704   0.572   0.935
13471TIP3    H140356   5.634   0.570   0.870
13471TIP3    H240357   5.670   0.521   1.008
13472TIP3   OH240358   6.607  -0.001   4.218
13472TIP3    H140359   6.651  -0.041   4.143
13472TIP3    H240360   6.582   0.086   4.186
13473TIP3   OH240361   5.552   0.361   0.018
13473TIP3    H140362   5.583   0.308   0.091
13473TIP3    H240363   5.480   0.412   0.054
13474TIP3   OH240364   1.410   3.861   6.487
13474TIP3    H140365   1.464   3.937   6.507
13474TIP3    H240366   1.473   3.793   6.464
13475TIP3   OH240367   6.013   4.955   5.366
13475TIP3    H140368   5.981   4.867   5.379
13475TIP3    H240369   6.067   4.973   5.443
13476TIP3   OH240370   4.429   2.442   2.750
13476TIP3    H140371   4.466   2.446   2.838
13476TIP3    H240372   4.506   2.437   2.693
13477TIP3   OH240373   3.230   3.542   2.966
13477TIP3    H140374   3.257   3.574   3.052
13477TIP3    H240375   3.297   3.477   2.943
13478TIP3   OH240376   7.431   1.789   4.714
13478TIP3    H140377   7.428   1.799   4.809
13478TIP3    H240378   7.481   1.708   4.701
13479TIP3   OH240379   4.040   2.236   4.125
13479TIP3    H140380   4.095   2.315   4.131
13479TIP3    H240381   4.029   2.221   4.032
13480TIP3   OH240382   2.793   6.165   3.842
13480TIP3    H140383   2.708   6.151   3.883
13480TIP3    H240384   2.824   6.077   3.821
13481TIP3   OH240385   6.950   0.429   6.579
13481TIP3    H140386   6.858   0.445   6.556
13481TIP3    H240387   6.948   0.416   6.674
13482TIP3   OH240388   5.405   0.050   6.321
13482TIP3    H140389   5.482  -0.006   6.330
13482TIP3    H240390   5.367   0.024   6.237
13483TIP3   OH240391   0.495   5.177   3.934
13483TIP3    H140392   0.499   5.261   3.981
13483TIP3    H240393   0.572   5.177   3.878
13484TIP3   OH240394   2.445   1.891   0.518
13484TIP3    H140395   2.536   1.886   0.547
13484TIP3    H240396   2.451   1.930   0.430
13485TIP3   OH240397   2.539   7.284   5.395
13485TIP3    H140398   2.456   7.249   5.362
13485TIP3    H240399   2.514   7.355   5.453
13486TIP3   OH240400   8.138   5.853   0.520
13486TIP3    H140401   8.112   5.941   0.545
13486TIP3    H240402   8.068   5.822   0.462
13487TIP3   OH240403   7.984   5.537   1.745
13487TIP3    H140404   7.978   5.582   1.661
13487TIP3    H240405   8.074   5.504   1.748
13488TIP3   OH240406   2.239   2.474   0.067
13488TIP3    H140407   2.313   2.534   0.053
13488TIP3    H240408   2.175   2.500   0.001
13489TIP3   OH240409   3.231   0.476   3.872
13489TIP3    H140410   3.209   0.498   3.781
13489TIP3    H240411   3.147   0.470   3.916
13490TIP3   OH240412   4.607   3.863   4.238
13490TIP3    H140413   4.595   3.799   4.168
13490TIP3    H240414   4.700   3.886   4.235
13491TIP3   OH240415   3.735   1.553   1.493
13491TIP3    H140416   3.672   1.617   1.527
13491TIP3    H240417   3.716   1.549   1.399
13492TIP3   OH240418   0.604   3.489   3.696
13492TIP3    H140419   0.683   3.519   3.740
13492TIP3    H240420   0.633   3.465   3.608
13493TIP3   OH240421   5.484   1.403   4.446
13493TIP3    H140422   5.433   1.399   4.527
13493TIP3    H240423   5.472   1.492   4.414
13494TIP3   OH240424   7.321   1.808   3.310
13494TIP3    H140425   7.281   1.894   3.323
13494TIP3    H240426   7.383   1.800   3.382
13495TIP3   OH240427   5.085   4.424   2.379
13495TIP3    H140428   5.110   4.516   2.367
13495TIP3    H240429   5.131   4.377   2.309
13496TIP3   OH240430   0.380   1.520   5.213
13496TIP3    H140431   0.422   1.584   5.271
13496TIP3    H240432   0.437   1.443   5.217
13497TIP3   OH240433   1.982   2.980   4.546
13497TIP3    H140434   2.024   2.938   4.471
13497TIP3    H240435   2.055   3.015   4.598
13498TIP3   OH240436   7.601   3.965   5.118
13498TIP3    H140437   7.620   3.890   5.061
13498TIP3    H240438   7.623   3.935   5.206
13499TIP3   OH240439   4.114   3.682   0.786
13499TIP3    H140440   4.098   3.602   0.835
13499TIP3    H240441   4.191   3.721   0.828
13500TIP3   OH240442   7.779   6.215   4.617
13500TIP3    H140443   7.864   6.175   4.602
13500TIP3    H240444   7.716   6.149   4.589
13501TIP3   OH240445   3.189   4.006   4.909
13501TIP3    H140446   3.251   4.071   4.941
13501TIP3    H240447   3.209   3.996   4.816
13502TIP3   OH240448   6.181   6.331   4.056
13502TIP3    H140449   6.166   6.423   4.076
13502TIP3    H240450   6.274   6.317   4.073
13503TIP3   OH240451   3.457   4.588   3.315
13503TIP3    H140452   3.471   4.680   3.339
13503TIP3    H240453   3.412   4.592   3.231
13504TIP3   OH240454   0.270   5.856   4.006
13504TIP3    H140455   0.178   5.854   3.979
13504TIP3    H240456   0.267   5.853   4.102
13505TIP3   OH240457   2.921   7.394   0.673
13505TIP3    H140458   3.008   7.359   0.690
13505TIP3    H240459   2.887   7.419   0.759
13506TIP3   OH240460   0.426   1.107   0.079
13506TIP3    H140461   0.421   1.175   0.011
13506TIP3    H240462   0.502   1.054   0.055
13507TIP3   OH240463   5.347   4.289   6.288
13507TIP3    H140464   5.391   4.364   6.326
13507TIP3    H240465   5.285   4.326   6.226
13508TIP3   OH240466   2.748   4.016   4.828
13508TIP3    H140467   2.827   4.059   4.795
13508TIP3    H240468   2.682   4.085   4.831
13509TIP3   OH240469   2.719   0.735   2.019
13509TIP3    H140470   2.814   0.730   2.031
13509TIP3    H240471   2.703   0.827   1.994
13510TIP3   OH240472   4.084   5.786   6.442
13510TIP3    H140473   4.089   5.777   6.347
13510TIP3    H240474   4.168   5.753   6.474
13511TIP3   OH240475   2.354   0.830   4.762
13511TIP3    H140476   2.402   0.794   4.836
13511TIP3    H240477   2.262   0.823   4.787
13512TIP3   OH240478   3.698   1.020   1.289
13512TIP3    H140479   3.618   1.061   1.254
13512TIP3    H240480   3.766   1.085   1.275
13513TIP3   OH240481   0.203   4.448   5.847
13513TIP3    H140482   0.214   4.524   5.791
13513TIP3    H240483   0.230   4.478   5.934
13514TIP3   OH240484   1.434   5.366   2.361
13514TIP3    H140485   1.450   5.410   2.444
13514TIP3    H240486   1.340   5.376   2.347
13515TIP3   OH240487   4.637   1.437   0.699
13515TIP3    H140488   4.703   1.427   0.630
13515TIP3    H240489   4.598   1.522   0.682
13516TIP3   OH240490   5.069   7.674   4.454
13516TIP3    H140491   5.017   7.667   4.535
13516TIP3    H240492   5.004   7.683   4.385
13517TIP3   OH240493   8.147   4.998   2.815
13517TIP3    H140494   8.144   4.909   2.851
13517TIP3    H240495   8.055   5.020   2.799
13518TIP3   OH240496   1.121   7.811   6.060
13518TIP3    H140497   1.059   7.884   6.070
13518TIP3    H240498   1.066   7.734   6.050
13519TIP3   OH240499   7.573   2.399   6.117
13519TIP3    H140500   7.596   2.492   6.117
13519TIP3    H240501   7.554   2.378   6.026
13520TIP3   OH240502   4.667   4.841   5.273
13520TIP3    H140503   4.666   4.936   5.288
13520TIP3    H240504   4.580   4.822   5.239
13521TIP3   OH240505   3.352   3.771   0.625
13521TIP3    H140506   3.300   3.841   0.664
13521TIP3    H240507   3.442   3.789   0.654
13522TIP3   OH240508   1.430   5.232   6.579
13522TIP3    H140509   1.517   5.211   6.545
13522TIP3    H240510   1.371   5.179   6.525
13523TIP3   OH240511   6.745   2.636   6.046
13523TIP3    H140512   6.757   2.666   6.136
13523TIP3    H240513   6.760   2.713   5.992
13524TIP3   OH240514   2.718   0.254   3.894
13524TIP3    H140515   2.648   0.239   3.957
13524TIP3    H240516   2.787   0.297   3.944
13525TIP3   OH240517   2.920   2.773   1.133
13525TIP3    H140518   2.969   2.851   1.107
13525TIP3    H240519   2.931   2.713   1.060
13526TIP3   OH240520   6.117   0.132   1.279
13526TIP3    H140521   6.064   0.055   1.299
13526TIP3    H240522   6.158   0.155   1.362
13527TIP3   OH240523   5.003   4.845   3.399
13527TIP3    H140524   5.008   4.805   3.486
13527TIP3    H240525   5.067   4.915   3.401
13528TIP3   OH240526   6.384   6.987   4.349
13528TIP3    H140527   6.398   7.033   4.267
13528TIP3    H240528   6.472   6.962   4.378
13529TIP3   OH240529   7.841   3.265   3.185
13529TIP3    H140530   7.859   3.173   3.167
13529TIP3    H240531   7.862   3.275   3.278
13530TIP3   OH240532   1.951   3.142   4.966
13530TIP3    H140533   2.011   3.215   4.954
13530TIP3    H240534   2.007   3.070   4.996
13531TIP3   OH240535   1.508   3.078   0.889
13531TIP3    H140536   1.479   3.076   0.981
13531TIP3    H240537   1.551   2.993   0.876
13532TIP3   OH240538   7.180   7.454   1.106
13532TIP3    H140539   7.129   7.380   1.139
13532TIP3    H240540   7.268   7.440   1.141
13533TIP3   OH240541   7.402   5.070   3.334
13533TIP3    H140542   7.437   5.037   3.252
13533TIP3    H240543   7.392   4.993   3.389
13534TIP3   OH240544   1.119   2.290   4.279
13534TIP3    H140545   1.118   2.194   4.281
13534TIP3    H240546   1.099   2.316   4.369
13535TIP3   OH240547   1.296   6.567   4.339
13535TIP3    H140548   1.242   6.643   4.319
13535TIP3    H240549   1.365   6.567   4.272
13536TIP3   OH240550   3.963   5.260   5.161
13536TIP3    H140551   3.970   5.311   5.080
13536TIP3    H240552   3.937   5.173   5.131
13537TIP3   OH240553   4.267   4.359   4.262
13537TIP3    H140554   4.304   4.413   4.331
13537TIP3    H240555   4.308   4.391   4.182
13538TIP3   OH240556   7.501   7.702   2.986
13538TIP3    H140557   7.479   7.637   3.053
13538TIP3    H240558   7.416   7.732   2.953
13539TIP3   OH240559   6.973   2.698   2.198
13539TIP3    H140560   6.952   2.671   2.108
13539TIP3    H240561   7.020   2.623   2.235
13540TIP3   OH240562   6.194   3.118   5.242
13540TIP3    H140563   6.136   3.052   5.205
13540TIP3    H240564   6.144   3.200   5.236
13541TIP3   OH240565   0.360   4.020   4.477
13541TIP3    H140566   0.431   3.956   4.476
13541TIP3    H240567   0.395   4.094   4.528
13542TIP3   OH240568   7.465   1.704   5.570
13542TIP3    H140569   7.499   1.615   5.567
13542TIP3    H240570   7.371   1.695   5.554
13543TIP3   OH240571   5.571   5.870   0.711
13543TIP3    H140572   5.616   5.812   0.649
13543TIP3    H240573   5.533   5.939   0.656
13544TIP3   OH240574   8.183   6.368   0.475
13544TIP3    H140575   8.179   6.295   0.413
13544TIP3    H240576   8.273   6.399   0.470
13545TIP3   OH240577   6.985   7.462   0.682
13545TIP3    H140578   7.068   7.444   0.639
13545TIP3    H240579   6.921   7.410   0.632
13546TIP3   OH240580   2.286   6.466   0.726
13546TIP3    H140581   2.260   6.375   0.717
13546TIP3    H240582   2.350   6.466   0.798
13547TIP3   OH240583   7.508   4.547   0.944
13547TIP3    H140584   7.423   4.576   0.976
13547TIP3    H240585   7.524   4.464   0.988
13548TIP3   OH240586   2.286   6.144   5.061
13548TIP3    H140587   2.288   6.220   5.120
13548TIP3    H240588   2.372   6.142   5.021
13549TIP3   OH240589   4.886   3.016   1.746
13549TIP3    H140590   4.866   2.923   1.756
13549TIP3    H240591   4.962   3.018   1.688
13550TIP3   OH240592   3.326   0.801   3.670
13550TIP3    H140593   3.355   0.825   3.582
13550TIP3    H240594   3.372   0.862   3.728
13551TIP3   OH240595   1.162   7.106   0.380
13551TIP3    H140596   1.202   7.168   0.441
13551TIP3    H240597   1.177   7.021   0.419
13552TIP3   OH240598   3.144   4.498   5.540
13552TIP3    H140599   3.132   4.499   5.445
13552TIP3    H240600   3.128   4.408   5.565
13553TIP3   OH240601   1.210   3.501   6.429
13553TIP3    H140602   1.202   3.414   6.468
13553TIP3    H240603   1.174   3.561   6.495
13554TIP3   OH240604   4.169   6.412   6.308
13554TIP3    H140605   4.185   6.321   6.283
13554TIP3    H240606   4.248   6.460   6.281
13555TIP3   OH240607   5.801   6.444   1.775
13555TIP3    H140608   5.867   6.503   1.737
13555TIP3    H240609   5.847   6.361   1.787
13556TIP3   OH240610   0.211   3.934   4.222
13556TIP3    H140611   0.198   3.971   4.135
13556TIP3    H240612   0.232   4.009   4.277
13557TIP3   OH240613   0.838   0.691   0.346
13557TIP3    H140614   0.844   0.665   0.254
13557TIP3    H240615   0.745   0.703   0.363
13558TIP3   OH240616   0.557   7.485   4.548
13558TIP3    H140617   0.547   7.422   4.476
13558TIP3    H240618   0.650   7.507   4.547
13559TIP3   OH240619   2.955   3.324   0.010
13559TIP3    H140620   2.976   3.379   0.085
13559TIP3    H240621   2.890   3.374  -0.039
13560TIP3   OH240622   1.182   1.653   2.297
13560TIP3    H140623   1.241   1.699   2.357
13560TIP3    H240624   1.234   1.640   2.217
13561TIP3   OH240625   5.731   3.635   0.832
13561TIP3    H140626   5.736   3.675   0.919
13561TIP3    H240627   5.816   3.592   0.822
13562TIP3   OH240628   6.228   7.026   6.441
13562TIP3    H140629   6.261   7.049   6.528
13562TIP3    H240630   6.139   6.995   6.456
13563TIP3   OH240631   8.050   1.513   2.072
13563TIP3    H140632   8.006   1.448   2.127
13563TIP3    H240633   8.077   1.581   2.133
13564TIP3   OH240634   5.038   1.133   2.395
13564TIP3    H140635   5.001   1.164   2.477
13564TIP3    H240636   5.132   1.145   2.404
13565TIP3   OH240637   3.690   2.528   0.757
13565TIP3    H140638   3.736   2.557   0.678
13565TIP3    H240639   3.733   2.446   0.781
13566TIP3   OH240640   3.537   1.805   4.769
13566TIP3    H140641   3.591   1.763   4.702
13566TIP3    H240642   3.596   1.815   4.844
13567TIP3   OH240643   0.470   4.361   4.413
13567TIP3    H140644   0.460   4.370   4.319
13567TIP3    H240645   0.380   4.362   4.447
13568TIP3   OH240646   5.626   6.921   4.091
13568TIP3    H140647   5.535   6.904   4.066
13568TIP3    H240648   5.670   6.837   4.080
13569TIP3   OH240649   7.785   4.320   4.619
13569TIP3    H140650   7.761   4.412   4.629
13569TIP3    H240651   7.736   4.275   4.687
13570TIP3   OH240652   7.215   7.425   4.051
13570TIP3    H140653   7.202   7.407   3.958
13570TIP3    H240654   7.168   7.354   4.095
13571TIP3   OH240655   0.730   3.667   4.331
13571TIP3    H140656   0.719   3.619   4.413
13571TIP3    H240657   0.823   3.660   4.312
13572TIP3   OH240658   7.130   2.720   1.433
13572TIP3    H140659   7.055   2.766   1.397
13572TIP3    H240660   7.146   2.647   1.372
13573TIP3   OH240661   7.990   0.883   0.221
13573TIP3    H140662   8.022   0.807   0.172
13573TIP3    H240663   8.041   0.882   0.302
13574TIP3   OH240664   2.367   6.035   3.370
13574TIP3    H140665   2.292   6.039   3.429
13574TIP3    H240666   2.439   6.075   3.419
13575TIP3   OH240667   1.533   3.230   6.227
13575TIP3    H140668   1.440   3.212   6.236
13575TIP3    H240669   1.540   3.326   6.231
13576TIP3   OH240670   0.475   4.375   3.227
13576TIP3    H140671   0.521   4.340   3.151
13576TIP3    H240672   0.492   4.470   3.223
13577TIP3   OH240673   3.761   6.334   3.339
13577TIP3    H140674   3.800   6.317   3.424
13577TIP3    H240675   3.702   6.408   3.353
13578TIP3   OH240676   6.996   3.657   2.099
13578TIP3    H140677   7.051   3.587   2.135
13578TIP3    H240678   6.910   3.642   2.138
13579TIP3   OH240679   5.009   1.866   1.357
13579TIP3    H140680   5.037   1.956   1.377
13579TIP3    H240681   4.928   1.876   1.308
13580TIP3   OH240682   5.222   7.118   1.883
13580TIP3    H140683   5.221   7.178   1.808
13580TIP3    H240684   5.198   7.033   1.846
13581TIP3   OH240685   6.204   7.119   5.533
13581TIP3    H140686   6.262   7.049   5.505
13581TIP3    H240687   6.254   7.167   5.599
13582TIP3   OH240688   3.949   7.087   4.183
13582TIP3    H140689   4.008   7.145   4.134
13582TIP3    H240690   3.870   7.139   4.196
13583TIP3   OH240691   7.708   1.207   2.817
13583TIP3    H140692   7.702   1.269   2.890
13583TIP3    H240693   7.801   1.204   2.796
13584TIP3   OH240694   0.336   3.135   4.723
13584TIP3    H140695   0.263   3.166   4.776
13584TIP3    H240696   0.367   3.057   4.768
13585TIP3   OH240697   5.550   6.694   0.405
13585TIP3    H140698   5.497   6.688   0.325
13585TIP3    H240699   5.617   6.759   0.384
13586TIP3   OH240700   2.460   3.342   3.264
13586TIP3    H140701   2.452   3.410   3.197
13586TIP3    H240702   2.540   3.295   3.241
13587TIP3   OH240703   3.618   2.642   6.195
13587TIP3    H140704   3.598   2.702   6.267
13587TIP3    H240705   3.707   2.611   6.213
13588TIP3   OH240706   6.604   0.878   3.601
13588TIP3    H140707   6.580   0.927   3.680
13588TIP3    H240708   6.655   0.941   3.550
13589TIP3   OH240709   2.740   0.501   1.330
13589TIP3    H140710   2.731   0.580   1.382
13589TIP3    H240711   2.828   0.469   1.348
13590TIP3   OH240712   6.397   4.682   6.715
13590TIP3    H140713   6.330   4.713   6.777
13590TIP3    H240714   6.455   4.627   6.768
13591TIP3   OH240715   4.556   5.899   3.174
13591TIP3    H140716   4.527   5.891   3.265
13591TIP3    H240717   4.547   5.992   3.154
13592TIP3   OH240718   0.973   3.499   1.913
13592TIP3    H140719   1.036   3.448   1.861
13592TIP3    H240720   0.984   3.467   2.002
13593TIP3   OH240721   7.498   6.099   2.308
13593TIP3    H140722   7.585   6.072   2.337
13593TIP3    H240723   7.455   6.129   2.387
13594TIP3   OH240724   2.777   7.535   5.925
13594TIP3    H140725   2.772   7.462   5.862
13594TIP3    H240726   2.736   7.501   6.004
13595TIP3   OH240727   3.072   0.466   2.682
13595TIP3    H140728   3.091   0.535   2.619
13595TIP3    H240729   2.978   0.470   2.695
13596TIP3   OH240730   2.780   7.410   1.231
13596TIP3    H140731   2.743   7.415   1.143
13596TIP3    H240732   2.759   7.495   1.270
13597TIP3   OH240733   6.777   4.295   5.670
13597TIP3    H140734   6.724   4.374   5.683
13597TIP3    H240735   6.867   4.323   5.685
13598TIP3   OH240736   3.249   1.451   3.825
13598TIP3    H140737   3.168   1.404   3.844
13598TIP3    H240738   3.271   1.494   3.908
13599TIP3   OH240739   3.726   5.561   5.600
13599TIP3    H140740   3.790   5.574   5.670
13599TIP3    H240741   3.739   5.471   5.571
13600TIP3   OH240742   8.056   0.432   0.138
13600TIP3    H140743   8.073   0.420   0.044
13600TIP3    H240744   7.992   0.503   0.142
13601TIP3   OH240745   1.461   4.558   3.525
13601TIP3    H140746   1.434   4.553   3.433
13601TIP3    H240747   1.445   4.470   3.560
13602TIP3   OH240748   3.911   7.234   0.202
13602TIP3    H140749   3.928   7.146   0.169
13602TIP3    H240750   3.845   7.223   0.270
13603TIP3   OH240751   2.856   6.381   6.556
13603TIP3    H140752   2.951   6.393   6.556
13603TIP3    H240753   2.830   6.399   6.647
13604TIP3   OH240754   5.754   0.839   0.972
13604TIP3    H140755   5.729   0.755   0.934
13604TIP3    H240756   5.674   0.892   0.968
13605TIP3   OH240757   4.637   3.795   1.004
13605TIP3    H140758   4.628   3.801   1.099
13605TIP3    H240759   4.707   3.857   0.982
13606TIP3   OH240760   3.877   5.415   1.110
13606TIP3    H140761   3.796   5.415   1.162
13606TIP3    H240762   3.847   5.419   1.019
13607TIP3   OH240763   1.967   0.952   5.987
13607TIP3    H140764   1.914   0.964   5.908
13607TIP3    H240765   2.055   0.935   5.954
13608TIP3   OH240766   2.683   3.311   0.551
13608TIP3    H140767   2.657   3.233   0.600
13608TIP3    H240768   2.619   3.317   0.479
13609TIP3   OH240769   5.047   0.755   4.933
13609TIP3    H140770   5.092   0.838   4.947
13609TIP3    H240771   4.957   0.780   4.911
13610TIP3   OH240772   0.223   0.684   1.249
13610TIP3    H140773   0.242   0.640   1.166
13610TIP3    H240774   0.293   0.657   1.308
13611TIP3   OH240775   4.110   3.556   5.306
13611TIP3    H140776   4.069   3.513   5.231
13611TIP3    H240777   4.203   3.561   5.284
13612TIP3   OH240778   2.175   5.208   2.783
13612TIP3    H140779   2.235   5.134   2.778
13612TIP3    H240780   2.179   5.248   2.696
13613TIP3   OH240781   0.277   0.906   1.546
13613TIP3    H140782   0.305   0.822   1.582
13613TIP3    H240783   0.275   0.892   1.451
13614TIP3   OH240784   5.462   5.875   3.434
13614TIP3    H140785   5.462   5.890   3.529
13614TIP3    H240786   5.415   5.950   3.398
13615TIP3   OH240787   3.916   4.485   2.095
13615TIP3    H140788   3.828   4.480   2.132
13615TIP3    H240789   3.974   4.496   2.170
13616TIP3   OH240790   4.033   2.013   6.627
13616TIP3    H140791   3.996   1.961   6.556
13616TIP3    H240792   3.972   2.001   6.700
13617TIP3   OH240793   2.304   0.171   1.551
13617TIP3    H140794   2.214   0.170   1.583
13617TIP3    H240795   2.302   0.116   1.473
13618TIP3   OH240796   7.249   3.183   4.053
13618TIP3    H140797   7.158   3.153   4.057
13618TIP3    H240798   7.298   3.106   4.025
13619TIP3   OH240799   6.368   5.702   0.439
13619TIP3    H140800   6.420   5.663   0.509
13619TIP3    H240801   6.301   5.752   0.484
13620TIP3   OH240802   7.355   2.858   5.710
13620TIP3    H140803   7.298   2.905   5.770
13620TIP3    H240804   7.433   2.838   5.761
13621TIP3   OH240805   5.042   0.361   0.016
13621TIP3    H140806   4.959   0.404   0.034
13621TIP3    H240807   5.039   0.281   0.069
13622TIP3   OH240808   1.065   5.074   5.285
13622TIP3    H140809   1.064   5.063   5.190
13622TIP3    H240810   0.976   5.098   5.308
13623TIP3   OH240811   7.795   3.580   1.777
13623TIP3    H140812   7.789   3.665   1.821
13623TIP3    H240813   7.883   3.578   1.741
13624TIP3   OH240814   8.183   1.265   3.859
13624TIP3    H140815   8.217   1.305   3.779
13624TIP3    H240816   8.164   1.175   3.835
13625TIP3   OH240817   6.179   1.369   5.397
13625TIP3    H140818   6.239   1.323   5.455
13625TIP3    H240819   6.114   1.408   5.455
13626TIP3   OH240820   4.814   0.493   0.668
13626TIP3    H140821   4.908   0.504   0.682
13626TIP3    H240822   4.798   0.401   0.688
13627TIP3   OH240823   4.240   7.363   3.431
13627TIP3    H140824   4.319   7.366   3.486
13627TIP3    H240825   4.259   7.297   3.365
13628TIP3   OH240826   4.450   0.554   6.422
13628TIP3    H140827   4.538   0.577   6.451
13628TIP3    H240828   4.419   0.631   6.375
13629TIP3   OH240829   8.023   4.182   2.322
13629TIP3    H140830   7.935   4.210   2.350
13629TIP3    H240831   8.008   4.101   2.274
13630TIP3   OH240832   4.416   5.222   5.821
13630TIP3    H140833   4.383   5.309   5.844
13630TIP3    H240834   4.487   5.205   5.883
13631TIP3   OH240835   3.194   0.964   1.901
13631TIP3    H140836   3.264   0.974   1.835
13631TIP3    H240837   3.224   1.017   1.975
13632TIP3   OH240838   2.922   1.613   2.055
13632TIP3    H140839   2.915   1.528   2.010
13632TIP3    H240840   2.955   1.591   2.142
13633TIP3   OH240841   8.288   0.345   4.329
13633TIP3    H140842   8.259   0.429   4.292
13633TIP3    H240843   8.264   0.350   4.421
13634TIP3   OH240844   3.780   6.786   0.282
13634TIP3    H140845   3.790   6.691   0.280
13634TIP3    H240846   3.800   6.811   0.372
13635TIP3   OH240847   4.600   1.547   2.095
13635TIP3    H140848   4.663   1.492   2.048
13635TIP3    H240849   4.651   1.589   2.164
13636TIP3   OH240850   3.691   5.822   5.092
13636TIP3    H140851   3.773   5.794   5.134
13636TIP3    H240852   3.674   5.756   5.025
13637TIP3   OH240853   2.349   2.204   5.189
13637TIP3    H140854   2.318   2.290   5.159
13637TIP3    H240855   2.300   2.189   5.270
13638TIP3   OH240856   3.968   1.480   1.298
13638TIP3    H140857   3.880   1.518   1.292
13638TIP3    H240858   3.954   1.396   1.343
13639TIP3   OH240859   7.502   4.288   6.271
13639TIP3    H140860   7.574   4.247   6.319
13639TIP3    H240861   7.511   4.381   6.289
13640TIP3   OH240862   6.031   1.255   5.198
13640TIP3    H140863   6.088   1.301   5.260
13640TIP3    H240864   6.079   1.256   5.116
13641TIP3   OH240865   1.605   3.312   0.926
13641TIP3    H140866   1.555   3.334   1.005
13641TIP3    H240867   1.563   3.232   0.894
13642TIP3   OH240868   0.474   0.552   1.321
13642TIP3    H140869   0.541   0.564   1.388
13642TIP3    H240870   0.449   0.460   1.327
13643TIP3   OH240871   4.372   4.748   6.477
13643TIP3    H140872   4.461   4.774   6.453
13643TIP3    H240873   4.320   4.826   6.461
13644TIP3   OH240874   4.682   0.127   0.395
13644TIP3    H140875   4.624   0.200   0.374
13644TIP3    H240876   4.672   0.116   0.490
13645TIP3   OH240877   6.322   1.834   6.655
13645TIP3    H140878   6.329   1.838   6.751
13645TIP3    H240879   6.315   1.740   6.635
13646TIP3   OH240880   3.712   4.169   1.041
13646TIP3    H140881   3.753   4.254   1.022
13646TIP3    H240882   3.627   4.192   1.080
13647TIP3   OH240883   1.914   6.559   4.201
13647TIP3    H140884   1.875   6.519   4.123
13647TIP3    H240885   1.964   6.633   4.167
13648TIP3   OH240886   1.017   1.638   6.008
13648TIP3    H140887   1.021   1.582   6.086
13648TIP3    H240888   1.018   1.727   6.042
13649TIP3   OH240889   6.012   0.352   1.142
13649TIP3    H140890   5.926   0.311   1.153
13649TIP3    H240891   6.073   0.290   1.181
13650TIP3   OH240892   2.525   4.869   3.328
13650TIP3    H140893   2.545   4.777   3.313
13650TIP3    H240894   2.601   4.916   3.294
13651TIP3   OH240895   5.794   0.659   4.243
13651TIP3    H140896   5.746   0.682   4.322
13651TIP3    H240897   5.787   0.563   4.238
13652TIP3   OH240898   2.716   1.081   6.162
13652TIP3    H140899   2.711   0.999   6.211
13652TIP3    H240900   2.799   1.121   6.189
13653TIP3   OH240901   6.089   7.494   0.851
13653TIP3    H140902   5.996   7.472   0.852
13653TIP3    H240903   6.132   7.418   0.890
13654TIP3   OH240904   5.158   7.027   1.036
13654TIP3    H140905   5.229   6.981   0.991
13654TIP3    H240906   5.169   7.119   1.012
13655TIP3   OH240907   5.759   3.741   1.090
13655TIP3    H140908   5.813   3.672   1.129
13655TIP3    H240909   5.682   3.745   1.147
13656TIP3   OH240910   5.723   6.353   3.135
13656TIP3    H140911   5.691   6.299   3.063
13656TIP3    H240912   5.742   6.438   3.096
13657TIP3   OH240913   0.734   6.720   1.533
13657TIP3    H140914   0.678   6.786   1.492
13657TIP3    H240915   0.823   6.751   1.517
13658TIP3   OH240916   2.594   2.953   0.259
13658TIP3    H140917   2.546   3.030   0.228
13658TIP3    H240918   2.531   2.881   0.248
13659TIP3   OH240919   4.624   6.703   3.831
13659TIP3    H140920   4.587   6.675   3.747
13659TIP3    H240921   4.710   6.660   3.834
13660TIP3   OH240922   8.187   1.755   2.614
13660TIP3    H140923   8.211   1.685   2.675
13660TIP3    H240924   8.260   1.759   2.553
13661TIP3   OH240925   0.562   1.222   3.935
13661TIP3    H140926   0.596   1.251   4.020
13661TIP3    H240927   0.483   1.172   3.957
13662TIP3   OH240928   2.716   7.634   2.617
13662TIP3    H140929   2.735   7.561   2.558
13662TIP3    H240930   2.798   7.649   2.664
13663TIP3   OH240931   7.858   4.300   6.230
13663TIP3    H140932   7.830   4.219   6.273
13663TIP3    H240933   7.784   4.359   6.238
13664TIP3   OH240934   3.359   2.506   2.683
13664TIP3    H140935   3.383   2.514   2.591
13664TIP3    H240936   3.292   2.573   2.697
13665TIP3   OH240937   1.084   3.518   5.022
13665TIP3    H140938   1.168   3.549   4.986
13665TIP3    H240939   1.018   3.572   4.978
13666TIP3   OH240940   5.935   1.162   5.870
13666TIP3    H140941   5.850   1.168   5.913
13666TIP3    H240942   5.971   1.078   5.898
13667TIP3   OH240943   4.971   4.906   5.379
13667TIP3    H140944   5.042   4.846   5.357
13667TIP3    H240945   4.905   4.892   5.311
13668TIP3   OH240946   2.438   5.589   2.980
13668TIP3    H140947   2.414   5.562   3.068
13668TIP3    H240948   2.371   5.653   2.955
13669TIP3   OH240949   0.861   6.600   4.399
13669TIP3    H140950   0.909   6.594   4.481
13669TIP3    H240951   0.925   6.577   4.331
13670TIP3   OH240952   5.894   5.384   5.496
13670TIP3    H140953   5.978   5.405   5.455
13670TIP3    H240954   5.830   5.389   5.425
13671TIP3   OH240955   2.638   4.582   6.214
13671TIP3    H140956   2.611   4.588   6.122
13671TIP3    H240957   2.564   4.541   6.259
13672TIP3   OH240958   7.874   0.330   5.778
13672TIP3    H140959   7.959   0.289   5.764
13672TIP3    H240960   7.893   0.424   5.783
13673TIP3   OH240961   0.520   5.257   5.017
13673TIP3    H140962   0.528   5.258   5.113
13673TIP3    H240963   0.447   5.199   5.000
13674TIP3   OH240964   7.987   6.414   4.109
13674TIP3    H140965   7.918   6.439   4.171
13674TIP3    H240966   7.950   6.340   4.061
13675TIP3   OH240967   7.520   1.734   6.202
13675TIP3    H140968   7.518   1.756   6.109
13675TIP3    H240969   7.613   1.735   6.225
13676TIP3   OH240970   7.562   5.712   2.658
13676TIP3    H140971   7.635   5.694   2.599
13676TIP3    H240972   7.558   5.808   2.664
13677TIP3   OH240973   6.818   1.157   4.143
13677TIP3    H140974   6.792   1.067   4.160
13677TIP3    H240975   6.747   1.195   4.092
13678TIP3   OH240976   5.959   6.152   4.425
13678TIP3    H140977   5.958   6.207   4.504
13678TIP3    H240978   5.940   6.064   4.457
13679TIP3   OH240979   7.572   5.630   6.258
13679TIP3    H140980   7.494   5.606   6.208
13679TIP3    H240981   7.645   5.588   6.213
13680TIP3   OH240982   1.334   7.012   4.124
13680TIP3    H140983   1.278   6.935   4.137
13680TIP3    H240984   1.421   6.982   4.149
13681TIP3   OH240985   2.258   4.274   3.588
13681TIP3    H140986   2.298   4.358   3.566
13681TIP3    H240987   2.332   4.214   3.596
13682TIP3   OH240988   2.515   3.299   6.585
13682TIP3    H140989   2.441   3.314   6.526
13682TIP3    H240990   2.549   3.386   6.605
13683TIP3   OH240991   5.109   0.983   1.746
13683TIP3    H140992   5.114   0.923   1.671
13683TIP3    H240993   5.174   0.950   1.807
13684TIP3   OH240994   3.664   1.192   6.512
13684TIP3    H140995   3.653   1.170   6.604
13684TIP3    H240996   3.737   1.138   6.482
13685TIP3   OH240997   0.904   2.087   2.608
13685TIP3    H140998   0.934   2.003   2.642
13685TIP3    H240999   0.865   2.132   2.683
13686TIP3   OH241000   4.727   5.155   5.366
13686TIP3    H141001   4.706   5.224   5.303
13686TIP3    H241002   4.734   5.200   5.450
13687TIP3   OH241003   7.375   2.630   5.995
13687TIP3    H141004   7.373   2.567   5.923
13687TIP3    H241005   7.467   2.633   6.021
13688TIP3   OH241006   5.372   1.687   2.167
13688TIP3    H141007   5.454   1.645   2.192
13688TIP3    H241008   5.391   1.727   2.082
13689TIP3   OH241009   1.218   1.059   5.025
13689TIP3    H141010   1.267   0.998   4.971
13689TIP3    H241011   1.175   1.004   5.091
13690TIP3   OH241012   6.688   3.046   3.629
13690TIP3    H141013   6.772   3.071   3.667
13690TIP3    H241014   6.692   3.076   3.539
13691TIP3   OH241015   8.293   5.460   0.377
13691TIP3    H141016   8.213   5.418   0.410
13691TIP3    H241017   8.331   5.501   0.454
13692TIP3   OH241018   3.791   2.527   2.579
13692TIP3    H141019   3.854   2.457   2.594
13692TIP3    H241020   3.778   2.567   2.664
13693TIP3   OH241021   1.843   5.761   5.271
13693TIP3    H141022   1.930   5.801   5.273
13693TIP3    H241023   1.795   5.805   5.341
13694TIP3   OH241024   8.153   3.417   3.198
13694TIP3    H141025   8.099   3.342   3.221
13694TIP3    H241026   8.236   3.403   3.243
13695TIP3   OH241027   5.108   3.475   0.571
13695TIP3    H141028   5.032   3.462   0.514
13695TIP3    H241029   5.075   3.464   0.660
13696TIP3   OH241030   7.991   1.603   5.881
13696TIP3    H141031   8.002   1.551   5.961
13696TIP3    H241032   8.020   1.691   5.906
13697TIP3   OH241033   8.048   2.868   4.951
13697TIP3    H141034   8.000   2.936   4.999
13697TIP3    H241035   8.026   2.787   4.996
13698TIP3   OH241036   0.410   7.197   6.194
13698TIP3    H141037   0.420   7.260   6.265
13698TIP3    H241038   0.362   7.124   6.234
13699TIP3   OH241039   3.780   0.733   6.269
13699TIP3    H141040   3.735   0.807   6.230
13699TIP3    H241041   3.831   0.696   6.196
13700TIP3   OH241042   6.866   0.060   6.436
13700TIP3    H141043   6.798   0.034   6.374
13700TIP3    H241044   6.948   0.034   6.395
13701TIP3   OH241045   6.118   1.312   4.820
13701TIP3    H141046   6.164   1.244   4.769
13701TIP3    H241047   6.188   1.360   4.864
13702TIP3   OH241048   8.152   2.900   6.085
13702TIP3    H141049   8.157   2.991   6.057
13702TIP3    H241050   8.109   2.903   6.170
13703TIP3   OH241051   6.208   0.639   4.124
13703TIP3    H141052   6.166   0.724   4.111
13703TIP3    H241053   6.154   0.578   4.074
13704TIP3   OH241054   4.436   5.092   6.762
13704TIP3    H141055   4.482   5.010   6.745
13704TIP3    H241056   4.351   5.081   6.720
13705TIP3   OH241057   3.632   2.234   2.762
13705TIP3    H141058   3.580   2.221   2.683
13705TIP3    H241059   3.722   2.240   2.731
13706TIP3   OH241060   0.044   3.976   2.840
13706TIP3    H141061  -0.038   3.964   2.793
13706TIP3    H241062   0.088   3.891   2.834
13707TIP3   OH241063   4.765   7.065   5.531
13707TIP3    H141064   4.807   7.073   5.445
13707TIP3    H241065   4.675   7.039   5.511
13708TIP3   OH241066   5.975   7.350   2.959
13708TIP3    H141067   5.899   7.337   2.902
13708TIP3    H241068   6.001   7.440   2.943
13709TIP3   OH241069   7.930   0.319   1.451
13709TIP3    H141070   7.908   0.245   1.393
13709TIP3    H241071   7.851   0.335   1.501
13710TIP3   OH241072   4.192   5.417   2.246
13710TIP3    H141073   4.155   5.379   2.167
13710TIP3    H241074   4.185   5.512   2.232
13711TIP3   OH241075   5.361   6.912   3.464
13711TIP3    H141076   5.420   6.932   3.391
13711TIP3    H241077   5.300   6.986   3.467
13712TIP3   OH241078   2.566   7.606   6.294
13712TIP3    H141079   2.591   7.562   6.213
13712TIP3    H241080   2.648   7.621   6.340
13713TIP3   OH241081   0.502   5.365   6.593
13713TIP3    H141082   0.471   5.434   6.652
13713TIP3    H241083   0.550   5.411   6.524
13714TIP3   OH241084   6.797   5.178   4.300
13714TIP3    H141085   6.736   5.209   4.367
13714TIP3    H241086   6.847   5.256   4.276
13715TIP3   OH241087   5.272   0.779   3.301
13715TIP3    H141088   5.366   0.768   3.315
13715TIP3    H241089   5.244   0.696   3.264
13716TIP3   OH241090   4.991   3.059   5.567
13716TIP3    H141091   4.956   3.148   5.556
13716TIP3    H241092   5.085   3.072   5.581
13717TIP3   OH241093   1.159   0.171   3.175
13717TIP3    H141094   1.226   0.136   3.234
13717TIP3    H241095   1.085   0.110   3.185
13718TIP3   OH241096   2.189   3.582   1.681
13718TIP3    H141097   2.251   3.564   1.752
13718TIP3    H241098   2.213   3.669   1.650
13719TIP3   OH241099   2.786   5.552   1.074
13719TIP3    H141100   2.801   5.636   1.116
13719TIP3    H241101   2.756   5.495   1.145
13720TIP3   OH241102   3.091   4.734   3.978
13720TIP3    H141103   3.026   4.799   3.952
13720TIP3    H241104   3.084   4.729   4.073
13721TIP3   OH241105   4.994   1.421   4.354
13721TIP3    H141106   4.963   1.399   4.266
13721TIP3    H241107   5.010   1.515   4.351
13722TIP3   OH241108   1.979   4.105   4.640
13722TIP3    H141109   1.979   4.191   4.681
13722TIP3    H241110   1.960   4.121   4.548
13723TIP3   OH241111   2.326   0.244   1.908
13723TIP3    H141112   2.382   0.218   1.981
13723TIP3    H241113   2.237   0.223   1.938
13724TIP3   OH241114   5.720   3.824   4.365
13724TIP3    H141115   5.783   3.790   4.429
13724TIP3    H241116   5.708   3.915   4.390
13725TIP3   OH241117   6.150   6.872   4.531
13725TIP3    H141118   6.222   6.868   4.469
13725TIP3    H241119   6.071   6.869   4.476
13726TIP3   OH241120   7.993   0.477   3.513
13726TIP3    H141121   7.954   0.433   3.438
13726TIP3    H241122   7.944   0.444   3.588
13727TIP3   OH241123   6.503   4.649   0.888
13727TIP3    H141124   6.521   4.581   0.823
13727TIP3    H241125   6.409   4.643   0.905
13728TIP3   OH241126   1.726   5.500   2.809
13728TIP3    H141127   1.769   5.535   2.732
13728TIP3    H241128   1.789   5.439   2.848
13729TIP3   OH241129   5.193   7.165   4.585
13729TIP3    H141130   5.243   7.091   4.620
13729TIP3    H241131   5.131   7.126   4.524
13730TIP3   OH241132   1.196   2.709   5.508
13730TIP3    H141133   1.177   2.797   5.541
13730TIP3    H241134   1.263   2.723   5.441
13731TIP3   OH241135   5.807   3.130   4.425
13731TIP3    H141136   5.845   3.072   4.491
13731TIP3    H241137   5.718   3.097   4.413
13732TIP3   OH241138   2.924   5.465   0.285
13732TIP3    H141139   2.967   5.458   0.370
13732TIP3    H241140   2.883   5.380   0.271
13733TIP3   OH241141   4.923   7.186   2.948
13733TIP3    H141142   5.001   7.141   2.980
13733TIP3    H241143   4.911   7.153   2.859
13734TIP3   OH241144   0.031   0.805   0.697
13734TIP3    H141145   0.103   0.766   0.646
13734TIP3    H241146   0.024   0.895   0.664
13735TIP3   OH241147   4.132   5.047   4.797
13735TIP3    H141148   4.195   5.008   4.737
13735TIP3    H241149   4.101   5.126   4.753
13736TIP3   OH241150   4.705   7.587   1.916
13736TIP3    H141151   4.736   7.655   1.856
13736TIP3    H241152   4.687   7.634   1.998
13737TIP3   OH241153   1.703   5.034   3.154
13737TIP3    H141154   1.777   4.993   3.199
13737TIP3    H241155   1.734   5.121   3.131
13738TIP3   OH241156   8.168   5.955   5.728
13738TIP3    H141157   8.129   5.899   5.795
13738TIP3    H241158   8.194   5.895   5.659
13739TIP3   OH241159   1.149   3.078   1.132
13739TIP3    H141160   1.157   3.078   1.036
13739TIP3    H241161   1.239   3.077   1.163
13740TIP3   OH241162   7.591   0.694   2.048
13740TIP3    H141163   7.623   0.656   1.965
13740TIP3    H241164   7.499   0.670   2.050
13741TIP3   OH241165   3.966   0.139   1.349
13741TIP3    H141166   4.053   0.174   1.331
13741TIP3    H241167   3.949   0.163   1.440
13742TIP3   OH241168   7.947   5.642   1.019
13742TIP3    H141169   7.951   5.552   0.986
13742TIP3    H241170   8.008   5.691   0.964
13743TIP3   OH241171   4.169   4.448   2.269
13743TIP3    H141172   4.238   4.429   2.206
13743TIP3    H241173   4.152   4.365   2.313
13744TIP3   OH241174   3.748   1.489   3.266
13744TIP3    H141175   3.795   1.530   3.339
13744TIP3    H241176   3.698   1.418   3.306
13745TIP3   OH241177   2.592   3.092   6.214
13745TIP3    H141178   2.634   3.173   6.244
13745TIP3    H241179   2.646   3.022   6.251
13746TIP3   OH241180   0.326   5.900   6.611
13746TIP3    H141181   0.234   5.922   6.599
13746TIP3    H241182   0.365   5.913   6.525
13747TIP3   OH241183   3.257   1.768   5.168
13747TIP3    H141184   3.218   1.781   5.254
13747TIP3    H241185   3.334   1.714   5.184
13748TIP3   OH241186   1.725   3.827   1.828
13748TIP3    H141187   1.813   3.789   1.817
13748TIP3    H241188   1.699   3.853   1.740
13749TIP3   OH241189   5.703   2.134   0.559
13749TIP3    H141190   5.773   2.070   0.541
13749TIP3    H241191   5.749   2.210   0.596
13750TIP3   OH241192   6.753   5.856   1.444
13750TIP3    H141193   6.810   5.933   1.445
13750TIP3    H241194   6.667   5.891   1.421
13751TIP3   OH241195   7.032   2.440   4.551
13751TIP3    H141196   7.045   2.393   4.634
13751TIP3    H241197   7.108   2.417   4.498
13752TIP3   OH241198   1.653   6.811   6.320
13752TIP3    H141199   1.684   6.900   6.306
13752TIP3    H241200   1.728   6.756   6.300
13753TIP3   OH241201   2.330   2.540   1.577
13753TIP3    H141202   2.252   2.589   1.552
13753TIP3    H241203   2.373   2.596   1.643
13754TIP3   OH241204   4.193   4.239   2.837
13754TIP3    H141205   4.244   4.226   2.916
13754TIP3    H241206   4.169   4.150   2.809
13755TIP3   OH241207   7.513   0.890   0.577
13755TIP3    H141208   7.587   0.920   0.630
13755TIP3    H241209   7.496   0.962   0.516
13756TIP3   OH241210   7.473   0.075   6.736
13756TIP3    H141211   7.385   0.098   6.708
13756TIP3    H241212   7.526   0.081   6.656
13757TIP3   OH241213   1.870   1.051   5.294
13757TIP3    H141214   1.832   1.129   5.254
13757TIP3    H241215   1.927   1.084   5.363
13758TIP3   OH241216   4.994   5.200   5.232
13758TIP3    H141217   5.085   5.181   5.255
13758TIP3    H241218   4.946   5.191   5.314
13759TIP3   OH241219   3.643   4.356   0.423
13759TIP3    H141220   3.629   4.276   0.373
13759TIP3    H241221   3.677   4.325   0.507
13760TIP3   OH241222   2.229   2.030   4.746
13760TIP3    H141223   2.279   2.055   4.824
13760TIP3    H241224   2.296   2.020   4.678
13761TIP3   OH241225   5.323   5.712   3.845
13761TIP3    H141226   5.276   5.714   3.929
13761TIP3    H241227   5.372   5.630   3.847
13762TIP3   OH241228   1.194   3.926   4.809
13762TIP3    H141229   1.260   3.920   4.878
13762TIP3    H241230   1.134   3.994   4.840
13763TIP3   OH241231   3.216   1.647   4.607
13763TIP3    H141232   3.187   1.724   4.656
13763TIP3    H241233   3.246   1.585   4.674
13764TIP3   OH241234   4.325   0.406   3.286
13764TIP3    H141235   4.398   0.345   3.293
13764TIP3    H241236   4.294   0.396   3.196
13765TIP3   OH241237   2.604   5.766   3.986
13765TIP3    H141238   2.689   5.801   4.009
13765TIP3    H241239   2.621   5.675   3.961
13766TIP3   OH241240   3.350   0.903   5.257
13766TIP3    H141241   3.315   0.815   5.268
13766TIP3    H241242   3.402   0.899   5.176
13767TIP3   OH241243   3.362   3.292   6.061
13767TIP3    H141244   3.348   3.198   6.066
13767TIP3    H241245   3.355   3.313   5.968
13768TIP3   OH241246   6.069   1.036   2.334
13768TIP3    H141247   6.000   1.078   2.386
13768TIP3    H241248   6.138   1.102   2.328
13769TIP3   OH241249   6.476   7.373   1.754
13769TIP3    H141250   6.537   7.330   1.694
13769TIP3    H241251   6.459   7.458   1.715
13770TIP3   OH241252   3.891   3.367   1.142
13770TIP3    H141253   3.821   3.428   1.165
13770TIP3    H241254   3.912   3.324   1.225
13771TIP3   OH241255   0.955   2.640   0.182
13771TIP3    H141256   1.010   2.719   0.183
13771TIP3    H241257   1.013   2.571   0.149
13772TIP3   OH241258   2.443   7.657   3.537
13772TIP3    H141259   2.428   7.563   3.550
13772TIP3    H241260   2.362   7.698   3.566
13773TIP3   OH241261   2.034   1.882   6.761
13773TIP3    H141262   2.046   1.789   6.784
13773TIP3    H241263   2.009   1.880   6.669
13774TIP3   OH241264   5.199   7.337   3.654
13774TIP3    H141265   5.293   7.341   3.674
13774TIP3    H241266   5.163   7.284   3.726
13775TIP3   OH241267   2.982   0.953   6.024
13775TIP3    H141268   3.022   0.954   5.938
13775TIP3    H241269   2.906   1.011   6.015
13776TIP3   OH241270   6.404   6.695   0.499
13776TIP3    H141271   6.375   6.783   0.523
13776TIP3    H241272   6.324   6.647   0.478
13777TIP3   OH241273   1.049   7.115   2.348
13777TIP3    H141274   1.064   7.175   2.421
13777TIP3    H241275   0.986   7.160   2.292
13778TIP3   OH241276   2.883   2.077   3.285
13778TIP3    H141277   2.923   2.099   3.369
13778TIP3    H241278   2.930   1.999   3.255
13779TIP3   OH241279   3.827   0.794   3.179
13779TIP3    H141280   3.848   0.725   3.116
13779TIP3    H241281   3.853   0.757   3.264
13780TIP3   OH241282   4.353   7.154   3.811
13780TIP3    H141283   4.437   7.111   3.828
13780TIP3    H241284   4.328   7.124   3.724
13781TIP3   OH241285   7.548   7.348   0.219
13781TIP3    H141286   7.620   7.286   0.228
13781TIP3    H241287   7.549   7.397   0.302
13782TIP3   OH241288   7.409   1.778   1.361
13782TIP3    H141289   7.353   1.708   1.394
13782TIP3    H241290   7.461   1.804   1.436
13783TIP3   OH241291   4.578   3.109   3.424
13783TIP3    H141292   4.553   3.019   3.404
13783TIP3    H241293   4.497   3.159   3.415
13784TIP3   OH241294   4.607   3.810   2.888
13784TIP3    H141295   4.577   3.847   2.805
13784TIP3    H241296   4.628   3.886   2.942
13785TIP3   OH241297   4.763   1.093   4.944
13785TIP3    H141298   4.811   1.062   5.021
13785TIP3    H241299   4.705   1.020   4.921
13786TIP3   OH241300   5.698   3.147   4.123
13786TIP3    H141301   5.677   3.100   4.204
13786TIP3    H241302   5.629   3.120   4.061
13787TIP3   OH241303   8.152   2.217   2.988
13787TIP3    H141304   8.090   2.151   3.018
13787TIP3    H241305   8.104   2.299   2.993
13788TIP3   OH241306   7.141   7.017   1.532
13788TIP3    H141307   7.057   7.038   1.491
13788TIP3    H241308   7.132   6.926   1.559
13789TIP3   OH241309   2.828   0.844   3.739
13789TIP3    H141310   2.917   0.856   3.771
13789TIP3    H241311   2.839   0.828   3.645
13790TIP3   OH241312   7.611   5.520   4.110
13790TIP3    H141313   7.688   5.466   4.124
13790TIP3    H241314   7.633   5.575   4.035
13791TIP3   OH241315   3.248   3.517   3.906
13791TIP3    H141316   3.166   3.565   3.890
13791TIP3    H241317   3.252   3.508   4.001
13792TIP3   OH241318   6.406   7.410   2.013
13792TIP3    H141319   6.430   7.408   1.920
13792TIP3    H241320   6.469   7.351   2.054
13793TIP3   OH241321   4.688   4.456   1.145
13793TIP3    H141322   4.659   4.491   1.230
13793TIP3    H241323   4.741   4.525   1.107
13794TIP3   OH241324   4.203   4.585   4.445
13794TIP3    H141325   4.123   4.600   4.496
13794TIP3    H241326   4.183   4.622   4.359
13795TIP3   OH241327   6.852   1.661   5.019
13795TIP3    H141328   6.783   1.709   5.065
13795TIP3    H241329   6.928   1.666   5.078
13796TIP3   OH241330   4.437   1.709   1.650
13796TIP3    H141331   4.485   1.718   1.568
13796TIP3    H241332   4.469   1.780   1.706
13797TIP3   OH241333   2.838   2.051   0.532
13797TIP3    H141334   2.755   2.081   0.568
13797TIP3    H241335   2.819   1.962   0.501
13798TIP3   OH241336   2.078   2.823   1.277
13798TIP3    H141337   2.002   2.802   1.222
13798TIP3    H241338   2.153   2.804   1.222
13799TIP3   OH241339   5.276   3.962   1.656
13799TIP3    H141340   5.190   3.940   1.621
13799TIP3    H241341   5.264   3.961   1.751
13800TIP3   OH241342   8.217   6.534   5.990
13800TIP3    H141343   8.244   6.454   6.036
13800TIP3    H241344   8.212   6.508   5.898
13801TIP3   OH241345   6.994   5.089   5.286
13801TIP3    H141346   7.023   5.119   5.373
13801TIP3    H241347   7.066   5.035   5.255
13802TIP3   OH241348   0.004   6.585   5.358
13802TIP3    H141349   0.084   6.534   5.346
13802TIP3    H241350  -0.066   6.528   5.327
13803TIP3   OH241351   3.110   0.825   4.651
13803TIP3    H141352   3.193   0.871   4.634
13803TIP3    H241353   3.047   0.895   4.668
13804TIP3   OH241354   2.639   0.243   2.370
13804TIP3    H141355   2.588   0.171   2.333
13804TIP3    H241356   2.724   0.238   2.325
13805TIP3   OH241357   4.732   1.139   2.847
13805TIP3    H141358   4.685   1.120   2.765
13805TIP3    H241359   4.679   1.097   2.915
13806TIP3   OH241360   2.223   0.126   6.729
13806TIP3    H141361   2.163   0.123   6.654
13806TIP3    H241362   2.195   0.052   6.784
13807TIP3   OH241363   1.770   2.766   2.502
13807TIP3    H141364   1.705   2.819   2.548
13807TIP3    H241365   1.806   2.824   2.436
13808TIP3   OH241366   3.525   1.793  -0.010
13808TIP3    H141367   3.545   1.701  -0.025
13808TIP3    H241368   3.609   1.838  -0.018
13809TIP3   OH241369   6.970   6.267   1.108
13809TIP3    H141370   6.959   6.316   1.026
13809TIP3    H241371   6.907   6.307   1.168
13810TIP3   OH241372   4.323   2.509   1.620
13810TIP3    H141373   4.267   2.577   1.658
13810TIP3    H241374   4.411   2.530   1.652
13811TIP3   OH241375   1.671   6.113   4.125
13811TIP3    H141376   1.625   6.086   4.045
13811TIP3    H241377   1.600   6.135   4.186
13812TIP3   OH241378   3.557   4.222   5.958
13812TIP3    H141379   3.530   4.223   6.049
13812TIP3    H241380   3.476   4.234   5.909
13813TIP3   OH241381   3.219   0.203   2.552
13813TIP3    H141382   3.293   0.254   2.518
13813TIP3    H241383   3.146   0.264   2.553
13814TIP3   OH241384   6.441   5.598   6.421
13814TIP3    H141385   6.350   5.569   6.418
13814TIP3    H241386   6.472   5.572   6.508
13815TIP3   OH241387   3.065   5.706   0.744
13815TIP3    H141388   3.116   5.776   0.702
13815TIP3    H241389   3.006   5.752   0.804
13816TIP3   OH241390   5.053   5.060   4.065
13816TIP3    H141391   5.013   4.976   4.084
13816TIP3    H241392   4.991   5.104   4.007
13817TIP3   OH241393   8.256   3.993   3.701
13817TIP3    H141394   8.167   3.975   3.731
13817TIP3    H241395   8.294   3.906   3.687
13818TIP3   OH241396   5.944   3.456   4.183
13818TIP3    H141397   5.922   3.544   4.154
13818TIP3    H241398   5.979   3.412   4.105
13819TIP3   OH241399   1.362   0.092   3.978
13819TIP3    H141400   1.347   0.088   4.072
13819TIP3    H241401   1.450   0.131   3.970
13820TIP3   OH241402   1.180   7.682   5.541
13820TIP3    H141403   1.170   7.686   5.636
13820TIP3    H241404   1.181   7.773   5.513
13821TIP3   OH241405   3.844   0.167   1.600
13821TIP3    H141406   3.922   0.179   1.654
13821TIP3    H241407   3.771   0.186   1.659
13822TIP3   OH241408   8.122   1.493   0.843
13822TIP3    H141409   8.098   1.420   0.786
13822TIP3    H241410   8.196   1.535   0.799
13823TIP3   OH241411   0.911   2.104   3.726
13823TIP3    H141412   0.995   2.077   3.764
13823TIP3    H241413   0.869   2.156   3.795
13824TIP3   OH241414   1.117   0.372   5.450
13824TIP3    H141415   1.180   0.364   5.521
13824TIP3    H241416   1.121   0.464   5.424
13825TIP3   OH241417   0.556   5.587   3.665
13825TIP3    H141418   0.475   5.539   3.678
13825TIP3    H241419   0.605   5.535   3.601
13826TIP3   OH241420   2.836   3.088   4.544
13826TIP3    H141421   2.745   3.095   4.514
13826TIP3    H241422   2.865   3.179   4.553
13827TIP3   OH241423   7.339   6.238   4.500
13827TIP3    H141424   7.259   6.187   4.515
13827TIP3    H241425   7.318   6.294   4.425
13828TIP3   OH241426   5.456   4.175   6.598
13828TIP3    H141427   5.440   4.268   6.578
13828TIP3    H241428   5.369   4.137   6.608
13829TIP3   OH241429   3.675   7.546   5.505
13829TIP3    H141430   3.657   7.570   5.595
13829TIP3    H241431   3.608   7.481   5.483
13830TIP3   OH241432   6.497   5.584   3.328
13830TIP3    H141433   6.489   5.489   3.321
13830TIP3    H241434   6.592   5.600   3.336
13831TIP3   OH241435   0.154   4.270   4.924
13831TIP3    H141436   0.093   4.228   4.984
13831TIP3    H241437   0.226   4.299   4.980
13832TIP3   OH241438   5.891   6.814   1.697
13832TIP3    H141439   5.959   6.816   1.764
13832TIP3    H241440   5.918   6.743   1.639
13833TIP3   OH241441   6.999   7.334   5.863
13833TIP3    H141442   6.908   7.360   5.845
13833TIP3    H241443   7.003   7.330   5.959
13834TIP3   OH241444   4.998   3.063   6.600
13834TIP3    H141445   4.952   3.067   6.516
13834TIP3    H241446   5.067   3.129   6.592
13835TIP3   OH241447   7.442   1.044   6.660
13835TIP3    H141448   7.391   1.120   6.691
13835TIP3    H241449   7.399   0.969   6.701
13836TIP3   OH241450   5.407   6.772   0.630
13836TIP3    H141451   5.443   6.738   0.548
13836TIP3    H241452   5.460   6.732   0.699
13837TIP3   OH241453   2.481   6.079   4.880
13837TIP3    H141454   2.397   6.078   4.833
13837TIP3    H241455   2.538   6.022   4.828
13838TIP3   OH241456   4.143   6.805   0.383
13838TIP3    H141457   4.160   6.749   0.459
13838TIP3    H241458   4.120   6.744   0.313
13839TIP3   OH241459   0.744   2.722   3.253
13839TIP3    H141460   0.684   2.765   3.192
13839TIP3    H241461   0.715   2.631   3.255
13840TIP3   OH241462   2.853   0.202   2.204
13840TIP3    H141463   2.841   0.123   2.151
13840TIP3    H241464   2.930   0.184   2.256
13841TIP3   OH241465   1.701   0.497   4.952
13841TIP3    H141466   1.694   0.408   4.987
13841TIP3    H241467   1.751   0.545   5.017
13842TIP3   OH241468   0.433   6.369   2.855
13842TIP3    H141469   0.473   6.324   2.780
13842TIP3    H241470   0.496   6.437   2.879
13843TIP3   OH241471   6.575   3.092   5.613
13843TIP3    H141472   6.481   3.083   5.627
13843TIP3    H241473   6.593   3.037   5.537
13844TIP3   OH241474   1.755   6.463   3.271
13844TIP3    H141475   1.757   6.427   3.182
13844TIP3    H241476   1.809   6.403   3.322
13845TIP3   OH241477   2.200   4.253   4.336
13845TIP3    H141478   2.235   4.167   4.313
13845TIP3    H241479   2.248   4.314   4.280
13846TIP3   OH241480   1.278   1.888   5.701
13846TIP3    H141481   1.198   1.857   5.659
13846TIP3    H241482   1.347   1.833   5.664
13847TIP3   OH241483   2.971   7.195   0.294
13847TIP3    H141484   2.888   7.240   0.311
13847TIP3    H241485   2.953   7.138   0.220
13848TIP3   OH241486   4.999   1.299   0.349
13848TIP3    H141487   5.064   1.240   0.309
13848TIP3    H241488   5.041   1.385   0.347
13849TIP3   OH241489   6.885   2.219   5.095
13849TIP3    H141490   6.860   2.174   5.014
13849TIP3    H241491   6.968   2.262   5.074
13850TIP3   OH241492   3.804   5.277   4.626
13850TIP3    H141493   3.793   5.306   4.536
13850TIP3    H241494   3.898   5.283   4.641
13851TIP3   OH241495   4.702   6.293   2.215
13851TIP3    H141496   4.693   6.214   2.162
13851TIP3    H241497   4.613   6.316   2.240
13852TIP3   OH241498   5.022   6.749   4.271
13852TIP3    H141499   4.999   6.660   4.297
13852TIP3    H241500   5.072   6.783   4.345
13853TIP3   OH241501   7.552   0.659   5.576
13853TIP3    H141502   7.612   0.717   5.530
13853TIP3    H241503   7.581   0.571   5.553
13854TIP3   OH241504   1.309   6.770   6.721
13854TIP3    H141505   1.384   6.829   6.732
13854TIP3    H241506   1.262   6.775   6.804
13855TIP3   OH241507   7.354   6.729   4.838
13855TIP3    H141508   7.351   6.714   4.744
13855TIP3    H241509   7.360   6.642   4.877
13856TIP3   OH241510   6.259   2.467   5.213
13856TIP3    H141511   6.301   2.389   5.178
13856TIP3    H241512   6.176   2.436   5.249
13857TIP3   OH241513   3.393   5.086   3.816
13857TIP3    H141514   3.385   5.170   3.770
13857TIP3    H241515   3.338   5.026   3.766
13858TIP3   OH241516   0.422   7.268   5.420
13858TIP3    H141517   0.402   7.302   5.507
13858TIP3    H241518   0.339   7.235   5.387
13859TIP3   OH241519   7.910   7.457   0.214
13859TIP3    H141520   7.949   7.387   0.161
13859TIP3    H241521   7.839   7.491   0.160
13860TIP3   OH241522   4.856   3.220   6.145
13860TIP3    H141523   4.866   3.140   6.198
13860TIP3    H241524   4.934   3.272   6.166
13861TIP3   OH241525   2.689   2.692   2.697
13861TIP3    H141526   2.683   2.712   2.604
13861TIP3    H241527   2.665   2.600   2.703
13862TIP3   OH241528   4.794   4.239   0.720
13862TIP3    H141529   4.728   4.307   0.731
13862TIP3    H241530   4.757   4.162   0.762
13863TIP3   OH241531   2.985   5.448   4.907
13863TIP3    H141532   2.942   5.362   4.901
13863TIP3    H241533   2.933   5.505   4.850
13864TIP3   OH241534   5.542   3.632   0.571
13864TIP3    H141535   5.580   3.574   0.636
13864TIP3    H241536   5.501   3.574   0.507
13865TIP3   OH241537   6.057   0.237   5.315
13865TIP3    H141538   6.021   0.304   5.373
13865TIP3    H241539   6.134   0.204   5.360
13866TIP3   OH241540   0.748   6.090   5.963
13866TIP3    H141541   0.797   6.096   6.046
13866TIP3    H241542   0.790   6.154   5.906
13867TIP3   OH241543   2.810   1.131   0.272
13867TIP3    H141544   2.891   1.080   0.281
13867TIP3    H241545   2.744   1.082   0.320
13868TIP3   OH241546   3.606   0.521   2.377
13868TIP3    H141547   3.661   0.593   2.408
13868TIP3    H241548   3.547   0.562   2.314
13869TIP3   OH241549   5.128   2.994   6.041
13869TIP3    H141550   5.195   2.926   6.051
13869TIP3    H241551   5.064   2.955   5.981
13870TIP3   OH241552   0.083   0.467   1.644
13870TIP3    H141553   0.178   0.458   1.651
13870TIP3    H241554   0.064   0.549   1.690
13871TIP3   OH241555   8.353   0.006   4.577
13871TIP3    H141556   8.304  -0.040   4.509
13871TIP3    H241557   8.291   0.070   4.613
13872TIP3   OH241558   3.303   0.943   6.163
13872TIP3    H141559   3.366   0.951   6.234
13872TIP3    H241560   3.224   0.908   6.204
13873TIP3   OH241561   5.105   5.246   1.641
13873TIP3    H141562   5.043   5.176   1.664
13873TIP3    H241563   5.191   5.210   1.662
13874TIP3   OH241564   2.833   6.782   6.764
13874TIP3    H141565   2.755   6.776   6.708
13874TIP3    H241566   2.814   6.855   6.823
13875TIP3   OH241567   0.239   3.173   1.753
13875TIP3    H141568   0.323   3.191   1.795
13875TIP3    H241569   0.174   3.209   1.813
13876TIP3   OH241570   7.767   2.787   2.413
13876TIP3    H141571   7.712   2.736   2.472
13876TIP3    H241572   7.711   2.804   2.337
13877TIP3   OH241573   6.134   0.429   0.647
13877TIP3    H141574   6.039   0.432   0.636
13877TIP3    H241575   6.148   0.448   0.740
13878TIP3   OH241576   0.377   2.436   4.279
13878TIP3    H141577   0.315   2.430   4.206
13878TIP3    H241578   0.326   2.408   4.355
13879TIP3   OH241579   4.833   0.639   4.536
13879TIP3    H141580   4.906   0.649   4.475
13879TIP3    H241581   4.766   0.594   4.485
13880TIP3   OH241582   2.868   2.038   6.474
13880TIP3    H141583   2.926   2.082   6.412
13880TIP3    H241584   2.831   1.964   6.426
13881TIP3   OH241585   4.353   0.234   4.212
13881TIP3    H141586   4.397   0.251   4.128
13881TIP3    H241587   4.414   0.176   4.259
13882TIP3   OH241588   8.050   4.777   5.856
13882TIP3    H141589   8.111   4.764   5.783
13882TIP3    H241590   7.964   4.753   5.820
13883TIP3   OH241591   5.640   3.620   5.017
13883TIP3    H141592   5.684   3.701   4.989
13883TIP3    H241593   5.685   3.551   4.970
13884TIP3   OH241594   0.519   2.609   1.924
13884TIP3    H141595   0.591   2.588   1.863
13884TIP3    H241596   0.478   2.525   1.942
13885TIP3   OH241597   1.112   7.036   1.998
13885TIP3    H141598   1.199   7.072   1.983
13885TIP3    H241599   1.124   6.941   1.996
13886TIP3   OH241600   0.663   7.553   6.362
13886TIP3    H141601   0.691   7.464   6.386
13886TIP3    H241602   0.570   7.555   6.381
13887TIP3   OH241603   4.766   2.973   4.191
13887TIP3    H141604   4.791   2.895   4.140
13887TIP3    H241605   4.718   2.938   4.265
13888TIP3   OH241606   3.104   4.227   4.461
13888TIP3    H141607   3.079   4.283   4.535
13888TIP3    H241608   3.157   4.283   4.405
13889TIP3   OH241609   6.022   5.864   0.710
13889TIP3    H141610   6.083   5.816   0.766
13889TIP3    H241611   5.955   5.897   0.769
13890TIP3   OH241612   1.568   4.031   2.538
13890TIP3    H141613   1.637   3.964   2.536
13890TIP3    H241614   1.558   4.052   2.631
13891TIP3   OH241615   3.725   1.708   6.272
13891TIP3    H141616   3.754   1.720   6.181
13891TIP3    H241617   3.732   1.614   6.288
13892TIP3   OH241618   5.585   7.833   2.076
13892TIP3    H141619   5.506   7.832   2.130
13892TIP3    H241620   5.553   7.812   1.988
13893TIP3   OH241621   2.793   6.314   2.971
13893TIP3    H141622   2.814   6.321   3.064
13893TIP3    H241623   2.862   6.363   2.926
13894TIP3   OH241624   4.148   0.795   4.039
13894TIP3    H141625   4.210   0.728   4.068
13894TIP3    H241626   4.185   0.826   3.956
13895TIP3   OH241627   1.805   6.446   0.128
13895TIP3    H141628   1.750   6.388   0.076
13895TIP3    H241629   1.875   6.473   0.068
13896TIP3   OH241630   6.304   0.467   6.430
13896TIP3    H141631   6.366   0.427   6.492
13896TIP3    H241632   6.225   0.483   6.482
13897TIP3   OH241633   7.446   6.217   5.136
13897TIP3    H141634   7.504   6.195   5.062
13897TIP3    H241635   7.500   6.272   5.193
13898TIP3   OH241636   6.861   3.720   1.864
13898TIP3    H141637   6.912   3.650   1.905
13898TIP3    H241638   6.884   3.799   1.913
13899TIP3   OH241639   0.686   7.220   3.545
13899TIP3    H141640   0.599   7.178   3.544
13899TIP3    H241641   0.679   7.292   3.483
13900TIP3   OH241642   7.068   0.901   2.777
13900TIP3    H141643   7.087   0.871   2.866
13900TIP3    H241644   7.075   0.822   2.723
13901TIP3   OH241645   6.768   6.196   2.732
13901TIP3    H141646   6.821   6.171   2.808
13901TIP3    H241647   6.716   6.118   2.712
13902TIP3   OH241648   3.837   4.880   3.179
13902TIP3    H141649   3.763   4.821   3.190
13902TIP3    H241650   3.864   4.868   3.088
13903TIP3   OH241651   1.633   4.707   3.671
13903TIP3    H141652   1.582   4.788   3.679
13903TIP3    H241653   1.581   4.650   3.616
13904TIP3   OH241654   0.024   5.424   0.078
13904TIP3    H141655   0.017   5.438   0.173
13904TIP3    H241656   0.058   5.507   0.044
13905TIP3   OH241657   6.116   0.495   3.179
13905TIP3    H141658   6.146   0.412   3.216
13905TIP3    H241659   6.133   0.560   3.248
13906TIP3   OH241660   7.110   0.555   1.521
13906TIP3    H141661   7.022   0.588   1.506
13906TIP3    H241662   7.098   0.478   1.577
13907TIP3   OH241663   4.968   1.677   2.260
13907TIP3    H141664   4.947   1.682   2.167
13907TIP3    H241665   4.894   1.631   2.299
13908TIP3   OH241666   6.339   7.669   1.649
13908TIP3    H141667   6.351   7.742   1.588
13908TIP3    H241668   6.266   7.697   1.705
13909TIP3   OH241669   7.692   2.833   2.173
13909TIP3    H141670   7.675   2.888   2.096
13909TIP3    H241671   7.680   2.744   2.141
13910TIP3   OH241672   1.271   7.725   5.223
13910TIP3    H141673   1.195   7.673   5.196
13910TIP3    H241674   1.302   7.683   5.303
13911TIP3   OH241675   5.973   2.502   5.414
13911TIP3    H141676   5.884   2.471   5.394
13911TIP3    H241677   6.000   2.447   5.488
13912TIP3   OH241678   1.015   3.487   0.750
13912TIP3    H141679   0.967   3.559   0.709
13912TIP3    H241680   0.957   3.458   0.820
13913TIP3   OH241681   2.228   1.474   0.656
13913TIP3    H141682   2.201   1.566   0.648
13913TIP3    H241683   2.168   1.426   0.599
13914TIP3   OH241684   5.287   1.777   5.646
13914TIP3    H141685   5.347   1.839   5.605
13914TIP3    H241686   5.332   1.692   5.638
13915TIP3   OH241687   4.384   4.388   5.575
13915TIP3    H141688   4.404   4.468   5.624
13915TIP3    H241689   4.410   4.409   5.485
13916TIP3   OH241690   6.094   0.167   5.738
13916TIP3    H141691   6.155   0.227   5.696
13916TIP3    H241692   6.009   0.209   5.729
13917TIP3   OH241693   4.721   3.518   5.218
13917TIP3    H141694   4.661   3.493   5.288
13917TIP3    H241695   4.733   3.439   5.166
13918TIP3   OH241696   7.030   3.995   4.855
13918TIP3    H141697   7.085   4.074   4.850
13918TIP3    H241698   6.945   4.023   4.820
13919TIP3   OH241699   3.381   4.662   2.091
13919TIP3    H141700   3.426   4.655   2.007
13919TIP3    H241701   3.403   4.749   2.123
13920TIP3   OH241702   7.281   6.062   3.395
13920TIP3    H141703   7.376   6.057   3.386
13920TIP3    H241704   7.259   6.150   3.364
13921TIP3   OH241705   7.684   4.874   4.520
13921TIP3    H141706   7.738   4.933   4.467
13921TIP3    H241707   7.741   4.849   4.594
13922TIP3   OH241708   3.484   4.932   4.437
13922TIP3    H141709   3.411   4.891   4.390
13922TIP3    H241710   3.453   5.021   4.456
13923TIP3   OH241711   3.981   0.570   4.328
13923TIP3    H141712   4.023   0.544   4.246
13923TIP3    H241713   3.892   0.594   4.302
13924TIP3   OH241714   5.814   6.636   0.922
13924TIP3    H141715   5.889   6.683   0.887
13924TIP3    H241716   5.810   6.661   1.015
13925TIP3   OH241717   5.367   6.975   1.616
13925TIP3    H141718   5.453   7.007   1.587
13925TIP3    H241719   5.304   7.034   1.575
13926TIP3   OH241720   1.851   3.647   4.459
13926TIP3    H141721   1.842   3.741   4.443
13926TIP3    H241722   1.848   3.608   4.372
13927TIP3   OH241723   4.360   6.184   1.690
13927TIP3    H141724   4.285   6.233   1.724
13927TIP3    H241725   4.325   6.096   1.674
13928TIP3   OH241726   5.932   4.431   3.993
13928TIP3    H141727   5.983   4.458   3.916
13928TIP3    H241728   5.996   4.425   4.063
13929TIP3   OH241729   0.936   7.143   3.654
13929TIP3    H141730   0.847   7.173   3.636
13929TIP3    H241731   0.933   7.112   3.745
13930TIP3   OH241732   0.099   4.972   5.845
13930TIP3    H141733   0.076   4.989   5.937
13930TIP3    H241734   0.031   5.016   5.795
13931TIP3   OH241735   2.242   6.677   4.286
13931TIP3    H141736   2.300   6.628   4.228
13931TIP3    H241737   2.261   6.769   4.266
13932TIP3   OH241738   2.509   2.380   3.869
13932TIP3    H141739   2.567   2.319   3.825
13932TIP3    H241740   2.476   2.437   3.800
13933TIP3   OH241741   7.376   4.724   0.341
13933TIP3    H141742   7.413   4.691   0.260
13933TIP3    H241743   7.292   4.763   0.315
13934TIP3   OH241744   1.009   2.592   6.087
13934TIP3    H141745   1.076   2.544   6.039
13934TIP3    H241746   1.057   2.664   6.129
13935TIP3   OH241747   5.167   7.028   4.919
13935TIP3    H141748   5.254   7.044   4.883
13935TIP3    H241749   5.112   7.007   4.843
13936TIP3   OH241750   8.262   1.928   0.861
13936TIP3    H141751   8.214   1.846   0.877
13936TIP3    H241752   8.287   1.924   0.769
13937TIP3   OH241753   2.528   0.908   1.659
13937TIP3    H141754   2.517   0.990   1.705
13937TIP3    H241755   2.577   0.930   1.580
13938TIP3   OH241756   4.823   1.716   4.808
13938TIP3    H141757   4.853   1.716   4.899
13938TIP3    H241758   4.731   1.690   4.813
13939TIP3   OH241759   4.250   4.001   3.443
13939TIP3    H141760   4.341   4.026   3.456
13939TIP3    H241761   4.200   4.081   3.461
13940TIP3   OH241762   1.836   6.724   0.291
13940TIP3    H141763   1.754   6.675   0.280
13940TIP3    H241764   1.866   6.740   0.202
13941TIP3   OH241765   6.659   5.468   2.065
13941TIP3    H141766   6.614   5.532   2.010
13941TIP3    H241767   6.680   5.396   2.006
13942TIP3   OH241768   3.652   5.941   1.636
13942TIP3    H141769   3.660   6.035   1.622
13942TIP3    H241770   3.733   5.916   1.681
13943TIP3   OH241771   5.587   4.093   1.822
13943TIP3    H141772   5.515   4.154   1.809
13943TIP3    H241773   5.633   4.127   1.900
13944TIP3   OH241774   7.258   7.316   4.978
13944TIP3    H141775   7.206   7.315   4.898
13944TIP3    H241776   7.302   7.401   4.977
13945TIP3   OH241777   3.625   2.086   5.445
13945TIP3    H141778   3.694   2.021   5.430
13945TIP3    H241779   3.651   2.161   5.392
13946TIP3   OH241780   7.300   6.849   2.387
13946TIP3    H141781   7.312   6.834   2.294
13946TIP3    H241782   7.208   6.871   2.397
13947TIP3   OH241783   4.361   6.622   1.335
13947TIP3    H141784   4.456   6.633   1.344
13947TIP3    H241785   4.323   6.685   1.396
13948TIP3   OH241786   4.887   6.555   5.972
13948TIP3    H141787   4.965   6.585   5.925
13948TIP3    H241788   4.921   6.491   6.035
13949TIP3   OH241789   7.402   0.972   2.364
13949TIP3    H141790   7.371   0.888   2.398
13949TIP3    H241791   7.452   1.010   2.436
13950TIP3   OH241792   5.814   3.445   4.874
13950TIP3    H141793   5.822   3.477   4.784
13950TIP3    H241794   5.897   3.399   4.890
13951TIP3   OH241795   8.127   3.101   3.190
13951TIP3    H141796   8.070   3.042   3.141
13951TIP3    H241797   8.118   3.073   3.281
13952TIP3   OH241798   2.066   6.460   3.984
13952TIP3    H141799   2.060   6.554   3.966
13952TIP3    H241800   2.118   6.454   4.064
13953TIP3   OH241801   3.435   0.169   1.857
13953TIP3    H141802   3.350   0.125   1.859
13953TIP3    H241803   3.451   0.194   1.948
13954TIP3   OH241804   3.502   0.316   2.534
13954TIP3    H141805   3.522   0.370   2.458
13954TIP3    H241806   3.478   0.378   2.602
13955TIP3   OH241807   3.626   1.236   3.798
13955TIP3    H141808   3.538   1.200   3.789
13955TIP3    H241809   3.625   1.316   3.746
13956TIP3   OH241810   5.596   4.295   2.308
13956TIP3    H141811   5.575   4.241   2.384
13956TIP3    H241812   5.513   4.334   2.283
13957TIP3   OH241813   1.803   2.496   0.703
13957TIP3    H141814   1.721   2.467   0.665
13957TIP3    H241815   1.806   2.591   0.686
13958TIP3   OH241816   6.574   2.583   3.369
13958TIP3    H141817   6.564   2.552   3.460
13958TIP3    H241818   6.528   2.517   3.317
13959TIP3   OH241819   2.808   0.750   1.725
13959TIP3    H141820   2.852   0.831   1.749
13959TIP3    H241821   2.735   0.743   1.786
13960TIP3   OH241822   6.660   4.456   3.100
13960TIP3    H141823   6.755   4.465   3.090
13960TIP3    H241824   6.636   4.385   3.041
13961TIP3   OH241825   7.271   5.101   4.620
13961TIP3    H141826   7.321   5.022   4.601
13961TIP3    H241827   7.254   5.140   4.534
13962TIP3   OH241828   5.201   5.824   6.761
13962TIP3    H141829   5.118   5.791   6.726
13962TIP3    H241830   5.193   5.919   6.756
13963TIP3   OH241831   1.296   7.344   1.464
13963TIP3    H141832   1.298   7.334   1.369
13963TIP3    H241833   1.214   7.304   1.491
13964TIP3   OH241834   5.963   0.163   4.187
13964TIP3    H141835   6.043   0.126   4.149
13964TIP3    H241836   5.911   0.087   4.212
13965TIP3   OH241837   2.730   3.883   5.765
13965TIP3    H141838   2.747   3.824   5.839
13965TIP3    H241839   2.674   3.951   5.801
13966TIP3   OH241840   0.093   4.522   1.559
13966TIP3    H141841   0.149   4.553   1.488
13966TIP3    H241842   0.138   4.445   1.593
13967TIP3   OH241843   5.350   3.765   0.732
13967TIP3    H141844   5.315   3.776   0.644
13967TIP3    H241845   5.438   3.730   0.719
13968TIP3   OH241846   5.256   1.200   0.071
13968TIP3    H141847   5.223   1.160   0.151
13968TIP3    H241848   5.178   1.225   0.022
13969TIP3   OH241849   4.769   4.217   1.279
13969TIP3    H141850   4.742   4.300   1.240
13969TIP3    H241851   4.834   4.183   1.217
13970TIP3   OH241852   0.211   2.428   5.427
13970TIP3    H141853   0.164   2.383   5.498
13970TIP3    H241854   0.275   2.482   5.472
13971TIP3   OH241855   6.024   4.885   1.025
13971TIP3    H141856   6.106   4.902   0.979
13971TIP3    H241857   6.037   4.801   1.069
13972TIP3   OH241858   6.179   6.899   0.373
13972TIP3    H141859   6.199   6.831   0.309
13972TIP3    H241860   6.239   6.971   0.352
13973TIP3   OH241861   5.745   0.945   6.005
13973TIP3    H141862   5.742   0.930   5.911
13973TIP3    H241863   5.825   0.901   6.034
13974TIP3   OH241864   1.095   3.181   4.868
13974TIP3    H141865   1.123   3.122   4.798
13974TIP3    H241866   1.108   3.269   4.832
13975TIP3   OH241867   6.347   4.590   4.424
13975TIP3    H141868   6.429   4.564   4.465
13975TIP3    H241869   6.310   4.654   4.484
13976TIP3   OH241870   3.959   1.119   0.409
13976TIP3    H141871   4.018   1.186   0.443
13976TIP3    H241872   3.906   1.092   0.484
13977TIP3   OH241873   4.867   7.178   3.927
13977TIP3    H141874   4.844   7.269   3.905
13977TIP3    H241875   4.784   7.138   3.953
13978TIP3   OH241876   1.497   7.653   1.289
13978TIP3    H141877   1.546   7.645   1.371
13978TIP3    H241878   1.407   7.666   1.316
13979TIP3   OH241879   3.958   5.511   5.018
13979TIP3    H141880   3.891   5.527   5.084
13979TIP3    H241881   4.001   5.596   5.006
13980TIP3   OH241882   6.832   3.279   5.391
13980TIP3    H141883   6.883   3.335   5.332
13980TIP3    H241884   6.748   3.267   5.346
13981TIP3   OH241885   4.561   0.131   1.299
13981TIP3    H141886   4.651   0.159   1.285
13981TIP3    H241887   4.568   0.047   1.345
13982TIP3   OH241888   7.275   1.005   6.155
13982TIP3    H141889   7.319   1.010   6.240
13982TIP3    H241890   7.185   0.978   6.177
13983TIP3   OH241891   5.259   5.078   5.293
13983TIP3    H141892   5.302   5.162   5.280
13983TIP3    H241893   5.246   5.072   5.388
13984TIP3   OH241894   6.512   1.398   2.820
13984TIP3    H141895   6.493   1.322   2.874
13984TIP3    H241896   6.594   1.433   2.855
13985TIP3   OH241897   3.874   6.453   6.714
13985TIP3    H141898   3.845   6.362   6.715
13985TIP3    H241899   3.891   6.472   6.622
13986TIP3   OH241900   4.165   4.665   5.924
13986TIP3    H141901   4.146   4.572   5.929
13986TIP3    H241902   4.079   4.707   5.920
13987TIP3   OH241903   7.756   6.656   5.872
13987TIP3    H141904   7.836   6.659   5.925
13987TIP3    H241905   7.688   6.629   5.934
13988TIP3   OH241906   2.454   1.211   3.351
13988TIP3    H141907   2.424   1.287   3.302
13988TIP3    H241908   2.501   1.158   3.286
13989TIP3   OH241909   4.143   7.604   6.601
13989TIP3    H141910   4.095   7.680   6.632
13989TIP3    H241911   4.230   7.612   6.641
13990TIP3   OH241912   2.937   4.491   1.476
13990TIP3    H141913   2.893   4.407   1.492
13990TIP3    H241914   2.992   4.475   1.399
13991TIP3   OH241915   4.954   2.517   6.353
13991TIP3    H141916   5.008   2.462   6.409
13991TIP3    H241917   4.915   2.456   6.290
13992TIP3   OH241918   4.047   7.111   6.330
13992TIP3    H141919   3.998   7.191   6.310
13992TIP3    H241920   3.980   7.043   6.337
13993TIP3   OH241921   6.361   2.363   0.902
13993TIP3    H141922   6.355   2.396   0.992
13993TIP3    H241923   6.433   2.299   0.905
13994TIP3   OH241924   8.026   0.325   1.128
13994TIP3    H141925   8.085   0.277   1.186
13994TIP3    H241926   8.077   0.342   1.049
13995TIP3   OH241927   8.168   7.010   4.477
13995TIP3    H141928   8.174   7.083   4.416
13995TIP3    H241929   8.235   7.028   4.543
13996TIP3   OH241930   1.904   4.306   0.980
13996TIP3    H141931   1.897   4.246   0.906
13996TIP3    H241932   1.981   4.360   0.961
13997TIP3   OH241933   0.518   0.969   5.827
13997TIP3    H141934   0.556   1.039   5.775
13997TIP3    H241935   0.579   0.896   5.817
13998TIP3   OH241936   0.964   2.549   3.767
13998TIP3    H141937   0.907   2.587   3.700
13998TIP3    H241938   1.029   2.616   3.784
13999TIP3   OH241939   7.887   2.729   6.623
13999TIP3    H141940   7.963   2.721   6.565
13999TIP3    H241941   7.901   2.664   6.691
14000TIP3   OH241942   6.424   7.531   3.963
14000TIP3    H141943   6.430   7.536   3.867
14000TIP3    H241944   6.333   7.551   3.983
14001TIP3   OH241945   6.705   3.364   3.136
14001TIP3    H141946   6.700   3.329   3.225
14001TIP3    H241947   6.624   3.334   3.095
14002TIP3   OH241948   0.592   5.988   2.807
14002TIP3    H141949   0.501   5.964   2.789
14002TIP3    H241950   0.602   6.075   2.768
14003TIP3   OH241951   5.564   3.593   3.657
14003TIP3    H141952   5.486   3.646   3.640
14003TIP3    H241953   5.547   3.550   3.740
14004TIP3   OH241954   2.409   1.315   4.144
14004TIP3    H141955   2.436   1.335   4.234
14004TIP3    H241956   2.489   1.326   4.092
14005TIP3   OH241957   4.620   5.802   2.595
14005TIP3    H141958   4.599   5.818   2.687
14005TIP3    H241959   4.715   5.796   2.592
14006TIP3   OH241960   4.171   1.111   0.881
14006TIP3    H141961   4.129   1.176   0.938
14006TIP3    H241962   4.233   1.066   0.939
14007TIP3   OH241963   2.661   0.156   0.433
14007TIP3    H141964   2.708   0.075   0.415
14007TIP3    H241965   2.727   0.225   0.424
14008TIP3   OH241966   1.216   6.312   5.288
14008TIP3    H141967   1.156   6.384   5.313
14008TIP3    H241968   1.160   6.249   5.244
14009TIP3   OH241969   3.953   2.660   5.854
14009TIP3    H141970   3.977   2.666   5.762
14009TIP3    H241971   3.961   2.567   5.875
14010TIP3   OH241972   1.771   6.718   5.798
14010TIP3    H141973   1.835   6.712   5.727
14010TIP3    H241974   1.717   6.794   5.776
14011TIP3   OH241975   7.519   7.209   4.819
14011TIP3    H141976   7.448   7.224   4.757
14011TIP3    H241977   7.586   7.273   4.794
14012TIP3   OH241978   6.529   3.202   0.959
14012TIP3    H141979   6.451   3.172   0.913
14012TIP3    H241980   6.598   3.199   0.894
14013TIP3   OH241981   4.723   1.693   1.531
14013TIP3    H141982   4.711   1.615   1.476
14013TIP3    H241983   4.788   1.667   1.596
14014TIP3   OH241984   2.969   0.468   5.802
14014TIP3    H141985   3.013   0.526   5.739
14014TIP3    H241986   2.884   0.508   5.816
14015TIP3   OH241987   7.618   2.068   6.541
14015TIP3    H141988   7.649   1.984   6.508
14015TIP3    H241989   7.607   2.122   6.463
14016TIP3   OH241990   5.523   7.082   3.804
14016TIP3    H141991   5.504   7.149   3.737
14016TIP3    H241992   5.573   7.129   3.871
14017TIP3   OH241993   7.782   0.242   1.031
14017TIP3    H141994   7.796   0.229   0.938
14017TIP3    H241995   7.846   0.308   1.057
14018TIP3   OH241996   8.113   4.832   6.733
14018TIP3    H141997   8.082   4.766   6.795
14018TIP3    H241998   8.078   4.914   6.766
14019TIP3   OH241999   6.829   2.278   2.360
14019TIP3    H142000   6.910   2.237   2.392
14019TIP3    H242001   6.846   2.296   2.268
14020TIP3   OH242002   5.706   1.631   6.300
14020TIP3    H142003   5.794   1.595   6.310
14020TIP3    H242004   5.696   1.690   6.375
14021TIP3   OH242005   6.189   1.606   4.598
14021TIP3    H142006   6.228   1.518   4.593
14021TIP3    H242007   6.102   1.592   4.634
14022TIP3   OH242008   3.486   0.397   5.782
14022TIP3    H142009   3.417   0.380   5.719
14022TIP3    H242010   3.441   0.407   5.865
14023TIP3   OH242011   8.135   7.064   5.960
14023TIP3    H142012   8.065   7.112   6.005
14023TIP3    H242013   8.122   7.085   5.867
14024TIP3   OH242014   6.979   5.842   6.327
14024TIP3    H142015   6.966   5.763   6.274
14024TIP3    H242016   6.949   5.914   6.270
14025TIP3   OH242017   5.144   7.177   2.485
14025TIP3    H142018   5.193   7.229   2.421
14025TIP3    H242019   5.149   7.227   2.566
14026TIP3   OH242020   6.349   2.055   3.084
14026TIP3    H142021   6.434   2.099   3.085
14026TIP3    H242022   6.352   1.994   3.158
14027TIP3   OH242023   1.281   3.149   5.849
14027TIP3    H142024   1.267   3.240   5.876
14027TIP3    H242025   1.248   3.097   5.922
14028TIP3   OH242026   3.966   5.471   3.170
14028TIP3    H142027   3.958   5.551   3.118
14028TIP3    H242028   3.969   5.400   3.106
14029TIP3   OH242029   7.065   0.204   0.543
14029TIP3    H142030   7.065   0.292   0.505
14029TIP3    H242031   7.133   0.208   0.610
14030TIP3   OH242032   6.691   6.281   6.098
14030TIP3    H142033   6.659   6.193   6.079
14030TIP3    H242034   6.726   6.313   6.015
14031TIP3   OH242035   8.098   1.366   0.115
14031TIP3    H142036   8.191   1.389   0.112
14031TIP3    H242037   8.092   1.285   0.064
14032TIP3   OH242038   5.599   0.321   6.132
14032TIP3    H142039   5.565   0.325   6.221
14032TIP3    H242040   5.694   0.322   6.143
14033TIP3   OH242041   3.904   2.917   4.476
14033TIP3    H142042   3.867   2.831   4.494
14033TIP3    H242043   3.954   2.939   4.555
14034TIP3   OH242044   7.787   7.534   1.824
14034TIP3    H142045   7.715   7.591   1.796
14034TIP3    H242046   7.830   7.583   1.894
14035TIP3   OH242047   3.761   4.740   1.863
14035TIP3    H142048   3.835   4.684   1.840
14035TIP3    H242049   3.782   4.773   1.951
14036TIP3   OH242050   1.811   7.040   6.346
14036TIP3    H142051   1.757   7.098   6.294
14036TIP3    H242052   1.896   7.041   6.302
14037TIP3   OH242053   5.170   5.324   6.531
14037TIP3    H142054   5.127   5.270   6.464
14037TIP3    H242055   5.136   5.290   6.614
14038TIP3   OH242056   0.957   4.328   6.309
14038TIP3    H142057   0.998   4.383   6.376
14038TIP3    H242058   1.011   4.340   6.231
14039TIP3   OH242059   5.736   5.586   1.589
14039TIP3    H142060   5.830   5.603   1.580
14039TIP3    H242061   5.716   5.525   1.518
14040TIP3   OH242062   5.169   7.148   0.557
14040TIP3    H142063   5.138   7.106   0.637
14040TIP3    H242064   5.199   7.076   0.502
14041TIP3   OH242065   2.997   1.369   3.925
14041TIP3    H142066   2.942   1.386   4.002
14041TIP3    H242067   2.954   1.296   3.880
14042TIP3   OH242068   3.421   4.525   0.490
14042TIP3    H142069   3.347   4.492   0.439
14042TIP3    H242070   3.496   4.477   0.456
14043TIP3   OH242071   3.530   5.907   5.696
14043TIP3    H142072   3.582   5.866   5.766
14043TIP3    H242073   3.541   5.848   5.621
14044TIP3   OH242074   6.633   6.088   5.270
14044TIP3    H142075   6.587   6.172   5.264
14044TIP3    H242076   6.708   6.098   5.211
14045TIP3   OH242077   7.781   2.520   4.881
14045TIP3    H142078   7.771   2.497   4.974
14045TIP3    H242079   7.691   2.530   4.850
14046TIP3   OH242080   0.476   2.584   3.394
14046TIP3    H142081   0.405   2.522   3.411
14046TIP3    H242082   0.538   2.537   3.338
14047TIP3   OH242083   6.779   4.501   3.389
14047TIP3    H142084   6.726   4.426   3.418
14047TIP3    H242085   6.858   4.461   3.353
14048TIP3   OH242086   4.124   3.680   6.422
14048TIP3    H142087   4.125   3.585   6.427
14048TIP3    H242088   4.132   3.699   6.329
14049TIP3   OH242089   2.348   3.653   6.717
14049TIP3    H142090   2.341   3.587   6.786
14049TIP3    H242091   2.258   3.684   6.704
14050TIP3   OH242092   4.189   6.629   5.380
14050TIP3    H142093   4.161   6.586   5.299
14050TIP3    H242094   4.161   6.720   5.370
14051TIP3   OH242095   5.228   2.371   4.306
14051TIP3    H142096   5.303   2.319   4.278
14051TIP3    H242097   5.159   2.307   4.323
14052TIP3   OH242098   6.467   6.451   2.254
14052TIP3    H142099   6.530   6.423   2.320
14052TIP3    H242100   6.383   6.451   2.299
14053TIP3   OH242101   6.680   0.712   3.342
14053TIP3    H142102   6.604   0.759   3.308
14053TIP3    H242103   6.643   0.651   3.406
14054TIP3   OH242104   6.707   3.856   5.003
14054TIP3    H142105   6.753   3.908   4.938
14054TIP3    H242106   6.775   3.805   5.046
14055TIP3   OH242107   6.756   5.508   0.698
14055TIP3    H142108   6.834   5.517   0.644
14055TIP3    H242109   6.787   5.523   0.787
14056TIP3   OH242110   3.859   7.392   0.712
14056TIP3    H142111   3.894   7.479   0.728
14056TIP3    H242112   3.776   7.390   0.759
14057TIP3   OH242113   6.141   3.718   6.051
14057TIP3    H142114   6.136   3.807   6.085
14057TIP3    H242115   6.124   3.662   6.126
14058TIP3   OH242116   3.167   3.957   0.681
14058TIP3    H142117   3.243   4.013   0.668
14058TIP3    H242118   3.108   3.979   0.609
14059TIP3   OH242119   8.151   1.385   1.850
14059TIP3    H142120   8.196   1.469   1.844
14059TIP3    H242121   8.083   1.399   1.916
14060TIP3   OH242122   2.862   7.533   4.062
14060TIP3    H142123   2.794   7.595   4.035
14060TIP3    H242124   2.837   7.509   4.151
14061TIP3   OH242125   5.615   5.725   2.981
14061TIP3    H142126   5.640   5.724   3.073
14061TIP3    H242127   5.573   5.641   2.966
14062TIP3   OH242128   3.578   0.019   0.607
14062TIP3    H142129   3.581   0.080   0.681
14062TIP3    H242130   3.669  -0.006   0.593
14063TIP3   OH242131   7.491   0.201   4.139
14063TIP3    H142132   7.478   0.144   4.063
14063TIP3    H242133   7.559   0.158   4.191
14064TIP3   OH242134   0.338   0.962   2.905
14064TIP3    H142135   0.282   0.936   2.977
14064TIP3    H242136   0.355   0.881   2.857
14065TIP3   OH242137   3.236   3.894   3.708
14065TIP3    H142138   3.188   3.857   3.634
14065TIP3    H242139   3.181   3.878   3.784
14066TIP3   OH242140   7.290   7.462   0.163
14066TIP3    H142141   7.314   7.549   0.132
14066TIP3    H242142   7.372   7.422   0.190
14067TIP3   OH242143   2.676   0.483   1.610
14067TIP3    H142144   2.734   0.557   1.624
14067TIP3    H242145   2.606   0.495   1.675
14068TIP3   OH242146   4.475   6.737   1.749
14068TIP3    H142147   4.526   6.730   1.829
14068TIP3    H242148   4.469   6.832   1.733
14069TIP3   OH242149   3.117   4.799   0.578
14069TIP3    H142150   3.173   4.729   0.609
14069TIP3    H242151   3.121   4.794   0.483
14070TIP3   OH242152   4.045   0.092   5.487
14070TIP3    H142153   3.991   0.163   5.454
14070TIP3    H242154   4.034   0.096   5.582
14071TIP3   OH242155   3.099   2.854   3.873
14071TIP3    H142156   3.082   2.764   3.846
14071TIP3    H242157   3.119   2.900   3.791
14072TIP3   OH242158   3.493   4.428   1.601
14072TIP3    H142159   3.401   4.407   1.614
14072TIP3    H242160   3.533   4.345   1.573
14073TIP3   OH242161   4.268   5.487   2.751
14073TIP3    H142162   4.286   5.395   2.733
14073TIP3    H242163   4.321   5.535   2.688
14074TIP3   OH242164   7.339   7.546   5.950
14074TIP3    H142165   7.305   7.509   5.868
14074TIP3    H242166   7.366   7.634   5.926
14075TIP3   OH242167   2.397   5.434   3.377
14075TIP3    H142168   2.360   5.517   3.407
14075TIP3    H242169   2.339   5.368   3.413
14076TIP3   OH242170   4.877   0.534   3.122
14076TIP3    H142171   4.898   0.628   3.124
14076TIP3    H242172   4.799   0.528   3.066
14077TIP3   OH242173   5.992   0.076   1.767
14077TIP3    H142174   6.069   0.028   1.798
14077TIP3    H242175   5.996   0.066   1.672
14078TIP3   OH242176   0.630   7.645   2.290
14078TIP3    H142177   0.664   7.735   2.283
14078TIP3    H242178   0.623   7.630   2.384
14079TIP3   OH242179   0.742   5.889   2.243
14079TIP3    H142180   0.672   5.952   2.230
14079TIP3    H242181   0.767   5.862   2.154
14080TIP3   OH242182   6.308   0.568   2.361
14080TIP3    H142183   6.252   0.584   2.437
14080TIP3    H242184   6.337   0.477   2.371
14081TIP3   OH242185   5.089   5.696   2.348
14081TIP3    H142186   5.159   5.677   2.411
14081TIP3    H242187   5.133   5.702   2.264
14082TIP3   OH242188   2.443   5.539   4.338
14082TIP3    H142189   2.519   5.557   4.392
14082TIP3    H242190   2.479   5.504   4.256
14083TIP3   OH242191   4.763   2.144   0.267
14083TIP3    H142192   4.732   2.053   0.269
14083TIP3    H242193   4.843   2.141   0.215
14084TIP3   OH242194   5.369   3.105   0.304
14084TIP3    H142195   5.291   3.070   0.262
14084TIP3    H242196   5.343   3.123   0.394
14085TIP3   OH242197   5.269   0.008   0.225
14085TIP3    H142198   5.297   0.039   0.139
14085TIP3    H242199   5.173   0.008   0.221
14086TIP3   OH242200   6.883   5.202   3.956
14086TIP3    H142201   6.799   5.157   3.964
14086TIP3    H242202   6.942   5.136   3.921
14087TIP3   OH242203   8.318   0.698   0.161
14087TIP3    H142204   8.264   0.638   0.214
14087TIP3    H242205   8.336   0.649   0.081
14088TIP3   OH242206   4.663   2.255   3.464
14088TIP3    H142207   4.602   2.319   3.501
14088TIP3    H242208   4.607   2.183   3.433
14089TIP3   OH242209   7.795   5.429   5.399
14089TIP3    H142210   7.823   5.407   5.310
14089TIP3    H242211   7.754   5.349   5.432
14090TIP3   OH242212   7.079   5.209   3.267
14090TIP3    H142213   7.118   5.132   3.308
14090TIP3    H242214   7.080   5.190   3.173
14091TIP3   OH242215   1.401   6.253   4.113
14091TIP3    H142216   1.462   6.264   4.041
14091TIP3    H242217   1.317   6.286   4.080
14092TIP3   OH242218   6.152   6.887   1.532
14092TIP3    H142219   6.083   6.899   1.467
14092TIP3    H242220   6.173   6.793   1.528
14093TIP3   OH242221   5.981   3.253   1.029
14093TIP3    H142222   5.968   3.209   0.944
14093TIP3    H242223   5.926   3.203   1.090
14094TIP3   OH242224   2.717   1.179   6.498
14094TIP3    H142225   2.697   1.271   6.481
14094TIP3    H242226   2.806   1.180   6.534
14095TIP3   OH242227   6.651   7.062   5.885
14095TIP3    H142228   6.568   7.054   5.839
14095TIP3    H242229   6.630   7.107   5.967
14096TIP3   OH242230   6.044   0.145   3.149
14096TIP3    H142231   6.114   0.175   3.206
14096TIP3    H242232   6.068   0.175   3.061
14097TIP3   OH242233   1.585   3.478   2.752
14097TIP3    H142234   1.659   3.491   2.694
14097TIP3    H242235   1.552   3.391   2.731
14098TIP3   OH242236   6.811   2.029   3.222
14098TIP3    H142237   6.879   2.096   3.213
14098TIP3    H242238   6.771   2.047   3.307
14099TIP3   OH242239   1.734   2.588   0.980
14099TIP3    H142240   1.673   2.520   0.951
14099TIP3    H242241   1.820   2.555   0.953
14100TIP3   OH242242   3.048   0.506   6.065
14100TIP3    H142243   3.115   0.574   6.062
14100TIP3    H242244   3.002   0.514   5.981
14101TIP3   OH242245   3.405   6.160   0.997
14101TIP3    H142246   3.383   6.104   0.922
14101TIP3    H242247   3.470   6.109   1.046
14102TIP3   OH242248   1.900   0.947   2.308
14102TIP3    H142249   1.940   0.882   2.251
14102TIP3    H242250   1.951   0.944   2.389
14103TIP3   OH242251   4.198   2.622   0.867
14103TIP3    H142252   4.241   2.571   0.798
14103TIP3    H242253   4.154   2.556   0.920
14104TIP3   OH242254   7.818   2.946   4.513
14104TIP3    H142255   7.886   2.901   4.562
14104TIP3    H242256   7.835   3.039   4.527
14105TIP3   OH242257   4.664   6.174   3.104
14105TIP3    H142258   4.631   6.263   3.108
14105TIP3    H242259   4.603   6.128   3.046
14106TIP3   OH242260   7.513   6.826   3.703
14106TIP3    H142261   7.518   6.917   3.673
14106TIP3    H242262   7.598   6.809   3.743
14107TIP3   OH242263   5.966   3.912   6.442
14107TIP3    H142264   5.929   3.824   6.447
14107TIP3    H242265   6.060   3.898   6.426
14108TIP3   OH242266   6.851   5.529   6.741
14108TIP3    H142267   6.807   5.445   6.726
14108TIP3    H242268   6.824   5.584   6.667
14109TIP3   OH242269   8.304   6.609   0.105
14109TIP3    H142270   8.259   6.670   0.046
14109TIP3    H242271   8.314   6.658   0.186
14110TIP3   OH242272   3.004   4.285   0.814
14110TIP3    H142273   2.954   4.209   0.784
14110TIP3    H242274   3.085   4.249   0.850
14111TIP3   OH242275   5.401   2.482   5.139
14111TIP3    H142276   5.387   2.453   5.048
14111TIP3    H242277   5.327   2.446   5.187
14112TIP3   OH242278   6.462   6.254   0.142
14112TIP3    H142279   6.506   6.200   0.077
14112TIP3    H242280   6.431   6.193   0.208
14113TIP3   OH242281   6.546   1.421   6.009
14113TIP3    H142282   6.631   1.451   5.976
14113TIP3    H242283   6.554   1.326   6.013
14114TIP3   OH242284   0.946   6.999   1.756
14114TIP3    H142285   0.915   6.909   1.768
14114TIP3    H242286   0.984   7.022   1.840
14115TIP3   OH242287   0.249   7.724   1.782
14115TIP3    H142288   0.232   7.801   1.728
14115TIP3    H242289   0.313   7.754   1.846
14116TIP3   OH242290   2.601   5.121   2.361
14116TIP3    H142291   2.642   5.070   2.431
14116TIP3    H242292   2.662   5.193   2.345
14117TIP3   OH242293   7.682   6.587   1.657
14117TIP3    H142294   7.685   6.622   1.568
14117TIP3    H242295   7.615   6.638   1.701
14118TIP3   OH242296   1.338   4.251   3.969
14118TIP3    H142297   1.357   4.158   3.968
14118TIP3    H242298   1.313   4.269   4.060
14119TIP3   OH242299   2.603   4.020   2.507
14119TIP3    H142300   2.538   3.971   2.556
14119TIP3    H242301   2.554   4.090   2.464
14120TIP3   OH242302   7.225   1.917   1.657
14120TIP3    H142303   7.159   1.848   1.662
14120TIP3    H242304   7.303   1.879   1.697
14121TIP3   OH242305   2.918   7.069   3.661
14121TIP3    H142306   2.927   7.153   3.616
14121TIP3    H242307   2.870   7.013   3.599
14122TIP3   OH242308   5.117   1.434   3.471
14122TIP3    H142309   5.060   1.414   3.397
14122TIP3    H242310   5.205   1.440   3.433
14123TIP3   OH242311   4.001   4.494   0.789
14123TIP3    H142312   4.092   4.472   0.807
14123TIP3    H242313   4.006   4.578   0.743
14124TIP3   OH242314   6.329   1.851   6.259
14124TIP3    H142315   6.420   1.845   6.287
14124TIP3    H242316   6.286   1.901   6.328
14125TIP3   OH242317   8.059   0.334   6.466
14125TIP3    H142318   8.130   0.383   6.425
14125TIP3    H242319   8.100   0.293   6.542
14126TIP3   OH242320   0.612   6.897   4.934
14126TIP3    H142321   0.544   6.881   4.869
14126TIP3    H242322   0.623   6.992   4.935
14127TIP3   OH242323   8.123   2.903   3.391
14127TIP3    H142324   8.192   2.868   3.335
14127TIP3    H242325   8.170   2.948   3.461
14128TIP3   OH242326   2.267   5.784   6.628
14128TIP3    H142327   2.281   5.876   6.607
14128TIP3    H242328   2.227   5.747   6.548
14129TIP3   OH242329   1.967   3.452   4.659
14129TIP3    H142330   1.975   3.506   4.581
14129TIP3    H242331   1.903   3.497   4.713
14130TIP3   OH242332   2.009   4.907   5.946
14130TIP3    H142333   2.087   4.953   5.978
14130TIP3    H242334   2.005   4.827   5.998
14131TIP3   OH242335   2.740   0.620   5.495
14131TIP3    H142336   2.819   0.567   5.501
14131TIP3    H242337   2.734   0.645   5.403
14132TIP3   OH242338   6.484   0.576   4.603
14132TIP3    H142339   6.467   0.571   4.509
14132TIP3    H242340   6.566   0.529   4.616
14133TIP3   OH242341   3.671   0.974   0.858
14133TIP3    H142342   3.585   0.980   0.900
14133TIP3    H242343   3.729   1.026   0.915
14134TIP3   OH242344   0.231   6.635   1.891
14134TIP3    H142345   0.200   6.557   1.938
14134TIP3    H242346   0.258   6.602   1.805
14135TIP3   OH242347   7.469   5.993   2.742
14135TIP3    H142348   7.431   6.060   2.685
14135TIP3    H242349   7.482   6.037   2.826
14136TIP3   OH242350   0.931   5.819   4.655
14136TIP3    H142351   0.860   5.875   4.623
14136TIP3    H242352   0.894   5.731   4.652
14137TIP3   OH242353   4.898   2.325   6.157
14137TIP3    H142354   4.915   2.274   6.077
14137TIP3    H242355   4.850   2.266   6.214
14138TIP3   OH242356   0.142   4.524   6.710
14138TIP3    H142357   0.216   4.509   6.650
14138TIP3    H242358   0.130   4.439   6.753
14139TIP3   OH242359   1.010   3.347   5.647
14139TIP3    H142360   0.931   3.353   5.700
14139TIP3    H242361   0.980   3.316   5.562
14140TIP3   OH242362   2.141   7.163   0.222
14140TIP3    H142363   2.201   7.169   0.297
14140TIP3    H242364   2.071   7.105   0.251
14141TIP3   OH242365   4.472   2.656   6.325
14141TIP3    H142366   4.399   2.638   6.266
14141TIP3    H242367   4.476   2.751   6.331
14142TIP3   OH242368   2.790   0.500   2.681
14142TIP3    H142369   2.777   0.584   2.637
14142TIP3    H242370   2.704   0.458   2.677
14143TIP3   OH242371   2.831   3.916   3.162
14143TIP3    H142372   2.751   3.871   3.136
14143TIP3    H242373   2.895   3.845   3.177
14144TIP3   OH242374   0.815   3.231   6.730
14144TIP3    H142375   0.794   3.172   6.658
14144TIP3    H242376   0.816   3.174   6.808
14145TIP3   OH242377   2.006   3.201   4.372
14145TIP3    H142378   2.070   3.238   4.432
14145TIP3    H242379   1.934   3.172   4.428
14146TIP3   OH242380   6.626   5.132   0.774
14146TIP3    H142381   6.652   5.040   0.764
14146TIP3    H242382   6.578   5.135   0.856
14147TIP3   OH242383   5.247   2.410   6.263
14147TIP3    H142384   5.243   2.315   6.249
14147TIP3    H242385   5.212   2.448   6.183
14148TIP3   OH242386   5.108   5.120   2.867
14148TIP3    H142387   5.099   5.086   2.956
14148TIP3    H242388   5.046   5.192   2.862
14149TIP3   OH242389   6.821   5.673   0.212
14149TIP3    H142390   6.738   5.665   0.165
14149TIP3    H242391   6.888   5.653   0.146
14150TIP3   OH242392   0.286   4.574   2.423
14150TIP3    H142393   0.200   4.555   2.462
14150TIP3    H242394   0.305   4.664   2.452
14151TIP3   OH242395   4.143   2.044   0.015
14151TIP3    H142396   4.193   1.999  -0.053
14151TIP3    H242397   4.054   2.010   0.006
14152TIP3   OH242398   1.722   1.481   0.814
14152TIP3    H142399   1.803   1.530   0.820
14152TIP3    H242400   1.748   1.389   0.820
14153TIP3   OH242401   3.847   1.187   0.955
14153TIP3    H142402   3.783   1.259   0.947
14153TIP3    H242403   3.932   1.229   0.942
14154TIP3   OH242404   2.564   6.996   6.731
14154TIP3    H142405   2.514   6.978   6.811
14154TIP3    H242406   2.505   6.970   6.660
14155TIP3   OH242407   1.606   2.979   2.760
14155TIP3    H142408   1.550   2.905   2.737
14155TIP3    H242409   1.579   3.049   2.701
14156TIP3   OH242410   3.811   0.948   6.445
14156TIP3    H142411   3.857   0.924   6.525
14156TIP3    H242412   3.818   0.870   6.390
14157TIP3   OH242413   2.640   0.074   3.220
14157TIP3    H142414   2.545   0.089   3.221
14157TIP3    H242415   2.665   0.086   3.128
14158TIP3   OH242416   7.550   6.242   3.130
14158TIP3    H142417   7.534   6.299   3.205
14158TIP3    H242418   7.563   6.155   3.168
14159TIP3   OH242419   2.385   3.677   0.030
14159TIP3    H142420   2.311   3.621   0.053
14159TIP3    H242421   2.407   3.722   0.112
14160TIP3   OH242422   6.542   3.712   0.270
14160TIP3    H142423   6.617   3.770   0.281
14160TIP3    H242424   6.573   3.643   0.211
14161TIP3   OH242425   5.944   4.685   5.558
14161TIP3    H142426   5.966   4.765   5.606
14161TIP3    H242427   5.849   4.679   5.563
14162TIP3   OH242428   5.125   3.030   4.301
14162TIP3    H142429   5.044   3.081   4.305
14162TIP3    H242430   5.169   3.048   4.384
14163TIP3   OH242431   6.846   6.366   3.629
14163TIP3    H142432   6.794   6.341   3.552
14163TIP3    H242433   6.846   6.287   3.684
14164TIP3   OH242434   4.756   4.943   0.480
14164TIP3    H142435   4.769   4.976   0.391
14164TIP3    H242436   4.691   5.001   0.519
14165TIP3   OH242437   7.544   4.024   2.178
14165TIP3    H142438   7.539   3.973   2.259
14165TIP3    H242439   7.497   3.971   2.114
14166TIP3   OH242440   0.441   4.942   4.326
14166TIP3    H142441   0.513   4.962   4.266
14166TIP3    H242442   0.411   4.855   4.301
14167TIP3   OH242443   3.052   5.417   2.573
14167TIP3    H142444   3.135   5.373   2.591
14167TIP3    H242445   3.027   5.457   2.656
14168TIP3   OH242446   0.934   6.974   5.538
14168TIP3    H142447   0.839   6.958   5.536
14168TIP3    H242448   0.958   6.959   5.629
14169TIP3   OH242449   1.978   1.769   5.917
14169TIP3    H142450   1.896   1.817   5.926
14169TIP3    H242451   2.039   1.814   5.976
14170TIP3   OH242452   7.038   1.304   6.436
14170TIP3    H142453   7.028   1.317   6.530
14170TIP3    H242454   7.132   1.290   6.423
14171TIP3   OH242455   1.748   4.068   3.811
14171TIP3    H142456   1.690   4.143   3.804
14171TIP3    H242457   1.810   4.092   3.881
14172TIP3   OH242458   7.874   3.018   2.277
14172TIP3    H142459   7.852   2.942   2.331
14172TIP3    H242460   7.821   3.007   2.197
14173TIP3   OH242461   4.666   3.748   3.787
14173TIP3    H142462   4.707   3.783   3.708
14173TIP3    H242463   4.738   3.706   3.835
14174TIP3   OH242464   1.423   7.128   2.420
14174TIP3    H142465   1.461   7.173   2.345
14174TIP3    H242466   1.349   7.184   2.446
14175TIP3   OH242467   2.621   4.724   3.971
14175TIP3    H142468   2.696   4.672   3.942
14175TIP3    H242469   2.626   4.722   4.067
14176TIP3   OH242470   6.165   5.893   0.476
14176TIP3    H142471   6.118   5.877   0.558
14176TIP3    H242472   6.099   5.889   0.408
14177TIP3   OH242473   3.530   0.528   3.664
14177TIP3    H142474   3.450   0.578   3.685
14177TIP3    H242475   3.575   0.520   3.748
14178TIP3   OH242476   1.811   4.121   1.700
14178TIP3    H142477   1.806   4.201   1.753
14178TIP3    H242478   1.722   4.109   1.667
14179TIP3   OH242479   6.382   5.952   2.087
14179TIP3    H142480   6.411   5.974   1.998
14179TIP3    H242481   6.431   6.011   2.143
14180TIP3   OH242482   4.609   0.767   2.647
14180TIP3    H142483   4.564   0.691   2.610
14180TIP3    H242484   4.680   0.729   2.699
14181TIP3   OH242485   6.412   1.591   1.796
14181TIP3    H142486   6.396   1.633   1.880
14181TIP3    H242487   6.482   1.642   1.756
14182TIP3   OH242488   3.270   2.166   2.660
14182TIP3    H142489   3.208   2.235   2.685
14182TIP3    H242490   3.280   2.113   2.739
14183TIP3   OH242491   5.165   2.475   0.805
14183TIP3    H142492   5.207   2.394   0.778
14183TIP3    H242493   5.096   2.489   0.741
14184TIP3   OH242494   3.418   6.813   1.199
14184TIP3    H142495   3.353   6.760   1.244
14184TIP3    H242496   3.494   6.755   1.189
14185TIP3   OH242497   3.199   2.913  -0.025
14185TIP3    H142498   3.237   2.903   0.062
14185TIP3    H242499   3.120   2.966  -0.011
14186TIP3   OH242500   1.004   0.685   2.423
14186TIP3    H142501   0.976   0.604   2.464
14186TIP3    H242502   1.000   0.751   2.493
14187TIP3   OH242503   1.684   0.449   1.113
14187TIP3    H142504   1.605   0.410   1.076
14187TIP3    H242505   1.697   0.530   1.064
14188TIP3   OH242506   5.813   5.478   1.934
14188TIP3    H142507   5.745   5.413   1.952
14188TIP3    H242508   5.767   5.552   1.896
14189TIP3   OH242509   7.091   3.435   2.242
14189TIP3    H142510   7.156   3.367   2.227
14189TIP3    H242511   7.010   3.388   2.261
14190TIP3   OH242512   5.337   2.397   6.627
14190TIP3    H142513   5.246   2.418   6.647
14190TIP3    H242514   5.357   2.451   6.550
14191TIP3   OH242515   6.099   6.904   3.148
14191TIP3    H142516   6.107   6.877   3.057
14191TIP3    H242517   6.146   6.987   3.154
14192TIP3   OH242518   0.914   2.708   5.278
14192TIP3    H142519   1.000   2.745   5.258
14192TIP3    H242520   0.853   2.781   5.265
14193TIP3   OH242521   8.259   3.233   0.156
14193TIP3    H142522   8.200   3.193   0.092
14193TIP3    H242523   8.218   3.317   0.177
14194TIP3   OH242524   3.406   0.931   0.925
14194TIP3    H142525   3.334   0.994   0.936
14194TIP3    H242526   3.406   0.882   1.007
14195TIP3   OH242527   7.114   3.403   6.365
14195TIP3    H142528   7.111   3.352   6.446
14195TIP3    H242529   7.122   3.337   6.296
14196TIP3   OH242530   7.774   4.285   3.258
14196TIP3    H142531   7.773   4.290   3.163
14196TIP3    H242532   7.694   4.238   3.281
14197TIP3   OH242533   3.395   1.927   6.561
14197TIP3    H142534   3.315   1.909   6.610
14197TIP3    H242535   3.450   1.850   6.577
14198TIP3   OH242536   5.432   1.874   4.108
14198TIP3    H142537   5.370   1.922   4.053
14198TIP3    H242538   5.495   1.940   4.136
14199TIP3   OH242539   1.858   6.311   3.770
14199TIP3    H142540   1.914   6.235   3.786
14199TIP3    H242541   1.911   6.386   3.798
14200TIP3   OH242542   2.493   1.972   0.241
14200TIP3    H142543   2.554   2.012   0.178
14200TIP3    H242544   2.439   1.914   0.188
14201TIP3   OH242545   0.401   1.906   4.459
14201TIP3    H142546   0.440   1.888   4.545
14201TIP3    H242547   0.429   1.832   4.404
14202TIP3   OH242548   2.021   2.510   4.488
14202TIP3    H142549   2.110   2.487   4.464
14202TIP3    H242550   2.016   2.605   4.477
14203TIP3   OH242551   6.477   3.191   6.446
14203TIP3    H142552   6.553   3.236   6.483
14203TIP3    H242553   6.478   3.104   6.487
14204TIP3   OH242554   2.084   6.829   1.493
14204TIP3    H142555   2.010   6.872   1.451
14204TIP3    H242556   2.140   6.902   1.523
14205TIP3   OH242557   5.227   4.160   0.847
14205TIP3    H142558   5.264   4.100   0.913
14205TIP3    H242559   5.174   4.104   0.791
14206TIP3   OH242560   8.214   2.430   2.609
14206TIP3    H142561   8.132   2.458   2.650
14206TIP3    H242562   8.236   2.502   2.550
14207TIP3   OH242563   0.186   3.586   5.194
14207TIP3    H142564   0.253   3.559   5.256
14207TIP3    H242565   0.172   3.679   5.213
14208TIP3   OH242566   4.891   0.152   5.038
14208TIP3    H142567   4.895   0.107   5.122
14208TIP3    H242568   4.917   0.242   5.057
14209TIP3   OH242569   2.767   0.734   4.745
14209TIP3    H142570   2.811   0.814   4.715
14209TIP3    H242571   2.683   0.735   4.700
14210TIP3   OH242572   1.280   5.789   1.390
14210TIP3    H142573   1.324   5.874   1.388
14210TIP3    H242574   1.331   5.735   1.330
14211TIP3   OH242575   0.345   5.785   1.340
14211TIP3    H142576   0.327   5.833   1.421
14211TIP3    H242577   0.426   5.738   1.357
14212TIP3   OH242578   1.650   5.021   1.158
14212TIP3    H142579   1.656   4.977   1.243
14212TIP3    H242580   1.657   5.114   1.179
14213TIP3   OH242581   1.113   5.557   6.225
14213TIP3    H142582   1.117   5.498   6.150
14213TIP3    H242583   1.098   5.499   6.300
14214TIP3   OH242584   7.437   6.840   3.090
14214TIP3    H142585   7.378   6.817   3.162
14214TIP3    H242586   7.487   6.915   3.123
14215TIP3   OH242587   3.898   1.262   5.853
14215TIP3    H142588   3.808   1.287   5.830
14215TIP3    H242589   3.950   1.288   5.777
14216TIP3   OH242590   0.036   3.949   5.449
14216TIP3    H142591  -0.027   3.903   5.393
14216TIP3    H242592   0.081   3.878   5.496
14217TIP3   OH242593   4.514   3.848   1.478
14217TIP3    H142594   4.423   3.866   1.505
14217TIP3    H242595   4.516   3.753   1.466
14218TIP3   OH242596   1.172   6.068   2.990
14218TIP3    H142597   1.164   6.160   3.015
14218TIP3    H242598   1.236   6.068   2.919
14219TIP3   OH242599   3.694   2.031   6.694
14219TIP3    H142600   3.685   2.120   6.659
14219TIP3    H242601   3.634   2.029   6.769
14220TIP3   OH242602   3.053   3.723   2.862
14220TIP3    H142603   3.103   3.655   2.908
14220TIP3    H242604   3.001   3.675   2.798
14221TIP3   OH242605   0.410   4.837   0.598
14221TIP3    H142606   0.359   4.911   0.632
14221TIP3    H242607   0.368   4.815   0.515
14222TIP3   OH242608   4.988   2.247   3.452
14222TIP3    H142609   4.931   2.214   3.383
14222TIP3    H242610   4.933   2.306   3.503
14223TIP3   OH242611   0.674   5.508   5.250
14223TIP3    H142612   0.690   5.501   5.156
14223TIP3    H242613   0.760   5.496   5.290
14224TIP3   OH242614   3.585   0.447   2.824
14224TIP3    H142615   3.504   0.473   2.780
14224TIP3    H242616   3.602   0.518   2.887
14225TIP3   OH242617   3.875   2.250   5.554
14225TIP3    H142618   3.896   2.179   5.493
14225TIP3    H242619   3.875   2.208   5.640
14226TIP3   OH242620   3.697   6.650   1.435
14226TIP3    H142621   3.668   6.646   1.344
14226TIP3    H242622   3.764   6.581   1.442
14227TIP3   OH242623   6.572   6.456   0.543
14227TIP3    H142624   6.509   6.430   0.610
14227TIP3    H242625   6.533   6.533   0.501
14228TIP3   OH242626   4.399   7.714   6.678
14228TIP3    H142627   4.472   7.726   6.739
14228TIP3    H242628   4.426   7.759   6.598
14229TIP3   OH242629   0.164   6.225   3.212
14229TIP3    H142630   0.255   6.239   3.236
14229TIP3    H242631   0.116   6.236   3.294
14230TIP3   OH242632   5.166   2.922   2.756
14230TIP3    H142633   5.140   2.861   2.687
14230TIP3    H242634   5.111   2.898   2.831
14231TIP3   OH242635   1.652   4.947   2.357
14231TIP3    H142636   1.663   4.852   2.355
14231TIP3    H242637   1.572   4.960   2.408
14232TIP3   OH242638   3.754   2.746   5.144
14232TIP3    H142639   3.756   2.841   5.136
14232TIP3    H242640   3.780   2.728   5.234
14233TIP3   OH242641   4.620   4.535   6.610
14233TIP3    H142642   4.582   4.511   6.695
14233TIP3    H242643   4.712   4.552   6.629
14234TIP3   OH242644   5.485   2.457   1.525
14234TIP3    H142645   5.456   2.369   1.549
14234TIP3    H242646   5.573   2.446   1.491
14235TIP3   OH242647   5.291   3.433   4.947
14235TIP3    H142648   5.374   3.416   4.992
14235TIP3    H242649   5.225   3.389   5.002
14236TIP3   OH242650   4.303   6.425   3.470
14236TIP3    H142651   4.331   6.333   3.471
14236TIP3    H242652   4.355   6.467   3.538
14237TIP3   OH242653   0.543   3.014   5.400
14237TIP3    H142654   0.529   2.992   5.308
14237TIP3    H242655   0.498   2.946   5.449
14238TIP3   OH242656   2.682   3.097   1.022
14238TIP3    H142657   2.714   3.187   1.031
14238TIP3    H242658   2.626   3.099   0.944
14239TIP3   OH242659   6.522   0.456   6.229
14239TIP3    H142660   6.573   0.500   6.297
14239TIP3    H242661   6.449   0.416   6.276
14240TIP3   OH242662   7.857   1.682   6.668
14240TIP3    H142663   7.937   1.672   6.617
14240TIP3    H242664   7.824   1.593   6.679
14241TIP3   OH242665   7.133   2.474   2.235
14241TIP3    H142666   7.208   2.461   2.293
14241TIP3    H242667   7.146   2.411   2.164
14242TIP3   OH242668   4.860   0.465   4.017
14242TIP3    H142669   4.819   0.543   4.054
14242TIP3    H242670   4.786   0.408   3.994
14243TIP3   OH242671   2.453   7.307   5.913
14243TIP3    H142672   2.402   7.387   5.900
14243TIP3    H242673   2.404   7.239   5.868
14244TIP3   OH242674   6.203   7.169   4.961
14244TIP3    H142675   6.142   7.216   5.018
14244TIP3    H242676   6.149   7.141   4.887
14245TIP3   OH242677   4.387   5.261   2.399
14245TIP3    H142678   4.367   5.297   2.313
14245TIP3    H242679   4.358   5.328   2.461
14246TIP3   OH242680   8.234   5.571   4.802
14246TIP3    H142681   8.317   5.532   4.775
14246TIP3    H242682   8.178   5.564   4.725
14247TIP3   OH242683   2.612   4.169   2.851
14247TIP3    H142684   2.557   4.097   2.882
14247TIP3    H242685   2.553   4.225   2.800
14248TIP3   OH242686   2.998   6.593   3.761
14248TIP3    H142687   2.993   6.578   3.856
14248TIP3    H242688   2.964   6.512   3.723
14249TIP3   OH242689   3.485   7.200   0.788
14249TIP3    H142690   3.578   7.182   0.796
14249TIP3    H242691   3.444   7.148   0.857
14250TIP3   OH242692   7.322   3.803   6.761
14250TIP3    H142693   7.252   3.789   6.824
14250TIP3    H242694   7.321   3.725   6.706
14251TIP3   OH242695   5.028   5.700   5.240
14251TIP3    H142696   4.962   5.631   5.226
14251TIP3    H242697   5.099   5.657   5.285
14252TIP3   OH242698   3.460   2.739   5.128
14252TIP3    H142699   3.554   2.733   5.143
14252TIP3    H242700   3.430   2.649   5.120
14253TIP3   OH242701   4.428   6.869   0.125
14253TIP3    H142702   4.447   6.856   0.032
14253TIP3    H242703   4.339   6.905   0.126
14254TIP3   OH242704   2.234   6.817   2.258
14254TIP3    H142705   2.161   6.838   2.316
14254TIP3    H242706   2.193   6.770   2.185
14255TIP3   OH242707   5.459   3.454   4.725
14255TIP3    H142708   5.407   3.479   4.800
14255TIP3    H242709   5.522   3.526   4.714
14256TIP3   OH242710   4.807   4.640   1.551
14256TIP3    H142711   4.733   4.634   1.612
14256TIP3    H242712   4.832   4.732   1.553
14257TIP3   OH242713   5.645   1.154   2.743
14257TIP3    H142714   5.581   1.084   2.756
14257TIP3    H242715   5.694   1.156   2.825
14258TIP3   OH242716   3.968   3.355   4.560
14258TIP3    H142717   4.033   3.387   4.623
14258TIP3    H242718   4.019   3.311   4.493
14259TIP3   OH242719   3.867   2.990   2.898
14259TIP3    H142720   3.962   2.980   2.906
14259TIP3    H242721   3.844   2.941   2.820
14260TIP3   OH242722   2.305   5.794   5.558
14260TIP3    H142723   2.232   5.740   5.588
14260TIP3    H242724   2.325   5.762   5.470
14261TIP3   OH242725   3.186   2.981   1.196
14261TIP3    H142726   3.159   2.906   1.142
14261TIP3    H242727   3.265   3.014   1.153
14262TIP3   OH242728   1.834   6.047   4.925
14262TIP3    H142729   1.923   6.084   4.923
14262TIP3    H242730   1.779   6.116   4.888
14263TIP3   OH242731   3.172   1.718   3.954
14263TIP3    H142732   3.245   1.669   3.990
14263TIP3    H242733   3.103   1.712   4.021
14264TIP3   OH242734   3.729   3.491   3.356
14264TIP3    H142735   3.654   3.452   3.401
14264TIP3    H242736   3.762   3.557   3.416
14265TIP3   OH242737   4.528   7.504   3.949
14265TIP3    H142738   4.589   7.434   3.926
14265TIP3    H242739   4.442   7.468   3.930
14266TIP3   OH242740   5.568   3.547   5.281
14266TIP3    H142741   5.588   3.585   5.195
14266TIP3    H242742   5.621   3.598   5.343
14267TIP3   OH242743   7.701   1.116   6.624
14267TIP3    H142744   7.610   1.089   6.639
14267TIP3    H242745   7.696   1.176   6.550
14268TIP3   OH242746   5.954   0.443   0.892
14268TIP3    H142747   5.987   0.422   0.980
14268TIP3    H242748   5.894   0.516   0.906
14269TIP3   OH242749   1.208   5.405   1.095
14269TIP3    H142750   1.268   5.350   1.045
14269TIP3    H242751   1.169   5.463   1.029
14270TIP3   OH242752   4.330   6.375   1.960
14270TIP3    H142753   4.313   6.305   2.023
14270TIP3    H242754   4.426   6.378   1.952
14271TIP3   OH242755   1.290   6.398   4.954
14271TIP3    H142756   1.364   6.440   4.999
14271TIP3    H242757   1.212   6.441   4.990
14272TIP3   OH242758   4.811   0.902   3.552
14272TIP3    H142759   4.901   0.870   3.537
14272TIP3    H242760   4.790   0.953   3.474
14273TIP3   OH242761   6.649   3.235   4.578
14273TIP3    H142762   6.653   3.306   4.515
14273TIP3    H242763   6.557   3.206   4.576
14274TIP3   OH242764   7.004   4.145   5.857
14274TIP3    H142765   6.955   4.121   5.778
14274TIP3    H242766   6.937   4.156   5.924
14275TIP3   OH242767   4.052   6.067   3.429
14275TIP3    H142768   4.006   6.028   3.504
14275TIP3    H242769   3.984   6.081   3.364
14276TIP3   OH242770   5.897   2.945   6.408
14276TIP3    H142771   5.944   2.866   6.437
14276TIP3    H242772   5.809   2.935   6.445
14277TIP3   OH242773   0.296   4.990   3.849
14277TIP3    H142774   0.272   5.011   3.940
14277TIP3    H242775   0.374   5.044   3.833
14278TIP3   OH242776   5.037   0.925   6.765
14278TIP3    H142777   5.076   0.837   6.773
14278TIP3    H242778   5.032   0.939   6.670
14279TIP3   OH242779   1.915   4.770   4.524
14279TIP3    H142780   1.972   4.845   4.541
14279TIP3    H242781   1.852   4.770   4.596
14280TIP3   OH242782   5.181   4.583   0.433
14280TIP3    H142783   5.166   4.491   0.456
14280TIP3    H242784   5.249   4.580   0.366
14281TIP3   OH242785   8.202   7.320   1.804
14281TIP3    H142786   8.173   7.229   1.791
14281TIP3    H242787   8.127   7.373   1.779
14282TIP3   OH242788   0.641   2.242   2.018
14282TIP3    H142789   0.718   2.199   1.981
14282TIP3    H242790   0.591   2.171   2.058
14283TIP3   OH242791   1.035   1.520   2.492
14283TIP3    H142792   1.086   1.545   2.415
14283TIP3    H242793   0.946   1.507   2.459
14284TIP3   OH242794   8.150   0.291   2.618
14284TIP3    H142795   8.139   0.385   2.634
14284TIP3    H242796   8.228   0.285   2.564
14285TIP3   OH242797   1.749   4.408   2.096
14285TIP3    H142798   1.815   4.427   2.162
14285TIP3    H242799   1.761   4.315   2.076
14286TIP3   OH242800   1.618   3.243   5.577
14286TIP3    H142801   1.618   3.180   5.649
14286TIP3    H242802   1.548   3.214   5.519
14287TIP3   OH242803   1.429   4.591   0.052
14287TIP3    H142804   1.520   4.563   0.061
14287TIP3    H242805   1.380   4.529   0.107
14288TIP3   OH242806   2.822   0.449   3.728
14288TIP3    H142807   2.772   0.380   3.772
14288TIP3    H242808   2.891   0.402   3.681
14289TIP3   OH242809   6.907   1.811   3.384
14289TIP3    H142810   6.850   1.738   3.359
14289TIP3    H242811   6.876   1.884   3.330
14290TIP3   OH242812   0.838   7.774   1.226
14290TIP3    H142813   0.894   7.698   1.239
14290TIP3    H242814   0.892   7.834   1.173
14291TIP3   OH242815   7.559   3.861   4.447
14291TIP3    H142816   7.471   3.826   4.429
14291TIP3    H242817   7.594   3.803   4.514
14292TIP3   OH242818   7.029   7.353   0.101
14292TIP3    H142819   7.107   7.408   0.111
14292TIP3    H242820   6.959   7.413   0.076
14293TIP3   OH242821   1.177   4.136   5.118
14293TIP3    H142822   1.141   4.160   5.032
14293TIP3    H242823   1.272   4.138   5.104
14294TIP3   OH242824  -0.026   0.713   3.594
14294TIP3    H142825  -0.020   0.675   3.506
14294TIP3    H242826  -0.052   0.640   3.650
14295TIP3   OH242827   1.692   6.778   6.615
14295TIP3    H142828   1.784   6.758   6.632
14295TIP3    H242829   1.682   6.765   6.521
14296TIP3   OH242830   4.438   4.550   0.220
14296TIP3    H142831   4.425   4.636   0.181
14296TIP3    H242832   4.533   4.539   0.221
14297TIP3   OH242833   0.661   2.410   6.766
14297TIP3    H142834   0.583   2.462   6.784
14297TIP3    H242835   0.643   2.369   6.681
14298TIP3   OH242836   6.365   4.235   6.082
14298TIP3    H142837   6.413   4.313   6.110
14298TIP3    H242838   6.428   4.164   6.088
14299TIP3   OH242839   2.245   5.719   4.255
14299TIP3    H142840   2.173   5.657   4.247
14299TIP3    H242841   2.320   5.666   4.282
14300TIP3   OH242842   6.494   0.484   0.503
14300TIP3    H142843   6.494   0.520   0.592
14300TIP3    H242844   6.435   0.542   0.454
14301TIP3   OH242845   0.605   5.223   1.892
14301TIP3    H142846   0.671   5.171   1.846
14301TIP3    H242847   0.649   5.306   1.910
14302TIP3   OH242848   3.346   5.155   0.447
14302TIP3    H142849   3.327   5.159   0.353
14302TIP3    H242850   3.433   5.194   0.455
14303TIP3   OH242851   5.974   7.029   2.087
14303TIP3    H142852   5.887   7.068   2.073
14303TIP3    H242853   6.012   7.080   2.158
14304TIP3   OH242854   6.122   4.828   5.124
14304TIP3    H142855   6.079   4.884   5.188
14304TIP3    H242856   6.078   4.743   5.131
14305TIP3   OH242857   7.717   0.153   0.046
14305TIP3    H142858   7.699   0.105   0.128
14305TIP3    H242859   7.748   0.239   0.076
14306TIP3   OH242860   2.680   5.442   3.247
14306TIP3    H142861   2.598   5.394   3.258
14306TIP3    H242862   2.673   5.482   3.160
14307TIP3   OH242863   2.174   3.272   5.885
14307TIP3    H142864   2.184   3.178   5.870
14307TIP3    H242865   2.081   3.284   5.902
14308TIP3   OH242866   1.974   0.585   2.351
14308TIP3    H142867   1.963   0.654   2.416
14308TIP3    H242868   1.993   0.633   2.269
14309TIP3   OH242869   6.206   0.232   3.345
14309TIP3    H142870   6.256   0.153   3.363
14309TIP3    H242871   6.148   0.242   3.420
14310TIP3   OH242872   4.866   2.207   3.801
14310TIP3    H142873   4.951   2.249   3.784
14310TIP3    H242874   4.860   2.202   3.897
14311TIP3   OH242875   5.818   5.486   2.848
14311TIP3    H142876   5.872   5.407   2.842
14311TIP3    H242877   5.786   5.499   2.759
14312TIP3   OH242878   0.759   0.371   0.585
14312TIP3    H142879   0.729   0.444   0.640
14312TIP3    H242880   0.678   0.327   0.559
14313TIP3   OH242881   1.378   4.400   1.976
14313TIP3    H142882   1.451   4.457   1.953
14313TIP3    H242883   1.306   4.460   1.997
14314TIP3   OH242884   0.164   0.573   2.202
14314TIP3    H142885   0.161   0.512   2.128
14314TIP3    H242886   0.246   0.553   2.247
14315TIP3   OH242887   7.549   6.226   1.585
14315TIP3    H142888   7.529   6.313   1.551
14315TIP3    H242889   7.560   6.239   1.679
14316TIP3   OH242890   0.759   2.924   2.136
14316TIP3    H142891   0.797   2.994   2.081
14316TIP3    H242892   0.797   2.939   2.223
14317TIP3   OH242893   1.601   5.655   1.637
14317TIP3    H142894   1.578   5.701   1.718
14317TIP3    H242895   1.550   5.575   1.639
14318TIP3   OH242896   3.801   5.902   5.392
14318TIP3    H142897   3.778   5.995   5.386
14318TIP3    H242898   3.832   5.880   5.304
14319TIP3   OH242899   6.108   6.171   4.754
14319TIP3    H142900   6.120   6.076   4.750
14319TIP3    H242901   6.080   6.188   4.843
14320TIP3   OH242902   0.986   6.413   2.355
14320TIP3    H142903   1.027   6.484   2.305
14320TIP3    H242904   0.971   6.345   2.290
14321TIP3   OH242905   4.429   4.608   0.482
14321TIP3    H142906   4.517   4.602   0.519
14321TIP3    H242907   4.439   4.584   0.390
14322TIP3   OH242908   5.323   1.389   2.858
14322TIP3    H142909   5.331   1.455   2.928
14322TIP3    H242910   5.318   1.306   2.904
14323TIP3   OH242911   0.303   6.315   6.070
14323TIP3    H142912   0.287   6.343   5.980
14323TIP3    H242913   0.387   6.268   6.066
14324TIP3   OH242914   2.360   3.338   2.584
14324TIP3    H142915   2.324   3.311   2.669
14324TIP3    H242916   2.301   3.298   2.520
14325TIP3   OH242917   3.683   6.948   4.784
14325TIP3    H142918   3.602   6.994   4.807
14325TIP3    H242919   3.696   6.968   4.692
14326TIP3   OH242920   7.736   4.881   4.210
14326TIP3    H142921   7.810   4.888   4.269
14326TIP3    H242922   7.713   4.971   4.189
14327TIP3   OH242923   3.525   3.281   1.749
14327TIP3    H142924   3.508   3.375   1.748
14327TIP3    H242925   3.460   3.245   1.688
14328TIP3   OH242926   7.171   7.668   2.702
14328TIP3    H142927   7.177   7.761   2.721
14328TIP3    H242928   7.144   7.663   2.610
14329TIP3   OH242929   1.096   2.747   2.285
14329TIP3    H142930   1.024   2.715   2.340
14329TIP3    H242931   1.152   2.671   2.272
14330TIP3   OH242932   6.110   2.354   3.865
14330TIP3    H142933   6.086   2.446   3.850
14330TIP3    H242934   6.203   2.357   3.884
14331TIP3   OH242935   6.033   6.112   3.328
14331TIP3    H142936   6.026   6.206   3.316
14331TIP3    H242937   6.033   6.100   3.423
14332TIP3   OH242938   2.690   4.821   5.828
14332TIP3    H142939   2.644   4.822   5.744
14332TIP3    H242940   2.763   4.882   5.816
14333TIP3   OH242941   7.850   6.329   6.633
14333TIP3    H142942   7.942   6.305   6.643
14333TIP3    H242943   7.802   6.252   6.664
14334TIP3   OH242944   5.707   4.985   4.074
14334TIP3    H142945   5.793   4.944   4.068
14334TIP3    H242946   5.678   4.993   3.983
14335TIP3   OH242947   6.785   7.343   1.715
14335TIP3    H142948   6.765   7.263   1.764
14335TIP3    H242949   6.740   7.332   1.631
14336TIP3   OH242950   1.886   0.415   6.002
14336TIP3    H142951   1.981   0.403   6.008
14336TIP3    H242952   1.874   0.476   5.929
14337TIP3   OH242953   5.221   3.984   0.303
14337TIP3    H142954   5.278   4.018   0.372
14337TIP3    H242955   5.234   3.890   0.305
14338TIP3   OH242956   6.709   2.535   4.578
14338TIP3    H142957   6.628   2.485   4.567
14338TIP3    H242958   6.705   2.603   4.511
14339TIP3   OH242959   0.583   1.069   2.158
14339TIP3    H142960   0.584   1.162   2.181
14339TIP3    H242961   0.596   1.024   2.242
14340TIP3   OH242962   0.907   7.784   2.489
14340TIP3    H142963   0.842   7.718   2.466
14340TIP3    H242964   0.886   7.809   2.579
14341TIP3   OH242965   4.434   1.162   3.356
14341TIP3    H142966   4.522   1.180   3.323
14341TIP3    H242967   4.413   1.239   3.409
14342TIP3   OH242968   5.725   5.256   4.560
14342TIP3    H142969   5.670   5.223   4.490
14342TIP3    H242970   5.673   5.245   4.640
14343TIP3   OH242971   5.950   2.946   3.627
14343TIP3    H142972   5.893   3.002   3.574
14343TIP3    H242973   5.899   2.927   3.706
14344TIP3   OH242974   7.609   3.577   2.994
14344TIP3    H142975   7.703   3.562   2.990
14344TIP3    H242976   7.584   3.598   2.904
14345TIP3   OH242977   0.706   0.985   2.825
14345TIP3    H142978   0.751   1.061   2.864
14345TIP3    H242979   0.629   1.022   2.782
14346TIP3   OH242980   5.358   5.395   3.448
14346TIP3    H142981   5.400   5.398   3.535
14346TIP3    H242982   5.431   5.385   3.387
14347TIP3   OH242983   0.510   2.074   2.177
14347TIP3    H142984   0.482   1.984   2.193
14347TIP3    H242985   0.499   2.118   2.261
14348TIP3   OH242986   7.278   0.201   0.106
14348TIP3    H142987   7.282   0.143   0.182
14348TIP3    H242988   7.361   0.187   0.061
14349TIP3   OH242989   5.570   5.904   6.097
14349TIP3    H142990   5.537   5.927   6.010
14349TIP3    H242991   5.659   5.873   6.082
14350TIP3   OH242992   1.182   2.634   1.364
14350TIP3    H142993   1.222   2.610   1.280
14350TIP3    H242994   1.089   2.640   1.346
14351TIP3   OH242995   6.682   5.175   5.686
14351TIP3    H142996   6.629   5.102   5.718
14351TIP3    H242997   6.621   5.248   5.678
14352TIP3   OH242998   4.611   0.900   0.830
14352TIP3    H142999   4.593   0.980   0.880
14352TIP3    H243000   4.544   0.838   0.857
14353TIP3   OH243001   2.907   7.786   3.516
14353TIP3    H143002   2.824   7.745   3.541
14353TIP3    H243003   2.957   7.790   3.598
14354TIP3   OH243004   0.900   3.704   0.989
14354TIP3    H143005   0.903   3.696   1.084
14354TIP3    H243006   0.886   3.614   0.958
14355TIP3   OH243007   3.054   2.687   5.245
14355TIP3    H143008   3.077   2.631   5.171
14355TIP3    H243009   3.133   2.688   5.300
14356TIP3   OH243010   8.230   2.340   3.789
14356TIP3    H143011   8.160   2.293   3.744
14356TIP3    H243012   8.299   2.275   3.802
14357TIP3   OH243013   2.769   5.398   2.428
14357TIP3    H143014   2.803   5.458   2.493
14357TIP3    H243015   2.726   5.454   2.363
14358TIP3   OH243016   3.641   7.614   0.087
14358TIP3    H143017   3.658   7.528   0.049
14358TIP3    H243018   3.706   7.672   0.047
14359TIP3   OH243019   4.121   1.535   2.974
14359TIP3    H143020   4.074   1.607   2.933
14359TIP3    H243021   4.153   1.483   2.900
14360TIP3   OH243022   0.455   3.529   5.208
14360TIP3    H143023   0.445   3.542   5.114
14360TIP3    H243024   0.434   3.437   5.222
14361TIP3   OH243025   7.569   5.902   3.598
14361TIP3    H143026   7.586   5.962   3.671
14361TIP3    H243027   7.532   5.824   3.639
14362TIP3   OH243028   4.685   2.074   5.833
14362TIP3    H143029   4.683   2.042   5.743
14362TIP3    H243030   4.764   2.035   5.870
14363TIP3   OH243031   6.806   2.680   3.234
14363TIP3    H143032   6.743   2.642   3.296
14363TIP3    H243033   6.759   2.682   3.150
14364TIP3   OH243034   4.302   3.316   3.761
14364TIP3    H143035   4.263   3.359   3.685
14364TIP3    H243036   4.228   3.287   3.813
14365TIP3   OH243037   3.650   3.938   5.260
14365TIP3    H143038   3.701   3.925   5.180
14365TIP3    H243039   3.620   3.850   5.283
14366TIP3   OH243040   2.974   3.993   6.477
14366TIP3    H143041   3.040   4.062   6.478
14366TIP3    H243042   2.900   4.030   6.525
14367TIP3   OH243043   7.842   0.905   2.552
14367TIP3    H143044   7.758   0.890   2.597
14367TIP3    H243045   7.830   0.866   2.465
14368TIP3   OH243046   7.684   5.176   1.047
14368TIP3    H143047   7.654   5.265   1.065
14368TIP3    H243048   7.776   5.176   1.072
14369TIP3   OH243049   4.152   6.858   3.953
14369TIP3    H143050   4.204   6.786   3.990
14369TIP3    H243051   4.172   6.933   4.009
14370TIP3   OH243052   0.735   3.875   1.497
14370TIP3    H143053   0.743   3.908   1.587
14370TIP3    H243054   0.695   3.789   1.506
14371TIP3   OH243055   1.958   6.916   2.395
14371TIP3    H143056   1.954   6.916   2.299
14371TIP3    H243057   1.889   6.977   2.421
14372TIP3   OH243058   6.486   4.431   0.705
14372TIP3    H143059   6.515   4.454   0.616
14372TIP3    H243060   6.535   4.351   0.725
14373TIP3   OH243061   0.894   2.353   3.435
14373TIP3    H143062   0.879   2.258   3.437
14373TIP3    H243063   0.967   2.367   3.495
14374TIP3   OH243064   3.711   3.036   5.147
14374TIP3    H143065   3.669   3.040   5.062
14374TIP3    H243066   3.642   3.011   5.208
14375TIP3   OH243067   0.796   6.776   2.183
14375TIP3    H143068   0.719   6.765   2.129
14375TIP3    H243069   0.853   6.834   2.134
14376TIP3   OH243070   7.185   2.198   4.182
14376TIP3    H143071   7.183   2.281   4.135
14376TIP3    H243072   7.113   2.147   4.144
14377TIP3   OH243073   0.405   5.454   0.777
14377TIP3    H143074   0.348   5.518   0.819
14377TIP3    H243075   0.388   5.372   0.825
14378TIP3   OH243076   0.957   0.567   6.035
14378TIP3    H143077   0.922   0.480   6.016
14378TIP3    H243078   0.991   0.599   5.951
14379TIP3   OH243079   7.120   2.053   1.453
14379TIP3    H143080   7.028   2.033   1.470
14379TIP3    H243081   7.168   2.013   1.526
14380TIP3   OH243082   7.869   5.882   2.557
14380TIP3    H143083   7.865   5.796   2.514
14380TIP3    H243084   7.909   5.864   2.642
14381TIP3   OH243085   8.196   5.856   1.198
14381TIP3    H143086   8.123   5.902   1.240
14381TIP3    H243087   8.207   5.900   1.114
14382TIP3   OH243088   1.142   0.685   0.919
14382TIP3    H143089   1.116   0.657   0.832
14382TIP3    H243090   1.060   0.697   0.966
14383TIP3   OH243091   2.770   2.585   4.405
14383TIP3    H143092   2.801   2.645   4.472
14383TIP3    H243093   2.800   2.624   4.323
14384TIP3   OH243094   5.698   0.335   6.727
14384TIP3    H143095   5.645   0.257   6.715
14384TIP3    H243096   5.727   0.358   6.639
14385TIP3   OH243097   2.031   5.026   2.935
14385TIP3    H143098   2.054   5.108   2.892
14385TIP3    H243099   2.060   5.037   3.025
14386TIP3   OH243100   4.292   2.577   3.589
14386TIP3    H143101   4.290   2.646   3.523
14386TIP3    H243102   4.214   2.594   3.643
14387TIP3   OH243103   1.310   4.886   1.063
14387TIP3    H143104   1.344   4.884   1.153
14387TIP3    H243105   1.253   4.810   1.057
14388TIP3   OH243106   5.759   0.247   3.097
14388TIP3    H143107   5.753   0.337   3.128
14388TIP3    H243108   5.846   0.218   3.124
14389TIP3   OH243109   5.777   5.715   4.808
14389TIP3    H143110   5.801   5.627   4.839
14389TIP3    H243111   5.686   5.706   4.781
14390TIP3   OH243112   1.611   2.115   4.852
14390TIP3    H143113   1.681   2.160   4.805
14390TIP3    H243114   1.531   2.140   4.804
14391TIP3   OH243115   7.636   1.119   1.749
14391TIP3    H143116   7.580   1.163   1.684
14391TIP3    H243117   7.587   1.040   1.772
14392TIP3   OH243118   1.979   6.713   5.600
14392TIP3    H143119   2.061   6.718   5.551
14392TIP3    H243120   1.912   6.695   5.535
14393TIP3   OH243121   4.362   3.432   1.971
14393TIP3    H143122   4.359   3.474   1.885
14393TIP3    H243123   4.320   3.496   2.029
14394TIP3   OH243124   2.678   1.393   4.669
14394TIP3    H143125   2.758   1.439   4.643
14394TIP3    H243126   2.682   1.310   4.623
14395TIP3   OH243127   6.401   3.728   0.924
14395TIP3    H143128   6.307   3.725   0.943
14395TIP3    H243129   6.426   3.636   0.913
14396TIP3   OH243130   3.392   1.402   2.413
14396TIP3    H143131   3.310   1.354   2.399
14396TIP3    H243132   3.405   1.452   2.333
14397TIP3   OH243133   5.431   4.182   1.514
14397TIP3    H143134   5.384   4.105   1.546
14397TIP3    H243135   5.375   4.256   1.538
14398TIP3   OH243136   2.269   4.565   5.599
14398TIP3    H143137   2.272   4.547   5.693
14398TIP3    H243138   2.264   4.661   5.594
14399TIP3   OH243139   3.566   4.582   4.357
14399TIP3    H143140   3.493   4.566   4.416
14399TIP3    H243141   3.602   4.495   4.339
14400TIP3   OH243142   3.770   1.423   4.694
14400TIP3    H143143   3.823   1.405   4.771
14400TIP3    H243144   3.827   1.475   4.637
14401TIP3   OH243145   6.291   5.794   4.307
14401TIP3    H143146   6.215   5.737   4.312
14401TIP3    H243147   6.258   5.881   4.327
14402TIP3   OH243148   0.587   4.461   6.607
14402TIP3    H143149   0.629   4.400   6.546
14402TIP3    H243150   0.502   4.480   6.567
14403TIP3   OH243151   6.144   5.902   4.693
14403TIP3    H143152   6.164   5.853   4.774
14403TIP3    H243153   6.230   5.927   4.659
14404TIP3   OH243154   2.547   6.438   0.021
14404TIP3    H143155   2.516   6.474   0.104
14404TIP3    H243156   2.642   6.449   0.024
14405TIP3   OH243157   5.121   0.311   0.335
14405TIP3    H143158   5.046   0.372   0.336
14405TIP3    H243159   5.088   0.232   0.377
14406TIP3   OH243160   0.503   3.420   2.302
14406TIP3    H143161   0.453   3.340   2.314
14406TIP3    H243162   0.572   3.415   2.369
14407TIP3   OH243163   0.489   4.029   0.102
14407TIP3    H143164   0.483   4.067   0.190
14407TIP3    H243165   0.540   3.949   0.114
14408TIP3   OH243166   3.382   2.439   1.689
14408TIP3    H143167   3.414   2.529   1.684
14408TIP3    H243168   3.407   2.409   1.776
14409TIP3   OH243169   4.870   1.187   3.506
14409TIP3    H143170   4.823   1.264   3.473
14409TIP3    H243171   4.827   1.166   3.589
14410TIP3   OH243172   5.279   0.471   0.935
14410TIP3    H143173   5.226   0.494   1.011
14410TIP3    H243174   5.343   0.408   0.968
14411TIP3   OH243175   2.999   3.425   1.732
14411TIP3    H143176   2.968   3.444   1.644
14411TIP3    H243177   2.981   3.506   1.781
14412TIP3   OH243178   0.418   5.595   0.086
14412TIP3    H143179   0.329   5.564   0.098
14412TIP3    H243180   0.441   5.572  -0.004
14413TIP3   OH243181   2.658   4.387   3.185
14413TIP3    H143182   2.587   4.331   3.216
14413TIP3    H243183   2.733   4.329   3.175
14414TIP3   OH243184   4.413   5.802   6.082
14414TIP3    H143185   4.412   5.809   6.178
14414TIP3    H243186   4.365   5.880   6.053
14415TIP3   OH243187   3.485   1.452   2.670
14415TIP3    H143188   3.545   1.526   2.665
14415TIP3    H243189   3.448   1.446   2.581
14416TIP3   OH243190   3.483   2.911   3.836
14416TIP3    H143191   3.464   2.828   3.880
14416TIP3    H243192   3.543   2.888   3.766
14417TIP3   OH243193   0.488   0.269   4.432
14417TIP3    H143194   0.414   0.318   4.396
14417TIP3    H243195   0.453   0.183   4.453
14418TIP3   OH243196   4.282   5.083   5.104
14418TIP3    H143197   4.269   5.167   5.146
14418TIP3    H243198   4.246   5.094   5.016
14419TIP3   OH243199   2.817   4.598   1.213
14419TIP3    H143200   2.895   4.544   1.216
14419TIP3    H243201   2.747   4.541   1.244
14420TIP3   OH243202   7.751   1.489   0.104
14420TIP3    H143203   7.840   1.498   0.069
14420TIP3    H243204   7.694   1.515   0.031
14421TIP3   OH243205   1.705   3.282   1.593
14421TIP3    H143206   1.793   3.252   1.572
14421TIP3    H243207   1.672   3.217   1.655
14422TIP3   OH243208   7.903   3.299   2.336
14422TIP3    H143209   7.896   3.206   2.319
14422TIP3    H243210   7.946   3.305   2.422
14423TIP3   OH243211   1.779   7.315   2.010
14423TIP3    H143212   1.871   7.297   2.032
14423TIP3    H243213   1.733   7.235   2.034
14424TIP3   OH243214   2.316   7.773   6.274
14424TIP3    H143215   2.383   7.704   6.266
14424TIP3    H243216   2.348   7.844   6.218
14425TIP3   OH243217   2.003   2.526   0.969
14425TIP3    H143218   2.075   2.541   1.029
14425TIP3    H243219   2.012   2.435   0.942
14426TIP3   OH243220   4.042   4.175   0.618
14426TIP3    H143221   4.020   4.237   0.549
14426TIP3    H243222   4.019   4.221   0.699
14427TIP3   OH243223   7.057   0.167   2.126
14427TIP3    H143224   7.017   0.248   2.156
14427TIP3    H243225   6.988   0.102   2.134
14428TIP3   OH243226   6.311   3.221   0.762
14428TIP3    H143227   6.261   3.286   0.712
14428TIP3    H243228   6.248   3.151   0.780
14429TIP3   OH243229   5.894   2.326   0.551
14429TIP3    H143230   5.966   2.321   0.614
14429TIP3    H243231   5.913   2.405   0.500
14430TIP3   OH243232   3.235   5.529   4.911
14430TIP3    H143233   3.153   5.484   4.928
14430TIP3    H243234   3.216   5.621   4.932
14431TIP3   OH243235   1.433   3.369   4.223
14431TIP3    H143236   1.475   3.450   4.251
14431TIP3    H243237   1.440   3.312   4.300
14432TIP3   OH243238   5.367   1.735   2.683
14432TIP3    H143239   5.312   1.714   2.608
14432TIP3    H243240   5.455   1.706   2.658
14433TIP3   OH243241   7.268   5.190   0.702
14433TIP3    H143242   7.191   5.138   0.677
14433TIP3    H243243   7.249   5.217   0.792
14434TIP3   OH243244   4.769   5.318   5.934
14434TIP3    H143245   4.743   5.302   5.843
14434TIP3    H243246   4.724   5.251   5.984
14435TIP3   OH243247   0.058   0.215   6.267
14435TIP3    H143248  -0.032   0.208   6.235
14435TIP3    H243249   0.110   0.236   6.189
14436TIP3   OH243250   7.544   5.711   0.703
14436TIP3    H143251   7.496   5.709   0.786
14436TIP3    H243252   7.477   5.719   0.636
14437TIP3   OH243253   6.757   1.642   4.583
14437TIP3    H143254   6.843   1.611   4.554
14437TIP3    H243255   6.753   1.733   4.556
14438TIP3   OH243256   0.049   4.582   3.680
14438TIP3    H143257   0.062   4.487   3.685
14438TIP3    H243258   0.086   4.606   3.596
14439TIP3   OH243259   7.908   2.085   6.490
14439TIP3    H143260   7.844   2.132   6.436
14439TIP3    H243261   7.875   2.094   6.579
14440TIP3   OH243262   6.582   1.011   3.187
14440TIP3    H143263   6.631   1.004   3.105
14440TIP3    H243264   6.541   0.926   3.198
14441TIP3   OH243265   7.188   5.028   4.902
14441TIP3    H143266   7.215   5.058   4.815
14441TIP3    H243267   7.258   4.969   4.930
14442TIP3   OH243268   3.849   4.660   6.607
14442TIP3    H143269   3.780   4.605   6.571
14442TIP3    H243270   3.917   4.660   6.540
14443TIP3   OH243271   5.909   7.290   5.233
14443TIP3    H143272   5.820   7.258   5.247
14443TIP3    H243273   5.965   7.215   5.255
14444TIP3   OH243274   5.745   6.976   3.140
14444TIP3    H143275   5.792   6.928   3.072
14444TIP3    H243276   5.747   7.068   3.111
14445TIP3   OH243277   1.827   7.519   1.219
14445TIP3    H143278   1.798   7.512   1.310
14445TIP3    H243279   1.746   7.524   1.168
14446TIP3   OH243280   5.020   7.021   1.286
14446TIP3    H143281   5.001   6.932   1.314
14446TIP3    H243282   5.062   7.011   1.200
14447TIP3   OH243283   4.053   6.011   4.059
14447TIP3    H143284   3.962   6.041   4.064
14447TIP3    H243285   4.102   6.077   4.108
14448TIP3   OH243286   2.464   6.087   0.461
14448TIP3    H143287   2.489   6.024   0.394
14448TIP3    H243288   2.440   6.033   0.536
14449TIP3   OH243289   4.226   5.811   4.028
14449TIP3    H143290   4.282   5.796   3.951
14449TIP3    H243291   4.168   5.882   4.002
14450TIP3   OH243292   7.602   0.789   3.703
14450TIP3    H143293   7.639   0.860   3.756
14450TIP3    H243294   7.592   0.827   3.616
14451TIP3   OH243295   1.405   6.836   4.420
14451TIP3    H143296   1.431   6.763   4.476
14451TIP3    H243297   1.484   6.859   4.371
14452TIP3   OH243298   8.226   3.314   1.144
14452TIP3    H143299   8.264   3.361   1.218
14452TIP3    H243300   8.145   3.278   1.177
14453TIP3   OH243301   2.295   0.135   2.911
14453TIP3    H143302   2.349   0.059   2.932
14453TIP3    H243303   2.339   0.208   2.955
14454TIP3   OH243304   7.877   5.387   6.028
14454TIP3    H143305   7.814   5.335   5.980
14454TIP3    H243306   7.857   5.478   6.005
14455TIP3   OH243307   1.567   3.153   1.373
14455TIP3    H143308   1.635   3.194   1.320
14455TIP3    H243309   1.599   3.158   1.463
14456TIP3   OH243310   5.624   7.403   3.904
14456TIP3    H143311   5.676   7.325   3.924
14456TIP3    H243312   5.544   7.393   3.955
14457TIP3   OH243313   2.633   3.872   6.408
14457TIP3    H143314   2.679   3.936   6.353
14457TIP3    H243315   2.641   3.907   6.497
14458TIP3   OH243316   2.343   7.394   6.577
14458TIP3    H143317   2.255   7.363   6.553
14458TIP3    H243318   2.333   7.489   6.587
14459TIP3   OH243319   8.096   3.707   6.261
14459TIP3    H143320   8.028   3.687   6.197
14459TIP3    H243321   8.061   3.780   6.312
14460TIP3   OH243322   3.837   0.899   4.486
14460TIP3    H143323   3.923   0.870   4.514
14460TIP3    H243324   3.835   0.883   4.392
14461TIP3   OH243325   5.163   5.214   3.359
14461TIP3    H143326   5.205   5.300   3.365
14461TIP3    H243327   5.221   5.156   3.410
14462TIP3   OH243328   3.564   5.997   5.253
14462TIP3    H143329   3.585   5.940   5.180
14462TIP3    H243330   3.470   6.014   5.245
14463TIP3   OH243331   3.028   2.754   6.711
14463TIP3    H143332   3.055   2.779   6.623
14463TIP3    H243333   3.063   2.666   6.723
14464TIP3   OH243334   5.504   5.321   4.024
14464TIP3    H143335   5.591   5.312   4.064
14464TIP3    H243336   5.482   5.233   3.994
14465TIP3   OH243337   2.278   0.884   3.951
14465TIP3    H143338   2.366   0.861   3.919
14465TIP3    H243339   2.262   0.971   3.915
14466TIP3   OH243340   2.529   0.475   2.290
14466TIP3    H143341   2.443   0.450   2.258
14466TIP3    H243342   2.568   0.393   2.321
14467TIP3   OH243343   7.946   4.854   1.160
14467TIP3    H143344   8.023   4.799   1.174
14467TIP3    H243345   7.872   4.797   1.181
14468TIP3   OH243346   6.920   2.213   0.349
14468TIP3    H143347   6.831   2.235   0.321
14468TIP3    H243348   6.941   2.279   0.416
14469TIP3   OH243349   6.022   3.598   0.869
14469TIP3    H143350   6.102   3.546   0.874
14469TIP3    H243351   6.031   3.663   0.939
14470TIP3   OH243352   4.265   0.068   3.374
14470TIP3    H143353   4.338   0.038   3.429
14470TIP3    H243354   4.224  -0.013   3.343
14471TIP3   OH243355   1.043   0.476   2.629
14471TIP3    H143356   1.111   0.415   2.656
14471TIP3    H243357   1.029   0.532   2.706
14472TIP3   OH243358   5.942   1.778   1.710
14472TIP3    H143359   6.031   1.807   1.731
14472TIP3    H243360   5.947   1.752   1.619
14473TIP3   OH243361   8.291   5.823   1.687
14473TIP3    H143362   8.368   5.854   1.736
14473TIP3    H243363   8.226   5.805   1.755
14474TIP3   OH243364   6.955   6.304   2.173
14474TIP3    H143365   6.879   6.345   2.132
14474TIP3    H243366   7.007   6.377   2.207
14475TIP3   OH243367   2.763   4.531   0.147
14475TIP3    H143368   2.788   4.485   0.228
14475TIP3    H243369   2.686   4.484   0.116
14476TIP3   OH243370   5.190   3.655   1.585
14476TIP3    H143371   5.137   3.684   1.660
14476TIP3    H243372   5.203   3.561   1.600
14477TIP3   OH243373   1.717   5.103   6.095
14477TIP3    H143374   1.679   5.043   6.160
14477TIP3    H243375   1.805   5.121   6.127
14478TIP3   OH243376   7.087   4.851   3.275
14478TIP3    H143377   7.052   4.831   3.189
14478TIP3    H243378   7.011   4.881   3.326
14479TIP3   OH243379   7.905   0.930   6.514
14479TIP3    H143380   7.829   0.977   6.547
14479TIP3    H243381   7.920   0.860   6.577
14480TIP3   OH243382   7.202   6.431   1.433
14480TIP3    H143383   7.159   6.457   1.352
14480TIP3    H243384   7.140   6.454   1.502
14481TIP3   OH243385   1.608   7.044   0.380
14481TIP3    H143386   1.627   7.080   0.466
14481TIP3    H243387   1.671   7.087   0.321
14482TIP3   OH243388   0.647   3.838   0.292
14482TIP3    H143389   0.722   3.897   0.294
14482TIP3    H243390   0.654   3.793   0.207
14483TIP3   OH243391   1.904   6.565   1.427
14483TIP3    H143392   1.904   6.597   1.336
14483TIP3    H243393   1.995   6.539   1.443
14484TIP3   OH243394   1.839   4.673   0.732
14484TIP3    H143395   1.855   4.668   0.638
14484TIP3    H243396   1.852   4.765   0.754
14485TIP3   OH243397   5.341   1.552   6.063
14485TIP3    H143398   5.351   1.586   5.974
14485TIP3    H243399   5.383   1.466   6.061
14486TIP3   OH243400   3.939   6.490   6.461
14486TIP3    H143401   4.016   6.442   6.432
14486TIP3    H243402   3.919   6.550   6.389
14487TIP3   OH243403   0.823   5.611   0.667
14487TIP3    H143404   0.823   5.682   0.731
14487TIP3    H243405   0.815   5.532   0.719
14488TIP3   OH243406   3.462   7.673   4.202
14488TIP3    H143407   3.416   7.748   4.163
14488TIP3    H243408   3.544   7.710   4.235
14489TIP3   OH243409   5.236   7.532   4.259
14489TIP3    H143410   5.287   7.551   4.180
14489TIP3    H243411   5.164   7.595   4.256
14490TIP3   OH243412   1.024   5.386   4.375
14490TIP3    H143413   0.965   5.462   4.378
14490TIP3    H243414   0.971   5.313   4.407
14491TIP3   OH243415   1.106   0.217   5.215
14491TIP3    H143416   1.073   0.260   5.294
14491TIP3    H243417   1.149   0.287   5.166
14492TIP3   OH243418   1.509   0.913   4.684
14492TIP3    H143419   1.420   0.928   4.715
14492TIP3    H243420   1.499   0.858   4.607
14493TIP3   OH243421   8.051   5.528   5.416
14493TIP3    H143422   8.064   5.508   5.323
14493TIP3    H243423   7.962   5.498   5.434
14494TIP3   OH243424   5.284   3.982   6.091
14494TIP3    H143425   5.239   4.046   6.036
14494TIP3    H243426   5.374   3.981   6.059
14495TIP3   OH243427   6.614   1.576   1.202
14495TIP3    H143428   6.634   1.488   1.234
14495TIP3    H243429   6.554   1.612   1.267
14496TIP3   OH243430   5.394   6.180   1.907
14496TIP3    H143431   5.442   6.103   1.875
14496TIP3    H243432   5.328   6.196   1.840
14497TIP3   OH243433   7.575   6.967   1.049
14497TIP3    H143434   7.578   7.013   1.133
14497TIP3    H243435   7.529   7.027   0.990
14498TIP3   OH243436   8.320   7.594   3.013
14498TIP3    H143437   8.271   7.574   2.933
14498TIP3    H243438   8.409   7.610   2.984
14499TIP3   OH243439   6.836   4.511   0.984
14499TIP3    H143440   6.835   4.536   0.891
14499TIP3    H243441   6.824   4.594   1.031
14500TIP3   OH243442   5.811   7.708   6.563
14500TIP3    H143443   5.880   7.650   6.530
14500TIP3    H243444   5.822   7.706   6.658
14501TIP3   OH243445   2.089   7.674   2.126
14501TIP3    H143446   2.035   7.613   2.176
14501TIP3    H243447   2.173   7.674   2.172
14502TIP3   OH243448   4.325   6.172   0.730
14502TIP3    H143449   4.328   6.149   0.637
14502TIP3    H243450   4.303   6.089   0.774
14503TIP3   OH243451   7.041   2.999   3.496
14503TIP3    H143452   7.051   2.907   3.472
14503TIP3    H243453   7.040   3.046   3.412
14504TIP3   OH243454   1.799   3.404   1.898
14504TIP3    H143455   1.824   3.312   1.907
14504TIP3    H243456   1.819   3.443   1.983
14505TIP3   OH243457   7.128   0.097   5.492
14505TIP3    H143458   7.202   0.132   5.442
14505TIP3    H243459   7.153   0.110   5.583
14506TIP3   OH243460   8.330   4.588   2.519
14506TIP3    H143461   8.258   4.535   2.553
14506TIP3    H243462   8.288   4.669   2.490
14507TIP3   OH243463   4.086   0.723   6.466
14507TIP3    H143464   4.137   0.678   6.533
14507TIP3    H243465   4.091   0.816   6.491
14508TIP3   OH243466   3.512   7.066   1.975
14508TIP3    H143467   3.525   7.073   1.880
14508TIP3    H243468   3.547   6.979   1.997
14509TIP3   OH243469   1.321   5.736   2.750
14509TIP3    H143470   1.355   5.718   2.838
14509TIP3    H243471   1.230   5.708   2.754
14510TIP3   OH243472   1.122   2.442   3.567
14510TIP3    H143473   1.085   2.500   3.634
14510TIP3    H243474   1.203   2.409   3.607
14511TIP3   OH243475   1.521   3.273   3.686
14511TIP3    H143476   1.436   3.277   3.730
14511TIP3    H243477   1.566   3.352   3.715
14512TIP3   OH243478   3.999   3.373   3.039
14512TIP3    H143479   4.077   3.414   3.001
14512TIP3    H243480   4.033   3.324   3.114
14513TIP3   OH243481   5.633   3.110   6.003
14513TIP3    H143482   5.584   3.192   6.007
14513TIP3    H243483   5.570   3.045   5.972
14514TIP3   OH243484   7.381   2.104   0.456
14514TIP3    H143485   7.290   2.084   0.433
14514TIP3    H243486   7.433   2.069   0.384
14515TIP3   OH243487   7.455   1.531   1.632
14515TIP3    H143488   7.510   1.537   1.710
14515TIP3    H243489   7.446   1.437   1.617
14516TIP3   OH243490   5.566   0.663   4.043
14516TIP3    H143491   5.471   0.663   4.058
14516TIP3    H243492   5.603   0.711   4.117
14517TIP3   OH243493   5.218   0.361   4.954
14517TIP3    H143494   5.215   0.335   5.046
14517TIP3    H243495   5.289   0.425   4.950
14518TIP3   OH243496   6.766   6.369   1.255
14518TIP3    H143497   6.753   6.276   1.271
14518TIP3    H243498   6.789   6.405   1.341
14519TIP3   OH243499   3.570   0.829   4.770
14519TIP3    H143500   3.596   0.917   4.796
14519TIP3    H243501   3.524   0.841   4.687
14520TIP3   OH243502   7.514   6.233   1.246
14520TIP3    H143503   7.459   6.255   1.171
14520TIP3    H243504   7.501   6.306   1.307
14521TIP3   OH243505   6.833   0.643   1.518
14521TIP3    H143506   6.778   0.709   1.476
14521TIP3    H243507   6.781   0.562   1.515
14522TIP3   OH243508   7.093   5.505   4.401
14522TIP3    H143509   6.998   5.507   4.392
14522TIP3    H243510   7.125   5.526   4.313
14523TIP3   OH243511   6.995   1.591   4.445
14523TIP3    H143512   7.069   1.553   4.492
14523TIP3    H243513   7.028   1.674   4.410
14524TIP3   OH243514   2.860   5.921   4.127
14524TIP3    H143515   2.906   5.849   4.169
14524TIP3    H243516   2.849   5.986   4.196
14525TIP3   OH243517   0.909   4.953   2.852
14525TIP3    H143518   0.991   4.906   2.835
14525TIP3    H243519   0.935   5.023   2.912
14526TIP3   OH243520   2.967   2.319   5.650
14526TIP3    H143521   2.956   2.314   5.745
14526TIP3    H243522   2.960   2.413   5.630
14527TIP3   OH243523   4.321   6.129   3.755
14527TIP3    H143524   4.232   6.094   3.748
14527TIP3    H243525   4.314   6.219   3.724
14528TIP3   OH243526   2.194   4.149   5.133
14528TIP3    H143527   2.159   4.116   5.051
14528TIP3    H243528   2.245   4.227   5.108
14529TIP3   OH243529   4.503   0.108   4.424
14529TIP3    H143530   4.547   0.153   4.496
14529TIP3    H243531   4.549   0.024   4.417
14530TIP3   OH243532   7.771   1.239   0.198
14530TIP3    H143533   7.782   1.334   0.188
14530TIP3    H243534   7.684   1.221   0.161
14531TIP3   OH243535   7.078   4.907   5.709
14531TIP3    H143536   7.154   4.913   5.767
14531TIP3    H243537   7.010   4.958   5.753
14532TIP3   OH243538   2.009   7.594   5.360
14532TIP3    H143539   2.102   7.580   5.345
14532TIP3    H243540   1.991   7.678   5.318
14533TIP3   OH243541   2.628   5.137   3.562
14533TIP3    H143542   2.563   5.071   3.587
14533TIP3    H243543   2.652   5.115   3.473
14534TIP3   OH243544   2.770   2.104   1.023
14534TIP3    H143545   2.815   2.076   1.102
14534TIP3    H243546   2.797   2.041   0.956
14535TIP3   OH243547   8.162   0.161   4.705
14535TIP3    H143548   8.080   0.126   4.669
14535TIP3    H243549   8.143   0.253   4.723
14536TIP3   OH243550   7.298   2.280   6.437
14536TIP3    H143551   7.359   2.230   6.383
14536TIP3    H243552   7.329   2.370   6.430
14537TIP3   OH243553   1.906   1.708   3.342
14537TIP3    H143554   1.996   1.740   3.331
14537TIP3    H243555   1.906   1.664   3.427
14538TIP3   OH243556   3.299   7.662   1.303
14538TIP3    H143557   3.247   7.674   1.223
14538TIP3    H243558   3.234   7.650   1.372
14539TIP3   OH243559   2.672   1.807   0.660
14539TIP3    H143560   2.605   1.806   0.728
14539TIP3    H243561   2.729   1.733   0.681
14540TIP3   OH243562   6.380   2.813   2.674
14540TIP3    H143563   6.434   2.751   2.722
14540TIP3    H243564   6.377   2.779   2.585
14541TIP3   OH243565   0.852   2.476   4.651
14541TIP3    H143566   0.917   2.544   4.668
14541TIP3    H243567   0.897   2.394   4.671
14542TIP3   OH243568   3.594   1.210   3.474
14542TIP3    H143569   3.561   1.120   3.468
14542TIP3    H243570   3.522   1.260   3.510
14543TIP3   OH243571   3.092   7.468   3.476
14543TIP3    H143572   3.172   7.444   3.430
14543TIP3    H243573   3.112   7.455   3.569
14544TIP3   OH243574   4.754   7.349   5.539
14544TIP3    H143575   4.756   7.254   5.553
14544TIP3    H243576   4.722   7.359   5.449
14545TIP3   OH243577   1.003   3.918   5.151
14545TIP3    H143578   1.053   3.999   5.164
14545TIP3    H243579   1.062   3.849   5.179
14546TIP3   OH243580   2.233   2.992   4.762
14546TIP3    H143581   2.242   3.030   4.849
14546TIP3    H243582   2.276   2.906   4.768
14547TIP3   OH243583   7.851   1.070   1.578
14547TIP3    H143584   7.795   1.081   1.655
14547TIP3    H243585   7.940   1.079   1.613
14548TIP3   OH243586   1.608   6.154   3.329
14548TIP3    H143587   1.602   6.070   3.375
14548TIP3    H243588   1.519   6.189   3.333
14549TIP3   OH243589   6.087   6.648   5.505
14549TIP3    H143590   6.127   6.561   5.505
14549TIP3    H243591   5.998   6.633   5.538
14550TIP3   OH243592   4.724   6.491   2.722
14550TIP3    H143593   4.779   6.552   2.673
14550TIP3    H243594   4.694   6.428   2.657
14551TIP3   OH243595   0.667   5.527   0.173
14551TIP3    H143596   0.582   5.547   0.133
14551TIP3    H243597   0.699   5.611   0.205
14552TIP3   OH243598   4.830   3.683   2.835
14552TIP3    H143599   4.831   3.694   2.739
14552TIP3    H243600   4.753   3.733   2.863
14553TIP3   OH243601   2.423   3.687   0.963
14553TIP3    H143602   2.430   3.612   0.904
14553TIP3    H243603   2.360   3.660   1.030
14554TIP3   OH243604   5.721   4.662   0.945
14554TIP3    H143605   5.749   4.664   0.853
14554TIP3    H243606   5.779   4.725   0.988
14555TIP3   OH243607   6.873   4.534   0.701
14555TIP3    H143608   6.964   4.564   0.700
14555TIP3    H243609   6.870   4.463   0.638
14556TIP3   OH243610   5.644   0.866   4.776
14556TIP3    H143611   5.672   0.788   4.823
14556TIP3    H243612   5.568   0.838   4.725
14557TIP3   OH243613   7.940   3.553   4.686
14557TIP3    H143614   7.898   3.475   4.719
14557TIP3    H243615   7.999   3.581   4.756
14558TIP3   OH243616   1.423   6.359   3.149
14558TIP3    H143617   1.473   6.413   3.088
14558TIP3    H243618   1.402   6.418   3.221
14559TIP3   OH243619   2.617   2.637   2.198
14559TIP3    H143620   2.626   2.691   2.119
14559TIP3    H243621   2.587   2.552   2.166
14560TIP3   OH243622   1.476   3.825   0.382
14560TIP3    H143623   1.516   3.866   0.305
14560TIP3    H243624   1.546   3.772   0.420
14561TIP3   OH243625   3.916   6.899   2.770
14561TIP3    H143626   3.884   6.905   2.680
14561TIP3    H243627   3.843   6.930   2.823
14562TIP3   OH243628   2.698   6.049   0.675
14562TIP3    H143629   2.616   6.000   0.682
14562TIP3    H243630   2.670   6.141   0.677
14563TIP3   OH243631   3.412   3.444   2.417
14563TIP3    H143632   3.364   3.477   2.492
14563TIP3    H243633   3.347   3.398   2.364
14564TIP3   OH243634   8.189   4.459   0.589
14564TIP3    H143635   8.265   4.446   0.532
14564TIP3    H243636   8.168   4.372   0.622
14565TIP3   OH243637   2.214   0.655   5.629
14565TIP3    H143638   2.176   0.701   5.554
14565TIP3    H243639   2.147   0.661   5.698
14566TIP3   OH243640   6.534   7.369   0.468
14566TIP3    H143641   6.514   7.331   0.383
14566TIP3    H243642   6.531   7.464   0.454
14567TIP3   OH243643   7.387   4.385   4.715
14567TIP3    H143644   7.420   4.383   4.625
14567TIP3    H243645   7.395   4.477   4.741
14568TIP3   OH243646   4.113   3.232   3.243
14568TIP3    H143647   4.093   3.147   3.203
14568TIP3    H243648   4.170   3.210   3.317
14569TIP3   OH243649   3.973   5.091   1.807
14569TIP3    H143650   3.905   5.069   1.871
14569TIP3    H243651   4.027   5.012   1.801
14570TIP3   OH243652   7.955   6.760   6.283
14570TIP3    H143653   7.863   6.768   6.305
14570TIP3    H243654   7.992   6.847   6.299
14571TIP3   OH243655   5.064   0.718   0.313
14571TIP3    H143656   5.125   0.688   0.381
14571TIP3    H243657   4.979   0.722   0.356
14572TIP3   OH243658   4.087   2.041   6.145
14572TIP3    H143659   4.102   2.100   6.070
14572TIP3    H243660   4.013   2.081   6.191
14573TIP3   OH243661   3.526   2.696   1.678
14573TIP3    H143662   3.520   2.760   1.608
14573TIP3    H243663   3.560   2.744   1.753
14574TIP3   OH243664   0.955   3.456   6.737
14574TIP3    H143665   1.043   3.427   6.760
14574TIP3    H243666   0.904   3.375   6.734
14575TIP3   OH243667   2.175   0.540   0.637
14575TIP3    H143668   2.184   0.594   0.559
14575TIP3    H243669   2.220   0.589   0.705
14576TIP3   OH243670   7.260   7.215   0.282
14576TIP3    H143671   7.255   7.300   0.239
14576TIP3    H243672   7.248   7.151   0.212
14577TIP3   OH243673   7.215   1.642   6.530
14577TIP3    H143674   7.243   1.565   6.481
14577TIP3    H243675   7.267   1.640   6.610
14578TIP3   OH243676   6.457   6.500   5.982
14578TIP3    H143677   6.529   6.512   5.920
14578TIP3    H243678   6.435   6.407   5.975
14579TIP3   OH243679   7.221   1.646   0.428
14579TIP3    H143680   7.293   1.584   0.418
14579TIP3    H243681   7.223   1.671   0.520
14580TIP3   OH243682   5.344   4.348   3.097
14580TIP3    H143683   5.249   4.345   3.084
14580TIP3    H243684   5.377   4.397   3.021
14581TIP3   OH243685   6.168   7.628   3.464
14581TIP3    H143686   6.256   7.612   3.431
14581TIP3    H243687   6.113   7.562   3.420
14582TIP3   OH243688   5.383   7.722   5.885
14582TIP3    H143689   5.429   7.805   5.879
14582TIP3    H243690   5.396   7.693   5.975
14583TIP3   OH243691   4.393   3.651   2.609
14583TIP3    H143692   4.464   3.587   2.601
14583TIP3    H243693   4.314   3.598   2.620
14584TIP3   OH243694   6.291   2.923   6.358
14584TIP3    H143695   6.265   2.831   6.358
14584TIP3    H243696   6.247   2.961   6.282
14585TIP3   OH243697   6.204   2.361   6.491
14585TIP3    H143698   6.181   2.295   6.556
14585TIP3    H243699   6.165   2.329   6.410
14586TIP3   OH243700   2.785   4.424   5.949
14586TIP3    H143701   2.694   4.454   5.949
14586TIP3    H243702   2.794   4.375   5.867
14587TIP3   OH243703   0.478   0.694   3.153
14587TIP3    H143704   0.554   0.750   3.172
14587TIP3    H243705   0.515   0.606   3.148
14588TIP3   OH243706   1.554   1.096   1.316
14588TIP3    H143707   1.573   1.005   1.294
14588TIP3    H243708   1.598   1.110   1.399
14589TIP3   OH243709   1.139   3.340   3.674
14589TIP3    H143710   1.159   3.294   3.592
14589TIP3    H243711   1.091   3.276   3.726
14590TIP3   OH243712   3.473   0.782   2.662
14590TIP3    H143713   3.492   0.711   2.601
14590TIP3    H243714   3.529   0.764   2.738
14591TIP3   OH243715   3.454   7.740   1.825
14591TIP3    H143716   3.460   7.695   1.910
14591TIP3    H243717   3.471   7.671   1.761
14592TIP3   OH243718   7.881   1.676   5.655
14592TIP3    H143719   7.919   1.646   5.737
14592TIP3    H243720   7.836   1.600   5.619
14593TIP3   OH243721   0.601   7.083   5.453
14593TIP3    H143722   0.628   7.097   5.544
14593TIP3    H243723   0.541   7.155   5.435
14594TIP3   OH243724   5.849   6.914   2.637
14594TIP3    H143725   5.918   6.858   2.600
14594TIP3    H243726   5.852   6.993   2.584
14595TIP3   OH243727   0.828   0.564   5.208
14595TIP3    H143728   0.893   0.604   5.265
14595TIP3    H243729   0.834   0.470   5.227
14596TIP3   OH243730   6.298   1.019   1.681
14596TIP3    H143731   6.202   1.017   1.678
14596TIP3    H243732   6.324   0.941   1.632
14597TIP3   OH243733   1.463   1.991   0.427
14597TIP3    H143734   1.458   2.068   0.370
14597TIP3    H243735   1.421   1.921   0.377
14598TIP3   OH243736   6.335   2.665   5.969
14598TIP3    H143737   6.341   2.594   5.905
14598TIP3    H243738   6.395   2.639   6.039
14599TIP3   OH243739   0.293   7.313   0.247
14599TIP3    H143740   0.289   7.294   0.153
14599TIP3    H243741   0.378   7.356   0.258
14600TIP3   OH243742   2.662   7.161   4.185
14600TIP3    H143743   2.727   7.176   4.253
14600TIP3    H243744   2.581   7.199   4.220
14601TIP3   OH243745   2.606   7.608   2.284
14601TIP3    H143746   2.549   7.558   2.225
14601TIP3    H243747   2.552   7.678   2.318
14602TIP3   OH243748   1.650   5.821   5.926
14602TIP3    H143749   1.591   5.795   5.855
14602TIP3    H243750   1.642   5.916   5.931
14603TIP3   OH243751   4.220   5.644   0.282
14603TIP3    H143752   4.277   5.654   0.206
14603TIP3    H243753   4.185   5.732   0.297
14604TIP3   OH243754   0.879   4.039   5.436
14604TIP3    H143755   0.889   4.129   5.466
14604TIP3    H243756   0.961   4.018   5.392
14605TIP3   OH243757   6.137   6.361   5.543
14605TIP3    H143758   6.231   6.349   5.530
14605TIP3    H243759   6.116   6.310   5.621
14606TIP3   OH243760   7.723   6.251   0.967
14606TIP3    H143761   7.746   6.297   1.047
14606TIP3    H243762   7.709   6.160   0.994
14607TIP3   OH243763   2.094   7.430   4.347
14607TIP3    H143764   2.067   7.394   4.431
14607TIP3    H243765   2.139   7.358   4.303
14608TIP3   OH243766   4.479   1.651   4.111
14608TIP3    H143767   4.463   1.658   4.017
14608TIP3    H243768   4.452   1.736   4.147
14609TIP3   OH243769   4.989   2.135   1.402
14609TIP3    H143770   4.967   2.192   1.329
14609TIP3    H243771   4.974   2.188   1.480
14610TIP3   OH243772   1.638   2.728   1.776
14610TIP3    H143773   1.608   2.773   1.697
14610TIP3    H243774   1.707   2.669   1.745
14611TIP3   OH243775   3.504   5.105   6.527
14611TIP3    H143776   3.433   5.041   6.520
14611TIP3    H243777   3.575   5.058   6.571
14612TIP3   OH243778   0.992   4.320   0.560
14612TIP3    H143779   1.059   4.323   0.491
14612TIP3    H243780   0.929   4.387   0.533
14613TIP3   OH243781   7.763   0.834   5.505
14613TIP3    H143782   7.846   0.874   5.480
14613TIP3    H243783   7.753   0.857   5.598
14614TIP3   OH243784   7.479   3.607   1.964
14614TIP3    H143785   7.567   3.623   1.999
14614TIP3    H243786   7.427   3.681   1.996
14615TIP3   OH243787   3.929   3.877   5.452
14615TIP3    H143788   3.862   3.823   5.494
14615TIP3    H243789   4.007   3.865   5.505
14616TIP3   OH243790   5.810   6.331   3.585
14616TIP3    H143791   5.878   6.279   3.542
14616TIP3    H243792   5.859   6.390   3.643
14617TIP3   OH243793   7.740   2.782   1.240
14617TIP3    H143794   7.767   2.857   1.187
14617TIP3    H243795   7.721   2.714   1.176
14618TIP3   OH243796   0.307   6.988   0.255
14618TIP3    H143797   0.289   7.006   0.162
14618TIP3    H243798   0.332   7.073   0.291
14619TIP3   OH243799   2.256   2.345   2.700
14619TIP3    H143800   2.241   2.269   2.644
14619TIP3    H243801   2.168   2.380   2.717
14620TIP3   OH243802   0.850   0.741   2.214
14620TIP3    H143803   0.915   0.710   2.278
14620TIP3    H243804   0.901   0.792   2.151
14621TIP3   OH243805   8.176   2.657   4.578
14621TIP3    H143806   8.204   2.635   4.667
14621TIP3    H243807   8.174   2.573   4.532
14622TIP3   OH243808   6.262   6.178   6.468
14622TIP3    H143809   6.346   6.175   6.422
14622TIP3    H243810   6.279   6.138   6.553
14623TIP3   OH243811   4.137   2.080   5.308
14623TIP3    H143812   4.097   2.102   5.223
14623TIP3    H243813   4.063   2.060   5.365
14624TIP3   OH243814   4.770   5.861   6.587
14624TIP3    H143815   4.714   5.795   6.626
14624TIP3    H243816   4.744   5.862   6.494
14625TIP3   OH243817   7.901   5.084   2.219
14625TIP3    H143818   7.822   5.079   2.165
14625TIP3    H243819   7.886   5.161   2.275
14626TIP3   OH243820   1.464   0.749   4.469
14626TIP3    H143821   1.368   0.756   4.469
14626TIP3    H243822   1.481   0.663   4.507
14627TIP3   OH243823   0.073   7.529   4.085
14627TIP3    H143824   0.064   7.478   4.165
14627TIP3    H243825   0.167   7.549   4.080
14628TIP3   OH243826   3.008   4.186   1.603
14628TIP3    H143827   3.011   4.124   1.675
14628TIP3    H243828   3.072   4.254   1.627
14629TIP3   OH243829   4.798   6.717   0.640
14629TIP3    H143830   4.721   6.672   0.675
14629TIP3    H243831   4.778   6.810   0.652
14630TIP3   OH243832   6.040   1.729   5.621
14630TIP3    H143833   6.008   1.791   5.556
14630TIP3    H243834   5.962   1.695   5.663
14631TIP3   OH243835   5.629   7.160   0.716
14631TIP3    H143836   5.667   7.077   0.685
14631TIP3    H243837   5.549   7.133   0.760
14632TIP3   OH243838   1.703   6.414   4.049
14632TIP3    H143839   1.722   6.325   4.020
14632TIP3    H243840   1.672   6.459   3.970
14633TIP3   OH243841   0.595   5.221   5.545
14633TIP3    H143842   0.542   5.158   5.592
14633TIP3    H243843   0.643   5.268   5.613
14634TIP3   OH243844   1.653   3.448   3.907
14634TIP3    H143845   1.572   3.403   3.930
14634TIP3    H243846   1.625   3.528   3.863
14635TIP3   OH243847   4.421   1.788   3.389
14635TIP3    H143848   4.339   1.810   3.345
14635TIP3    H243849   4.428   1.850   3.461
14636TIP3   OH243850   2.209   6.910   0.125
14636TIP3    H143851   2.210   6.917   0.221
14636TIP3    H243852   2.186   6.997   0.095
14637TIP3   OH243853   2.290   2.986   4.485
14637TIP3    H143854   2.377   2.982   4.445
14637TIP3    H243855   2.304   2.963   4.576
14638TIP3   OH243856   4.764   4.001   3.997
14638TIP3    H143857   4.834   3.959   4.047
14638TIP3    H243858   4.807   4.028   3.915
14639TIP3   OH243859   0.614   4.715   2.564
14639TIP3    H143860   0.563   4.748   2.638
14639TIP3    H243861   0.577   4.629   2.546
14640TIP3   OH243862   5.994   3.675   2.904
14640TIP3    H143863   5.931   3.604   2.919
14640TIP3    H243864   6.038   3.650   2.823
14641TIP3   OH243865   1.675   6.656   2.507
14641TIP3    H143866   1.751   6.602   2.487
14641TIP3    H243867   1.685   6.733   2.451
14642TIP3   OH243868   1.692   3.139   0.179
14642TIP3    H143869   1.599   3.139   0.203
14642TIP3    H243870   1.694   3.181   0.093
14643TIP3   OH243871   1.440   0.302   1.059
14643TIP3    H143872   1.395   0.382   1.031
14643TIP3    H243873   1.386   0.268   1.130
14644TIP3   OH243874   3.554   3.024   1.132
14644TIP3    H143875   3.609   2.966   1.184
14644TIP3    H243876   3.530   3.095   1.191
14645TIP3   OH243877   0.150   7.213   6.631
14645TIP3    H143878   0.065   7.188   6.595
14645TIP3    H243879   0.152   7.173   6.718
14646TIP3   OH243880   5.417   2.167   2.939
14646TIP3    H143881   5.484   2.172   3.007
14646TIP3    H243882   5.466   2.160   2.857
14647TIP3   OH243883   4.353   1.968   6.220
14647TIP3    H143884   4.403   2.012   6.151
14647TIP3    H243885   4.262   1.993   6.204
14648TIP3   OH243886   0.252   3.019   2.516
14648TIP3    H143887   0.206   2.948   2.561
14648TIP3    H243888   0.281   2.980   2.434
14649TIP3   OH243889   5.298   3.722   1.178
14649TIP3    H143890   5.290   3.772   1.097
14649TIP3    H243891   5.269   3.634   1.155
14650TIP3   OH243892   1.456   7.551   4.363
14650TIP3    H143893   1.442   7.532   4.270
14650TIP3    H243894   1.455   7.464   4.405
14651TIP3   OH243895   5.284   3.204   2.919
14651TIP3    H143896   5.277   3.298   2.907
14651TIP3    H243897   5.377   3.186   2.913
14652TIP3   OH243898   5.471   3.511   2.999
14652TIP3    H143899   5.445   3.481   2.911
14652TIP3    H243900   5.389   3.538   3.041
14653TIP3   OH243901   4.228   0.217   5.765
14653TIP3    H143902   4.288   0.290   5.748
14653TIP3    H243903   4.261   0.147   5.708
14654TIP3   OH243904   7.465   1.587   5.189
14654TIP3    H143905   7.411   1.592   5.109
14654TIP3    H243906   7.490   1.678   5.206
14655TIP3   OH243907   5.722   1.571   1.108
14655TIP3    H143908   5.647   1.629   1.119
14655TIP3    H243909   5.690   1.485   1.135
14656TIP3   OH243910   4.002   1.794   1.023
14656TIP3    H143911   3.976   1.830   1.108
14656TIP3    H243912   3.963   1.854   0.959
14657TIP3   OH243913   7.253   7.817   3.258
14657TIP3    H143914   7.196   7.847   3.187
14657TIP3    H243915   7.255   7.722   3.249
14658TIP3   OH243916   3.795   0.642   0.151
14658TIP3    H143917   3.819   0.553   0.176
14658TIP3    H243918   3.772   0.685   0.233
14659TIP3   OH243919   1.488   4.784   1.822
14659TIP3    H143920   1.475   4.759   1.914
14659TIP3    H243921   1.479   4.702   1.774
14660TIP3   OH243922   0.374   6.489   6.843
14660TIP3    H143923   0.307   6.558   6.838
14660TIP3    H243924   0.376   6.451   6.755
14661TIP3   OH243925   7.956   2.030   3.031
14661TIP3    H143926   7.925   1.978   2.957
14661TIP3    H243927   7.927   1.982   3.108
14662TIP3   OH243928   4.699   4.669   2.313
14662TIP3    H143929   4.633   4.735   2.332
14662TIP3    H243930   4.657   4.586   2.333
14663TIP3   OH243931   6.236   1.097   6.546
14663TIP3    H143932   6.259   1.029   6.482
14663TIP3    H243933   6.318   1.143   6.563
14664TIP3   OH243934   5.158   4.199   5.887
14664TIP3    H143935   5.231   4.260   5.901
14664TIP3    H243936   5.083   4.242   5.929
14665TIP3   OH243937   1.279   0.140   1.557
14665TIP3    H143938   1.341   0.124   1.485
14665TIP3    H243939   1.210   0.076   1.543
14666TIP3   OH243940   7.888   4.818   2.457
14666TIP3    H143941   7.972   4.855   2.431
14666TIP3    H243942   7.846   4.888   2.507
14667TIP3   OH243943   6.380   0.527   6.010
14667TIP3    H143944   6.432   0.554   5.935
14667TIP3    H243945   6.443   0.487   6.070
14668TIP3   OH243946   1.734   7.782   3.160
14668TIP3    H143947   1.791   7.707   3.179
14668TIP3    H243948   1.651   7.742   3.132
14669TIP3   OH243949   4.809   7.753   5.501
14669TIP3    H143950   4.799   7.810   5.577
14669TIP3    H243951   4.732   7.696   5.503
14670TIP3   OH243952   4.398   1.758   4.441
14670TIP3    H143953   4.465   1.772   4.508
14670TIP3    H243954   4.412   1.827   4.378
14671TIP3   OH243955   3.027   2.987   0.470
14671TIP3    H143956   3.048   3.079   0.486
14671TIP3    H243957   3.111   2.942   0.479
14672TIP3   OH243958   4.732   1.938   4.157
14672TIP3    H143959   4.788   1.915   4.231
14672TIP3    H243960   4.649   1.894   4.175
14673TIP3   OH243961   8.254   7.499   6.329
14673TIP3    H143962   8.263   7.404   6.323
14673TIP3    H243963   8.339   7.533   6.301
14674TIP3   OH243964   5.472   4.890   3.825
14674TIP3    H143965   5.506   4.948   3.758
14674TIP3    H243966   5.377   4.893   3.814
14675TIP3   OH243967   4.506   4.304   3.484
14675TIP3    H143968   4.440   4.301   3.415
14675TIP3    H243969   4.560   4.380   3.462
14676TIP3   OH243970   7.262   1.343   0.450
14676TIP3    H143971   7.272   1.248   0.465
14676TIP3    H243972   7.169   1.360   0.461
14677TIP3   OH243973   7.794   3.593   5.337
14677TIP3    H143974   7.741   3.556   5.266
14677TIP3    H243975   7.873   3.624   5.294
14678TIP3   OH243976   8.140   3.010   5.236
14678TIP3    H143977   8.189   3.055   5.304
14678TIP3    H243978   8.163   2.917   5.246
14679TIP3   OH243979   5.484   1.922   6.698
14679TIP3    H143980   5.466   2.003   6.746
14679TIP3    H243981   5.519   1.951   6.613
14680TIP3   OH243982   2.654   4.569   5.393
14680TIP3    H143983   2.624   4.655   5.422
14680TIP3    H243984   2.575   4.526   5.360
14681TIP3   OH243985   1.541   5.279   1.453
14681TIP3    H143986   1.635   5.271   1.470
14681TIP3    H243987   1.536   5.328   1.371
14682TIP3   OH243988   4.601   7.688   4.316
14682TIP3    H143989   4.537   7.647   4.375
14682TIP3    H243990   4.557   7.688   4.231
14683TIP3   OH243991   7.706   7.338   5.460
14683TIP3    H143992   7.677   7.303   5.545
14683TIP3    H243993   7.634   7.395   5.433
14684TIP3   OH243994   2.753   3.187   6.480
14684TIP3    H143995   2.668   3.208   6.518
14684TIP3    H243996   2.815   3.198   6.551
14685TIP3   OH243997   3.750   4.617   3.739
14685TIP3    H143998   3.792   4.633   3.824
14685TIP3    H243999   3.685   4.686   3.731
14686TIP3   OH244000   8.127   3.986   1.529
14686TIP3    H144001   8.050   4.019   1.577
14686TIP3    H244002   8.092   3.956   1.445
14687TIP3   OH244003   7.080   2.079   6.722
14687TIP3    H144004   7.175   2.079   6.730
14687TIP3    H244005   7.064   2.056   6.630
14688TIP3   OH244006   0.365   2.205   6.409
14688TIP3    H144007   0.427   2.269   6.374
14688TIP3    H244008   0.285   2.255   6.423
14689TIP3   OH244009   0.195   2.150   1.588
14689TIP3    H144010   0.207   2.072   1.533
14689TIP3    H244011   0.283   2.175   1.615
14690TIP3   OH244012   1.262   6.070   2.564
14690TIP3    H144013   1.327   6.010   2.600
14690TIP3    H244014   1.244   6.036   2.476
14691TIP3   OH244015   2.607   2.162   3.768
14691TIP3    H144016   2.576   2.105   3.698
14691TIP3    H244017   2.625   2.102   3.841
14692TIP3   OH244018   2.423   3.962   6.739
14692TIP3    H144019   2.334   3.981   6.768
14692TIP3    H244020   2.426   3.866   6.735
14693TIP3   OH244021   7.550   0.462   6.655
14693TIP3    H144022   7.612   0.418   6.598
14693TIP3    H244023   7.541   0.550   6.618
14694TIP3   OH244024   6.721   2.317   1.077
14694TIP3    H144025   6.648   2.296   1.018
14694TIP3    H244026   6.750   2.232   1.110
14695TIP3   OH244027   6.002   0.681   1.985
14695TIP3    H144028   6.039   0.610   2.038
14695TIP3    H244029   6.054   0.758   2.008
14696TIP3   OH244030   4.211   7.617   2.563
14696TIP3    H144031   4.251   7.542   2.518
14696TIP3    H244032   4.277   7.643   2.628
14697TIP3   OH244033   1.829   5.638   6.099
14697TIP3    H144034   1.766   5.566   6.086
14697TIP3    H244035   1.805   5.703   6.033
14698TIP3   OH244036   2.119   3.810   6.714
14698TIP3    H144037   2.040   3.778   6.756
14698TIP3    H244038   2.103   3.904   6.701
14699TIP3   OH244039   1.379   5.800   3.498
14699TIP3    H144040   1.394   5.706   3.499
14699TIP3    H244041   1.350   5.821   3.586
14700TIP3   OH244042   2.249   6.999   1.623
14700TIP3    H144043   2.317   7.066   1.620
14700TIP3    H244044   2.273   6.945   1.699
14701TIP3   OH244045   0.269   6.112   3.898
14701TIP3    H144046   0.280   6.029   3.944
14701TIP3    H244047   0.343   6.115   3.836
14702TIP3   OH244048   6.155   3.494   0.166
14702TIP3    H144049   6.075   3.441   0.169
14702TIP3    H244050   6.226   3.430   0.162
14703TIP3   OH244051   2.143   5.514   0.662
14703TIP3    H144052   2.101   5.507   0.576
14703TIP3    H244053   2.102   5.444   0.714
14704TIP3   OH244054   2.906   1.402   3.146
14704TIP3    H144055   2.985   1.363   3.108
14704TIP3    H244056   2.838   1.387   3.081
14705TIP3   OH244057   4.295   7.525   4.206
14705TIP3    H144058   4.354   7.450   4.196
14705TIP3    H244059   4.214   7.497   4.164
14706TIP3   OH244060   0.533   7.696   0.245
14706TIP3    H144061   0.624   7.702   0.218
14706TIP3    H244062   0.524   7.758   0.317
14707TIP3   OH244063   2.256   2.889   2.105
14707TIP3    H144064   2.322   2.895   2.174
14707TIP3    H244065   2.279   2.960   2.045
14708TIP3   OH244066   5.924   2.094   2.030
14708TIP3    H144067   5.997   2.044   1.994
14708TIP3    H244068   5.964   2.168   2.074
14709TIP3   OH244069   4.714   3.609   1.844
14709TIP3    H144070   4.799   3.571   1.823
14709TIP3    H244071   4.696   3.580   1.933
14710TIP3   OH244072   0.482   5.940   4.713
14710TIP3    H144073   0.463   6.033   4.712
14710TIP3    H244074   0.560   5.932   4.768
14711TIP3   OH244075   4.645   0.862   5.413
14711TIP3    H144076   4.598   0.859   5.496
14711TIP3    H244077   4.614   0.943   5.371
14712TIP3   OH244078   3.914   4.876   6.207
14712TIP3    H144079   3.944   4.831   6.287
14712TIP3    H244080   3.991   4.925   6.178
14713TIP3   OH244081   0.399   1.786   0.687
14713TIP3    H144082   0.384   1.751   0.775
14713TIP3    H244083   0.450   1.719   0.643
14714TIP3   OH244084   1.745   3.323   4.530
14714TIP3    H144085   1.652   3.308   4.514
14714TIP3    H244086   1.757   3.416   4.511
14715TIP3   OH244087  -0.035   0.496   6.421
14715TIP3    H144088   0.046   0.488   6.471
14715TIP3    H244089  -0.007   0.517   6.332
14716TIP3   OH244090   5.012   6.463   4.277
14716TIP3    H144091   5.090   6.420   4.243
14716TIP3    H244092   4.977   6.402   4.342
14717TIP3   OH244093   4.074   1.109   3.851
14717TIP3    H144094   4.048   1.107   3.759
14717TIP3    H244095   3.991   1.113   3.899
14718TIP3   OH244096   4.017   6.889   1.584
14718TIP3    H144097   4.020   6.984   1.597
14718TIP3    H244098   3.978   6.879   1.497
14719TIP3   OH244099   1.683   7.688   2.583
14719TIP3    H144100   1.717   7.668   2.495
14719TIP3    H244101   1.676   7.783   2.584
14720TIP3   OH244102   2.692   4.844   0.878
14720TIP3    H144103   2.739   4.762   0.864
14720TIP3    H244104   2.726   4.878   0.961
14721TIP3   OH244105   7.617   7.364   0.564
14721TIP3    H144106   7.713   7.355   0.557
14721TIP3    H244107   7.595   7.321   0.646
14722TIP3   OH244108   7.236   3.203   2.189
14722TIP3    H144109   7.169   3.136   2.173
14722TIP3    H244110   7.249   3.244   2.103
14723TIP3   OH244111   4.091   2.633   1.422
14723TIP3    H144112   4.074   2.726   1.440
14723TIP3    H244113   4.176   2.616   1.463
14724TIP3   OH244114   3.961   2.682   1.172
14724TIP3    H144115   4.044   2.671   1.124
14724TIP3    H244116   3.986   2.672   1.264
14725TIP3   OH244117   7.570   7.475   3.549
14725TIP3    H144118   7.506   7.540   3.519
14725TIP3    H244119   7.631   7.467   3.476
14726TIP3   OH244120   3.026   3.969   4.621
14726TIP3    H144121   2.998   3.996   4.534
14726TIP3    H244122   3.118   3.995   4.626
14727TIP3   OH244123   8.074   2.314   0.740
14727TIP3    H144124   8.133   2.390   0.741
14727TIP3    H244125   8.008   2.336   0.675
14728TIP3   OH244126   4.143   1.511   4.972
14728TIP3    H144127   4.183   1.539   5.054
14728TIP3    H244128   4.204   1.446   4.936
14729TIP3   OH244129   2.339   7.058   2.146
14729TIP3    H144130   2.285   6.989   2.185
14729TIP3    H244131   2.373   7.107   2.221
14730TIP3   OH244132   5.944   4.476   1.309
14730TIP3    H144133   5.850   4.458   1.308
14730TIP3    H244134   5.982   4.401   1.355
14731TIP3   OH244135   2.631   5.454   5.541
14731TIP3    H144136   2.635   5.549   5.536
14731TIP3    H244137   2.557   5.430   5.485
14732TIP3   OH244138   3.972   7.819   5.421
14732TIP3    H144139   3.994   7.726   5.429
14732TIP3    H244140   3.893   7.820   5.366
14733TIP3   OH244141   0.717   4.287   6.446
14733TIP3    H144142   0.808   4.305   6.420
14733TIP3    H244143   0.676   4.255   6.366
14734TIP3   OH244144   1.356   4.856   1.321
14734TIP3    H144145   1.394   4.909   1.391
14734TIP3    H244146   1.362   4.766   1.353
14735TIP3   OH244147   4.624   5.304   3.518
14735TIP3    H144148   4.648   5.222   3.475
14735TIP3    H244149   4.703   5.331   3.565
14736TIP3   OH244150   5.083   5.936   4.877
14736TIP3    H144151   5.034   5.861   4.843
14736TIP3    H244152   5.015   5.999   4.901
14737TIP3   OH244153   2.173   7.236   3.544
14737TIP3    H144154   2.103   7.259   3.606
14737TIP3    H244155   2.130   7.238   3.459
14738TIP3   OH244156   1.317   3.428   5.346
14738TIP3    H144157   1.383   3.483   5.303
14738TIP3    H244158   1.292   3.364   5.280
14739TIP3   OH244159   4.520   4.039   3.559
14739TIP3    H144160   4.607   4.005   3.580
14739TIP3    H244161   4.535   4.126   3.523
14740TIP3   OH244162   4.663   2.879   6.505
14740TIP3    H144163   4.736   2.819   6.516
14740TIP3    H244164   4.591   2.839   6.554
14741TIP3   OH244165   8.003   4.626   6.095
14741TIP3    H144166   8.026   4.675   6.015
14741TIP3    H244167   7.990   4.694   6.161
14742TIP3   OH244168   1.824   3.886   2.359
14742TIP3    H144169   1.771   3.842   2.293
14742TIP3    H244170   1.906   3.907   2.314
14743TIP3   OH244171   3.785   3.735   1.435
14743TIP3    H144172   3.845   3.679   1.385
14743TIP3    H244173   3.818   3.731   1.524
14744TIP3   OH244174   5.906   4.182   1.148
14744TIP3    H144175   5.881   4.141   1.065
14744TIP3    H244176   5.856   4.263   1.150
14745TIP3   OH244177   1.842   0.366   2.701
14745TIP3    H144178   1.805   0.424   2.634
14745TIP3    H244179   1.936   0.383   2.699
14746TIP3   OH244180   8.135   2.112   6.346
14746TIP3    H144181   8.045   2.094   6.375
14746TIP3    H244182   8.148   2.205   6.366
14747TIP3   OH244183   4.381   6.860   2.031
14747TIP3    H144184   4.317   6.793   2.055
14747TIP3    H244185   4.332   6.923   1.979
14748TIP3   OH244186   0.141   5.056   2.724
14748TIP3    H144187   0.047   5.056   2.744
14748TIP3    H244188   0.149   5.113   2.647
14749TIP3   OH244189   6.341   2.462   1.153
14749TIP3    H144190   6.279   2.441   1.223
14749TIP3    H244191   6.426   2.435   1.187
14750TIP3   OH244192   0.063   2.405   0.423
14750TIP3    H144193   0.147   2.385   0.382
14750TIP3    H244194   0.000   2.406   0.350
14751TIP3   OH244195   5.944   3.143   2.240
14751TIP3    H144196   5.854   3.147   2.209
14751TIP3    H244197   5.937   3.120   2.333
14752TIP3   OH244198   6.152   7.152   2.823
14752TIP3    H144199   6.108   7.214   2.881
14752TIP3    H244200   6.117   7.066   2.849
14753TIP3   OH244201   5.907   6.422   0.003
14753TIP3    H144202   5.945   6.336  -0.014
14753TIP3    H244203   5.916   6.434   0.097
14754TIP3   OH244204   8.023   6.778   1.675
14754TIP3    H144205   8.060   6.723   1.744
14754TIP3    H244206   7.934   6.745   1.664
14755TIP3   OH244207   6.762   0.451   1.256
14755TIP3    H144208   6.696   0.458   1.325
14755TIP3    H244209   6.796   0.540   1.246
14756TIP3   OH244210   6.802   5.380   6.275
14756TIP3    H144211   6.775   5.317   6.209
14756TIP3    H244212   6.877   5.425   6.236
14757TIP3   OH244213   4.470   7.122   6.702
14757TIP3    H144214   4.502   7.109   6.613
14757TIP3    H244215   4.477   7.216   6.717
14758TIP3   OH244216   4.828   4.962   1.848
14758TIP3    H144217   4.844   4.937   1.757
14758TIP3    H244218   4.831   5.058   1.847
14759TIP3   OH244219   1.047   2.110   3.025
14759TIP3    H144220   1.130   2.074   3.056
14759TIP3    H244221   1.070   2.160   2.947
14760TIP3   OH244222   5.495   2.457   0.600
14760TIP3    H144223   5.575   2.510   0.600
14760TIP3    H244224   5.499   2.407   0.682
14761TIP3   OH244225   8.228   4.172   1.844
14761TIP3    H144226   8.184   4.176   1.759
14761TIP3    H244227   8.186   4.240   1.896
14762TIP3   OH244228   7.040   3.118   6.183
14762TIP3    H144229   6.999   3.132   6.097
14762TIP3    H244230   6.971   3.077   6.236
14763TIP3   OH244231   2.127   0.231   0.512
14763TIP3    H144232   2.166   0.217   0.598
14763TIP3    H244233   2.201   0.231   0.451
14764TIP3   OH244234   0.830   5.750   3.582
14764TIP3    H144235   0.835   5.655   3.591
14764TIP3    H244236   0.801   5.764   3.491
14765TIP3   OH244237   5.476   1.101   5.233
14765TIP3    H144238   5.421   1.176   5.254
14765TIP3    H244239   5.565   1.132   5.247
14766TIP3   OH244240   6.351   0.591   3.064
14766TIP3    H144241   6.392   0.527   3.006
14766TIP3    H244242   6.259   0.564   3.068
14767TIP3   OH244243   3.596   5.558   0.304
14767TIP3    H144244   3.620   5.646   0.333
14767TIP3    H244245   3.562   5.515   0.382
14768TIP3   OH244246   0.621   2.080   5.007
14768TIP3    H144247   0.576   2.106   4.927
14768TIP3    H244248   0.714   2.091   4.988
14769TIP3   OH244249   5.462   2.847   4.620
14769TIP3    H144250   5.496   2.759   4.607
14769TIP3    H244251   5.504   2.877   4.700
14770TIP3   OH244252   2.628   5.849   1.553
14770TIP3    H144253   2.715   5.829   1.588
14770TIP3    H244254   2.602   5.929   1.600
14771TIP3   OH244255   7.483   7.056   0.460
14771TIP3    H144256   7.482   6.982   0.399
14771TIP3    H244257   7.435   7.125   0.414
14772TIP3   OH244258   6.131   5.091   5.983
14772TIP3    H144259   6.134   5.149   5.907
14772TIP3    H244260   6.040   5.095   6.012
14773TIP3   OH244261   5.011   1.115   2.113
14773TIP3    H144262   4.987   1.142   2.202
14773TIP3    H244263   5.106   1.111   2.114
14774TIP3   OH244264   5.802   0.469   2.727
14774TIP3    H144265   5.768   0.555   2.749
14774TIP3    H244266   5.739   0.408   2.764
14775TIP3   OH244267   3.296   6.385   4.762
14775TIP3    H144268   3.387   6.382   4.731
14775TIP3    H244269   3.300   6.441   4.840
14776TIP3   OH244270   2.583   4.819   5.526
14776TIP3    H144271   2.628   4.904   5.520
14776TIP3    H244272   2.490   4.841   5.520
14777TIP3   OH244273   0.118   5.556   2.433
14777TIP3    H144274   0.098   5.484   2.373
14777TIP3    H244275   0.173   5.516   2.500
14778TIP3   OH244276   2.076   7.141   5.300
14778TIP3    H144277   2.066   7.069   5.238
14778TIP3    H244278   2.103   7.215   5.246
14779TIP3   OH244279   4.093   7.059   2.626
14779TIP3    H144280   4.017   7.030   2.575
14779TIP3    H244281   4.071   7.036   2.717
14780TIP3   OH244282   0.447   4.615   1.791
14780TIP3    H144283   0.438   4.675   1.717
14780TIP3    H244284   0.524   4.562   1.771
14781TIP3   OH244285   3.082   3.950   3.943
14781TIP3    H144286   3.042   3.872   3.905
14781TIP3    H244287   3.108   3.922   4.031
14782TIP3   OH244288   4.275   7.400   3.889
14782TIP3    H144289   4.208   7.436   3.831
14782TIP3    H244290   4.311   7.325   3.841
14783TIP3   OH244291   0.549   2.124   3.453
14783TIP3    H144292   0.518   2.159   3.370
14783TIP3    H244293   0.480   2.144   3.516
14784TIP3   OH244294   7.896   7.259   1.204
14784TIP3    H144295   7.933   7.262   1.292
14784TIP3    H244296   7.889   7.166   1.184
14785TIP3   OH244297   4.587   2.510   4.789
14785TIP3    H144298   4.639   2.516   4.709
14785TIP3    H244299   4.565   2.417   4.797
14786TIP3   OH244300   4.992   6.845   6.253
14786TIP3    H144301   4.924   6.882   6.197
14786TIP3    H244302   5.074   6.860   6.205
14787TIP3   OH244303   1.956   5.056   3.582
14787TIP3    H144304   2.031   4.997   3.595
14787TIP3    H244305   1.893   5.029   3.649
14788TIP3   OH244306   6.898   6.370   0.872
14788TIP3    H144307   6.942   6.309   0.813
14788TIP3    H244308   6.890   6.451   0.822
14789TIP3   OH244309   5.320   2.569   1.962
14789TIP3    H144310   5.338   2.501   2.028
14789TIP3    H244311   5.282   2.641   2.012
14790TIP3   OH244312   2.666   0.841   5.873
14790TIP3    H144313   2.629   0.927   5.891
14790TIP3    H244314   2.695   0.845   5.782
14791TIP3   OH244315   1.295   4.828   3.493
14791TIP3    H144316   1.220   4.886   3.485
14791TIP3    H244317   1.328   4.819   3.403
14792TIP3   OH244318   5.480   2.766   4.315
14792TIP3    H144319   5.412   2.728   4.371
14792TIP3    H244320   5.474   2.860   4.330
14793TIP3   OH244321   6.753   4.864   2.234
14793TIP3    H144322   6.717   4.951   2.252
14793TIP3    H244323   6.772   4.865   2.140
14794TIP3   OH244324   3.138   7.254   0.051
14794TIP3    H144325   3.111   7.346   0.051
14794TIP3    H244326   3.234   7.258   0.051
14795TIP3   OH244327   6.296   4.979   5.499
14795TIP3    H144328   6.276   5.038   5.427
14795TIP3    H244329   6.282   5.031   5.578
14796TIP3   OH244330   2.344   3.099   0.657
14796TIP3    H144331   2.419   3.062   0.612
14796TIP3    H244332   2.285   3.127   0.587
14797TIP3   OH244333   1.231   7.707   1.288
14797TIP3    H144334   1.211   7.798   1.308
14797TIP3    H244335   1.146   7.663   1.287
14798TIP3   OH244336   5.828   0.925   4.136
14798TIP3    H144337   5.853   0.988   4.204
14798TIP3    H244338   5.807   0.845   4.184
14799TIP3   OH244339   8.007   2.457   2.787
14799TIP3    H144340   7.954   2.536   2.794
14799TIP3    H244341   7.948   2.386   2.811
14800TIP3   OH244342   3.136   5.412   1.341
14800TIP3    H144343   3.134   5.479   1.409
14800TIP3    H244344   3.184   5.339   1.380
14801TIP3   OH244345   1.095   7.438   1.706
14801TIP3    H144346   1.090   7.527   1.670
14801TIP3    H244347   1.112   7.451   1.799
14802TIP3   OH244348   3.625   6.927   3.483
14802TIP3    H144349   3.564   7.000   3.489
14802TIP3    H244350   3.569   6.851   3.465
14803TIP3   OH244351   3.100   1.876   4.709
14803TIP3    H144352   3.135   1.888   4.797
14803TIP3    H244353   3.040   1.950   4.697
14804TIP3   OH244354   7.257   1.854   0.272
14804TIP3    H144355   7.206   1.908   0.332
14804TIP3    H244356   7.261   1.768   0.315
14805TIP3   OH244357   7.312   3.269   3.251
14805TIP3    H144358   7.391   3.284   3.199
14805TIP3    H244359   7.333   3.304   3.337
14806TIP3   OH244360   3.744   4.033   6.002
14806TIP3    H144361   3.686   4.098   5.961
14806TIP3    H244362   3.695   3.951   5.996
14807TIP3   OH244363   7.953   1.932   3.970
14807TIP3    H144364   7.968   1.910   3.878
14807TIP3    H244365   7.921   1.851   4.009
14808TIP3   OH244366   6.336   3.989   1.977
14808TIP3    H144367   6.374   3.907   1.945
14808TIP3    H244368   6.337   3.982   2.072
14809TIP3   OH244369   7.366   6.896   4.581
14809TIP3    H144370   7.424   6.824   4.559
14809TIP3    H244371   7.424   6.969   4.602
14810TIP3   OH244372   2.918   1.766   1.059
14810TIP3    H144373   2.896   1.817   0.981
14810TIP3    H244374   3.000   1.722   1.035
14811TIP3   OH244375   3.286   2.330   5.442
14811TIP3    H144376   3.299   2.365   5.530
14811TIP3    H244377   3.371   2.339   5.399
14812TIP3   OH244378   1.073   7.087   6.450
14812TIP3    H144379   1.113   7.090   6.363
14812TIP3    H244380   1.087   6.996   6.479
14813TIP3   OH244381   1.085   4.756   0.464
14813TIP3    H144382   1.059   4.672   0.502
14813TIP3    H244383   1.087   4.816   0.539
14814TIP3   OH244384   5.626   1.191   5.676
14814TIP3    H144385   5.541   1.154   5.699
14814TIP3    H244386   5.690   1.125   5.702
14815TIP3   OH244387   4.856   0.777   1.604
14815TIP3    H144388   4.799   0.832   1.658
14815TIP3    H244389   4.870   0.699   1.657
   8.30438   7.82945   6.78050   0.00000   0.00000  -2.76813   0.00000  -2.76813  -3.91472
