Title
29212
    1ASP      N    1   0.976   1.695   2.437  0.0844 -0.1827 -0.1006
    1ASP    HT1    2   1.068   1.716   2.482 -1.2074  1.4555  1.9062
    1ASP    HT2    3   0.914   1.774   2.463  1.3923  0.3321  1.6536
    1ASP    HT3    4   0.993   1.692   2.334  1.8888  0.5902  0.1283
    1ASP     CA    5   0.923   1.568   2.477  0.1646 -0.0531 -0.3637
    1ASP     HA    6   0.898   1.583   2.581  1.7899  1.2893 -0.1225
    1ASP     CB    7   0.789   1.519   2.410  0.3964  0.2832  0.2474
    1ASP    HB1    8   0.761   1.426   2.463  1.2012 -1.8804 -2.8118
    1ASP    HB2    9   0.802   1.485   2.305 -0.4039  0.7824 -0.0259
    1ASP     CG   10   0.677   1.625   2.422  0.0914  0.8056 -0.0957
    1ASP    OD1   11   0.565   1.609   2.363 -0.2506 -0.2131  0.5441
    1ASP    OD2   12   0.702   1.718   2.498 -0.4267  0.3910 -0.1398
    1ASP      C   13   1.026   1.451   2.474  0.8490 -1.1274  0.4804
    1ASP      O   14   1.121   1.449   2.401 -0.4214  0.3447 -0.1722
    2GLY      N   15   1.004   1.349   2.560  0.0639 -0.1165 -0.4451
    2GLY     HN   16   0.916   1.344   2.608  0.5502  1.6185  0.7259
    2GLY     CA   17   1.103   1.242   2.577  0.1919 -0.5427  0.2033
    2GLY    HA1   18   1.157   1.212   2.489  1.5523 -0.5866  1.0240
    2GLY    HA2   19   1.056   1.170   2.643  0.0387  0.4693  1.2215
    2GLY      C   20   1.223   1.301   2.649  0.5311  0.5615 -0.1667
    2GLY      O   21   1.216   1.381   2.744 -0.8679  0.2822 -0.4804
    3ASP      N   22   1.343   1.261   2.609 -0.4345  0.1267 -0.1663
    3ASP     HN   23   1.340   1.205   2.527 -1.4285 -0.1756  0.0508
    3ASP     CA   24   1.481   1.298   2.663  0.2868  0.4961  0.4190
    3ASP     HA   25   1.479   1.271   2.768  0.4665  0.3308  0.3806
    3ASP     CB   26   1.597   1.221   2.592 -0.2037  0.3052 -0.5090
    3ASP    HB1   27   1.690   1.215   2.652  0.0409  0.3204 -0.8836
    3ASP    HB2   28   1.620   1.270   2.495 -1.1632  1.5796 -0.1228
    3ASP     CG   29   1.568   1.078   2.560  0.3764 -0.5756  0.2780
    3ASP    OD1   30   1.600   1.030   2.447 -0.3696  0.2249 -0.4175
    3ASP    OD2   31   1.511   1.009   2.650 -0.4046  0.1764  0.3940
    3ASP      C   32   1.511   1.446   2.663 -0.0682 -0.0076  0.0906
    3ASP      O   33   1.479   1.521   2.571  0.0218  0.0983 -0.7133
    4GLY      N   34   1.570   1.494   2.770  0.0116 -0.6572 -0.1099
    4GLY     HN   35   1.597   1.430   2.841 -0.9525 -0.8371  0.1129
    4GLY     CA   36   1.590   1.637   2.785  0.0391  0.2337  0.2843
    4GLY    HA1   37   1.608   1.690   2.692  0.7153 -0.7984 -0.1917
    4GLY    HA2   38   1.670   1.638   2.857  0.2782  1.2883  0.0262
    4GLY      C   39   1.465   1.711   2.843 -0.2697 -1.1278 -0.7852
    4GLY      O   40   1.358   1.657   2.849 -0.0587 -0.0739  0.0091
    5PRO      N   41   1.482   1.836   2.880  0.2237 -0.8131  0.3473
    5PRO     CD   42   1.614   1.892   2.912 -0.0694 -0.0833 -0.0033
    5PRO    HD1   43   1.662   1.927   2.818 -0.6221 -0.8213 -0.5782
    5PRO    HD2   44   1.668   1.809   2.963  0.2336 -1.0064 -1.7357
    5PRO     CA   45   1.372   1.924   2.934 -0.5426  0.1683  0.1777
    5PRO     HA   46   1.341   1.876   3.026 -0.9905 -0.9120 -0.5174
    5PRO     CB   47   1.440   2.055   2.958 -0.4221 -0.0051 -0.2171
    5PRO    HB1   48   1.389   2.118   3.033 -0.2004  2.4985 -2.0346
    5PRO    HB2   49   1.448   2.118   2.867 -2.6103  1.4937  0.5505
    5PRO     CG   50   1.582   2.011   3.003 -0.4895  0.3234 -0.0580
    5PRO    HG1   51   1.644   2.102   2.989 -0.8332  0.3596 -1.5267
    5PRO    HG2   52   1.573   1.981   3.109 -1.5572 -1.6399 -0.6449
    5PRO      C   53   1.252   1.932   2.851 -0.2895 -0.6595  0.6013
    5PRO      O   54   1.253   1.916   2.729  0.4181  0.1013  0.1785
    6GLY      N   55   1.139   1.947   2.925  0.1937 -0.3289  0.0848
    6GLY     HN   56   1.131   1.952   3.024  2.3789 -0.2608  0.3066
    6GLY     CA   57   1.012   1.966   2.849 -0.6955 -0.0350 -0.3503
    6GLY    HA1   58   0.927   1.959   2.916  0.0605 -1.3760  0.5192
    6GLY    HA2   59   0.997   1.896   2.769  0.6726  1.0749 -1.6241
    6GLY      C   60   1.006   2.100   2.782 -0.1944 -0.0825  0.0807
    6GLY      O   61   1.110   2.165   2.764  0.1764  0.0332  0.7365
    7ASP      N   62   0.892   2.151   2.741 -0.0937 -0.7118 -0.2150
    7ASP     HN   63   0.806   2.101   2.746 -2.0169  2.1987 -1.2032
    7ASP     CA   64   0.873   2.286   2.694  0.7820 -0.0425 -0.2261
    7ASP     HA   65   0.917   2.289   2.595 -3.2575  2.0598 -2.1951
    7ASP     CB   66   0.717   2.313   2.682 -0.1181  0.4137 -0.0113
    7ASP    HB1   67   0.705   2.417   2.644 -1.7396  0.4382  0.4985
    7ASP    HB2   68   0.664   2.306   2.779  0.9389 -0.1809  0.5260
    7ASP     CG   69   0.646   2.220   2.585 -0.2100  0.9848 -0.4355
    7ASP    OD1   70   0.520   2.218   2.581  0.8318 -0.1084 -0.0138
    7ASP    OD2   71   0.713   2.146   2.509  0.3828 -0.6094  0.4148
    7ASP      C   72   0.923   2.396   2.786 -0.0325  0.0234  0.1617
    7ASP      O   73   0.923   2.387   2.911  0.4371 -0.6354  0.2629
    8PRO      N   74   0.974   2.511   2.730  1.0462  0.0054  0.0976
    8PRO     CD   75   0.979   2.530   2.586  0.2431 -0.2777  0.0021
    8PRO    HD1   76   0.877   2.542   2.544 -0.1184  1.6688  1.2719
    8PRO    HD2   77   1.028   2.446   2.533 -2.1439 -1.3759 -0.5856
    8PRO     CA   78   1.027   2.624   2.805 -0.9781 -0.0568  0.5986
    8PRO     HA   79   1.126   2.597   2.839  0.6244  3.0008 -1.1982
    8PRO     CB   80   1.033   2.738   2.701  0.3779  0.5432 -0.4530
    8PRO    HB1   81   1.109   2.816   2.721  3.0030 -2.1645  0.9747
    8PRO    HB2   82   0.932   2.784   2.694  0.6367  1.4051  1.0070
    8PRO     CG   83   1.067   2.661   2.571  0.0284 -0.0707 -0.8333
    8PRO    HG1   84   1.039   2.710   2.476  2.2264 -0.0315 -1.5063
    8PRO    HG2   85   1.170   2.619   2.570 -0.6179 -1.9231  0.9112
    8PRO      C   86   0.958   2.662   2.934 -0.0891 -0.9876 -0.4393
    8PRO      O   87   0.837   2.690   2.936 -0.0697 -0.0045  0.4663
    9GLY      N   88   1.035   2.670   3.048  0.3536 -0.4526  0.9938
    9GLY     HN   89   1.127   2.632   3.042  0.7169  0.6175 -1.8339
    9GLY     CA   90   0.990   2.734   3.181  0.1362 -0.0519  1.6650
    9GLY    HA1   91   0.913   2.807   3.157  2.4463  1.3846 -2.3068
    9GLY    HA2   92   1.071   2.786   3.231  0.1450  0.3483  1.2406
    9GLY      C   93   0.926   2.639   3.272 -0.5389  0.8478 -0.3373
    9GLY      O   94   0.952   2.520   3.258  0.4941  0.8910 -0.4788
   10ASP      N   95   0.845   2.686   3.370  1.2312  0.1380 -0.0619
   10ASP     HN   96   0.822   2.783   3.379 -0.1173 -0.2661  1.3317
   10ASP     CA   97   0.771   2.605   3.465  0.0840 -0.7082 -0.1566
   10ASP     HA   98   0.717   2.526   3.415  0.4820 -0.3755 -1.1280
   10ASP     CB   99   0.864   2.542   3.583 -0.1762 -0.0208 -0.1674
   10ASP    HB1  100   0.946   2.479   3.540  1.3963  1.4594  0.5421
   10ASP    HB2  101   0.803   2.479   3.651  1.4796 -0.2231  1.1996
   10ASP     CG  102   0.934   2.647   3.666 -0.5809 -0.1039  0.2973
   10ASP    OD1  103   1.017   2.605   3.749  0.0720 -0.3702 -0.3750
   10ASP    OD2  104   0.911   2.773   3.656 -0.1195  0.1984 -0.0404
   10ASP      C  105   0.652   2.684   3.523  0.2709  0.5430  0.6465
   10ASP      O  106   0.642   2.807   3.514 -0.6004  0.5328 -0.6450
   11GLY      N  107   0.543   2.617   3.580 -0.3388  0.3545  0.5418
   11GLY     HN  108   0.547   2.518   3.595  0.1580  0.4570  1.1378
   11GLY     CA  109   0.413   2.667   3.621  0.1962 -0.2192 -0.4372
   11GLY    HA1  110   0.394   2.746   3.550 -0.2399 -0.0322 -0.1231
   11GLY    HA2  111   0.415   2.699   3.725 -0.3026 -1.7182  0.0636
   11GLY      C  112   0.302   2.561   3.604  0.0621 -0.4441  0.0265
   11GLY    OT1  113   0.288   2.498   3.495  0.0197  0.1739 -0.0987
   11GLY    OT2  114   0.222   2.533   3.695 -0.3447 -0.0372 -0.6927
   12LIT    LIT  115   1.991   4.502   4.933  0.3958 -0.4125  0.3027
   13LIT    LIT  116   4.878   1.825   3.577 -0.2238  0.7068 -0.9701
   14LIT    LIT  117   1.772   0.273   4.321  0.0232  0.5244  0.4766
   15LIT    LIT  118   0.116   0.981   3.003  0.1309  0.7285 -0.1941
   16LIT    LIT  119   0.244   2.354   3.617 -0.0550  0.1252  1.0110
   17LIT    LIT  120   5.060   5.293   1.827  0.1185  0.8877  0.1405
   18LIT    LIT  121   1.992   3.784   3.222 -0.3858  0.5823 -0.9482
   19LIT    LIT  122   1.614   3.166   3.832 -1.2536 -0.4055 -0.3591
   20LIT    LIT  123   6.370   3.280   2.217 -0.5481 -0.4446  0.7566
   21LIT    LIT  124   0.356   4.298   2.969 -0.9547 -1.5009  0.7588
   22LIT    LIT  125   3.741   6.687   5.123 -0.1979 -0.9396 -0.5869
   23LIT    LIT  126   2.159   3.705   5.832  0.2711 -0.3334  0.4602
   24LIT    LIT  127   5.572   4.632   4.973 -0.8618  0.3222 -0.1673
   25LIT    LIT  128   0.408   2.328   2.481  0.5602  0.6446  1.2353
   26LIT    LIT  129   0.991   2.941   3.631  0.4921  0.1559  0.1531
   27LIT    LIT  130   3.463   0.470   2.150  0.4063 -0.8820 -0.2577
   28LIT    LIT  131   7.025   1.945   0.926 -0.6050 -0.7829 -0.8293
   29LIT    LIT  132   5.967   1.011   4.486  0.5771 -0.3844  0.3407
   30LIT    LIT  133   0.006   3.145   4.587  0.4997 -0.3104  0.5208
   31LIT    LIT  134   3.980   2.397   0.996 -0.1799  0.2308  0.3178
   32LIT    LIT  135   2.388   5.628   3.671  0.4082  0.3844  0.5316
   33LIT    LIT  136   3.153   4.206   0.074 -0.9331 -0.6586  0.5909
   34LIT    LIT  137   0.877   2.729   0.592  0.6075 -0.2214 -0.2081
   35LIT    LIT  138   5.246   1.998   0.157 -0.2379 -0.5941  0.2344
   36LIT    LIT  139   6.736   4.923   5.287  0.4588 -0.3297  0.6125
   37LIT    LIT  140   3.035   2.467   4.056 -0.2326  0.1435  0.5608
   38LIT    LIT  141   0.508   5.981   3.816  0.7349  0.5039 -0.0525
   39LIT    LIT  142   0.486   1.724   2.495 -0.3976 -0.3321 -1.0677
   40LIT    LIT  143   0.410   5.229   1.161  0.5491 -0.4337 -0.7392
   41LIT    LIT  144   1.499   2.309   2.278  0.4774 -0.5020 -0.1061
   42LIT    LIT  145   1.716   0.900   2.397 -0.2608  0.3701 -0.0450
   43CLA    CLA  146   2.975   4.615   1.122 -0.2182  0.1182  0.2881
   44CLA    CLA  147   6.790   0.854   0.798  0.0586  0.2221 -0.0333
   45CLA    CLA  148   1.507   1.638   3.856  0.0437 -0.3737 -0.1595
   46CLA    CLA  149   5.771   4.732   4.954  0.2492  0.1917  0.4110
   47CLA    CLA  150   7.149   1.361   2.648 -0.1347  0.4347  0.2130
   48CLA    CLA  151   6.485   3.547   3.678 -0.1707 -0.1575  0.1614
   49CLA    CLA  152   5.868   4.234   2.074  0.0091 -0.0550 -0.2514
   50CLA    CLA  153   6.003   2.303   1.164 -0.4492  0.3295  0.1761
   51CLA    CLA  154   5.985   2.804   2.329  0.3779  0.3965 -0.3734
   52CLA    CLA  155   1.347   4.247   4.152  0.8575 -0.6497 -0.0524
   53CLA    CLA  156   2.245   6.721   1.219 -0.3335  0.0391  0.2041
   54CLA    CLA  157   4.116   0.702   5.195  0.1570  0.4053 -0.0079
   55CLA    CLA  158   1.649   0.436   4.875  0.0411  0.1505  0.4582
   56CLA    CLA  159   2.136   2.591   5.051 -0.1234  0.3794 -0.2934
   57CLA    CLA  160   6.709   2.605   5.280 -0.1244  0.1904 -0.1750
   58CLA    CLA  161   1.718   5.044   0.041  0.4217 -0.1403 -0.1061
   59CLA    CLA  162   3.852   3.477   1.834 -0.0523  0.0257  0.0790
   60CLA    CLA  163   0.623   5.847   5.057  0.0994  0.0324 -0.4191
   61CLA    CLA  164   6.470   4.517   3.531 -0.0319 -0.2260 -0.3126
   62CLA    CLA  165   5.085   5.067   1.833 -0.3217  0.0826  0.3968
   63CLA    CLA  166   0.202   3.422   0.745 -0.1254  0.0124 -0.2597
   64CLA    CLA  167   2.475   3.108   3.893 -0.1013 -0.1145 -0.0195
   65CLA    CLA  168   4.122   2.290   1.742 -0.1418 -0.2061  0.1283
   66CLA    CLA  169   0.711   5.187   4.003 -0.2192  0.0063 -0.0834
   67CLA    CLA  170   6.027   1.750   2.687 -0.1143 -0.1106  0.2216
   68CLA    CLA  171   4.374   1.753   4.330  0.6280  0.2173  0.1076
   69CLA    CLA  172   1.595   3.369   4.231  0.0393 -0.3375  0.1391
   70TIP3   OH2  173   6.173   6.571   3.167 -0.6390  0.1260 -0.0520
   70TIP3    H1  174   6.110   6.588   3.237 -0.2992 -1.2648  0.6155
   70TIP3    H2  175   6.258   6.584   3.208 -0.4462  0.8295 -0.6440
   71TIP3   OH2  176   4.352   5.902   0.825 -0.3539  0.1090  0.1420
   71TIP3    H1  177   4.293   5.972   0.853  2.4217  2.0313  1.7090
   71TIP3    H2  178   4.382   5.930   0.739 -0.1619  0.2092  0.2419
   72TIP3   OH2  179   5.477   3.849   3.396 -0.1582 -0.0374  0.7092
   72TIP3    H1  180   5.430   3.852   3.480 -1.6878 -0.4311 -0.0941
   72TIP3    H2  181   5.441   3.773   3.351  0.0085  0.6674 -0.6628
   73TIP3   OH2  182   3.373   1.870   0.757  0.6814  0.7946  0.0551
   73TIP3    H1  183   3.350   1.917   0.677 -1.7945 -0.4837 -0.0560
   73TIP3    H2  184   3.396   1.782   0.727 -1.7472 -0.1640  0.7788
   74TIP3   OH2  185   2.549   1.978   1.259  0.9151  0.5049 -0.0584
   74TIP3    H1  186   2.610   2.030   1.206  0.0573  1.0548 -0.5257
   74TIP3    H2  187   2.599   1.955   1.337  1.8877  0.5146 -0.6622
   75TIP3   OH2  188   6.664   5.360   2.171  0.0174 -0.2605 -0.4616
   75TIP3    H1  189   6.678   5.283   2.226 -0.0555 -0.2926 -0.4882
   75TIP3    H2  190   6.655   5.325   2.082  2.6677 -0.0455 -0.9011
   76TIP3   OH2  191   6.480   5.348   5.722  0.1154 -0.2072 -0.2469
   76TIP3    H1  192   6.483   5.288   5.797 -0.7298 -0.0337 -0.0750
   76TIP3    H2  193   6.399   5.397   5.733  0.7492  0.9105 -0.4412
   77TIP3   OH2  194   1.197   3.982   2.274 -0.3268  0.1038  0.0505
   77TIP3    H1  195   1.140   3.916   2.312  0.6094 -0.1603  1.0538
   77TIP3    H2  196   1.144   4.024   2.207 -0.6920 -2.2393 -1.2421
   78TIP3   OH2  197   2.705   6.685   2.101 -0.2494 -0.9062 -0.4528
   78TIP3    H1  198   2.660   6.602   2.113 -2.2338  0.1334 -0.3560
   78TIP3    H2  199   2.639   6.752   2.119  1.3666  0.7123 -0.2097
   79TIP3   OH2  200   0.028   5.427   4.775  0.5568  0.2297 -0.5834
   79TIP3    H1  201   0.061   5.347   4.816  2.4213  1.5955  0.7351
   79TIP3    H2  202  -0.048   5.452   4.828  1.5119  0.6885  0.5925
   80TIP3   OH2  203   0.608   2.186   1.834 -0.5605  0.2407 -0.2082
   80TIP3    H1  204   0.658   2.105   1.828 -1.2338 -0.2088  0.1686
   80TIP3    H2  205   0.584   2.207   1.744  0.1064  0.3357 -0.3649
   81TIP3   OH2  206   5.511   2.108   3.817 -0.0936  0.2490  0.2246
   81TIP3    H1  207   5.527   2.173   3.749  0.6509 -0.6121 -0.4374
   81TIP3    H2  208   5.552   2.145   3.895 -1.2705  1.4154  0.3383
   82TIP3   OH2  209   2.595   5.371   5.794 -0.3994  0.3298 -0.0620
   82TIP3    H1  210   2.654   5.441   5.766  0.4758 -0.0493  0.7640
   82TIP3    H2  211   2.507   5.409   5.787 -0.0316  1.0671 -0.8484
   83TIP3   OH2  212   5.112   0.113   5.694  0.0589  0.1526 -0.3096
   83TIP3    H1  213   5.097   0.086   5.785  0.4666  1.4812  0.1833
   83TIP3    H2  214   5.052   0.186   5.681 -1.5231 -1.3488 -1.8219
   84TIP3   OH2  215   0.778   0.193   2.175 -0.6117  0.4569  0.1860
   84TIP3    H1  216   0.853   0.181   2.234 -1.4514  0.2226  1.2525
   84TIP3    H2  217   0.797   0.137   2.100 -0.3502 -0.7032  1.0752
   85TIP3   OH2  218   6.947   2.444   2.825 -0.2681  0.2689  0.1634
   85TIP3    H1  219   6.961   2.493   2.906  1.1774 -0.7820  0.5909
   85TIP3    H2  220   7.023   2.464   2.771 -0.4668 -0.2477 -0.3209
   86TIP3   OH2  221   3.316   5.267   2.780  0.1237  0.2640 -0.1974
   86TIP3    H1  222   3.331   5.361   2.774  0.7841  0.2174  0.5982
   86TIP3    H2  223   3.246   5.258   2.845 -1.0813  0.2826 -1.4488
   87TIP3   OH2  224   5.056   6.014   5.229  0.0054  0.1218  0.2861
   87TIP3    H1  225   4.970   5.976   5.212 -0.1383  0.4911  0.1760
   87TIP3    H2  226   5.058   6.026   5.324 -0.2479  0.5365  0.2421
   88TIP3   OH2  227   2.393   2.596   0.422  0.5695 -0.2589  0.1252
   88TIP3    H1  228   2.365   2.553   0.503  1.9867 -1.4235  0.0317
   88TIP3    H2  229   2.357   2.685   0.428 -1.6108 -1.1307  0.7716
   89TIP3   OH2  230   1.061   5.639   4.489 -0.1329  0.3003  0.0100
   89TIP3    H1  231   1.126   5.570   4.500 -0.6970 -0.1927  0.2704
   89TIP3    H2  232   1.030   5.658   4.577 -0.3089  0.5685 -0.1071
   90TIP3   OH2  233   5.267   6.491   4.352  0.0227 -0.2848  0.8398
   90TIP3    H1  234   5.353   6.486   4.310 -0.1662 -0.1276  0.4262
   90TIP3    H2  235   5.206   6.508   4.280 -0.1382  1.4456  1.3504
   91TIP3   OH2  236   6.553   3.707   4.936 -0.4034  0.6678  0.7256
   91TIP3    H1  237   6.530   3.667   4.853  0.8510  3.1164 -0.9392
   91TIP3    H2  238   6.470   3.719   4.981 -1.1039 -0.7604 -0.1180
   92TIP3   OH2  239   7.063   4.727   0.368  0.3567  0.0209  0.4035
   92TIP3    H1  240   7.103   4.673   0.437  1.8356  1.5356  0.7966
   92TIP3    H2  241   7.030   4.804   0.415 -0.5957  0.0630 -0.3156
   93TIP3   OH2  242   0.057   5.387   1.584 -0.5865  0.5113  0.0278
   93TIP3    H1  243  -0.008   5.416   1.649 -0.5418  0.9206 -0.1047
   93TIP3    H2  244   0.038   5.440   1.506 -1.8637 -1.3019 -0.9485
   94TIP3   OH2  245   0.469   5.977   1.904 -0.0073 -0.6031  0.4956
   94TIP3    H1  246   0.495   6.027   1.826 -0.3355 -1.2888 -0.0715
   94TIP3    H2  247   0.534   5.999   1.970  1.0096 -0.9443 -0.3576
   95TIP3   OH2  248   0.930   2.215   5.590 -0.0938 -0.5880 -0.2470
   95TIP3    H1  249   0.885   2.297   5.611  0.9466  0.0968 -0.5581
   95TIP3    H2  250   0.896   2.152   5.653 -1.4152 -0.0934 -0.4300
   96TIP3   OH2  251   6.470   3.000   3.710 -0.3896  0.4122  0.3038
   96TIP3    H1  252   6.552   2.952   3.715  0.2170  1.2859 -0.7614
   96TIP3    H2  253   6.403   2.932   3.704  0.1334 -0.3256  2.2546
   97TIP3   OH2  254   2.901   2.950   2.872  0.1288  0.2777  0.1225
   97TIP3    H1  255   2.821   2.930   2.825 -1.0877  1.7147  1.4545
   97TIP3    H2  256   2.971   2.927   2.811 -1.2048 -2.3936 -0.5389
   98TIP3   OH2  257   1.166   3.255   0.155  0.5100 -0.1654  0.2386
   98TIP3    H1  258   1.208   3.298   0.230 -0.8665 -0.7529  1.3841
   98TIP3    H2  259   1.080   3.296   0.149  0.2291 -0.8340 -0.3844
   99TIP3   OH2  260   5.668   6.455   0.605  0.4244  0.2538 -1.0824
   99TIP3    H1  261   5.679   6.399   0.682  0.5262  0.9472 -0.5762
   99TIP3    H2  262   5.611   6.526   0.635  0.9927  0.8783 -1.4531
  100TIP3   OH2  263   5.511   6.514   5.035 -0.1089  0.2624  0.1601
  100TIP3    H1  264   5.523   6.420   5.048  0.3801  0.5331  1.9040
  100TIP3    H2  265   5.430   6.521   4.983 -1.5642 -1.0558  2.1087
  101TIP3   OH2  266   5.160   1.977   5.134 -0.0320 -0.2393 -0.0553
  101TIP3    H1  267   5.202   2.020   5.059 -2.0707  2.2774  0.1181
  101TIP3    H2  268   5.068   1.971   5.109 -0.7305  0.4466  2.1309
  102TIP3   OH2  269   4.939   1.583   5.543  0.1216 -0.5506 -0.1544
  102TIP3    H1  270   4.929   1.675   5.518  0.8143 -0.7745 -1.3425
  102TIP3    H2  271   4.850   1.548   5.542 -0.4496  0.5709  2.4205
  103TIP3   OH2  272   0.129   1.014   2.694 -0.3363 -1.1371 -0.2650
  103TIP3    H1  273   0.218   0.982   2.682 -0.2690 -1.7475  1.6027
  103TIP3    H2  274   0.080   0.977   2.620  0.7122 -1.7406 -0.6768
  104TIP3   OH2  275   2.084   6.132   5.685 -0.1589  0.4056  0.4980
  104TIP3    H1  276   2.144   6.100   5.617  0.0466  0.9263  0.4286
  104TIP3    H2  277   2.069   6.224   5.662 -2.3453 -0.1265 -0.4755
  105TIP3   OH2  278   7.066   6.434   1.202 -0.5524 -0.1539 -0.5106
  105TIP3    H1  279   6.997   6.414   1.266 -0.0040  0.2898  0.2421
  105TIP3    H2  280   7.038   6.515   1.160 -0.2278  0.3539  0.2174
  106TIP3   OH2  281   7.075   1.184   1.752  0.3587  0.2364  0.2158
  106TIP3    H1  282   7.035   1.243   1.688 -0.4404 -0.5344 -0.0235
  106TIP3    H2  283   7.160   1.161   1.714 -1.4782 -3.0484 -2.4946
  107TIP3   OH2  284   3.581   2.924   4.535 -0.4810  0.5057 -0.3169
  107TIP3    H1  285   3.628   3.006   4.547 -0.5383  0.3951  0.8467
  107TIP3    H2  286   3.571   2.889   4.624  1.6350 -1.9205 -0.9029
  108TIP3   OH2  287   1.360   5.973   2.386 -0.2634  0.3912  0.0786
  108TIP3    H1  288   1.436   6.019   2.420 -1.3856  1.8493  0.7080
  108TIP3    H2  289   1.355   5.892   2.438  1.4031 -0.2235 -0.6653
  109TIP3   OH2  290   6.558   6.088   3.295  0.5038 -0.2289 -0.8727
  109TIP3    H1  291   6.554   6.045   3.210  2.2623 -0.3332 -0.9464
  109TIP3    H2  292   6.481   6.056   3.342 -0.6896  0.0885 -2.5041
  110TIP3   OH2  293   2.410   0.485   2.583 -0.3631  0.3432  0.3347
  110TIP3    H1  294   2.425   0.496   2.490  0.4877 -0.3320  0.3691
  110TIP3    H2  295   2.498   0.469   2.620 -0.8495 -0.9950  0.9967
  111TIP3   OH2  296   1.445   4.770   3.127  0.0662 -0.4991 -0.0768
  111TIP3    H1  297   1.450   4.865   3.110 -3.9091  0.5859  3.2524
  111TIP3    H2  298   1.534   4.747   3.155  0.9678  2.4286 -0.1463
  112TIP3   OH2  299   6.448   0.242   1.780  0.5650  0.0779 -0.2454
  112TIP3    H1  300   6.412   0.212   1.864 -0.8563 -0.3340 -0.9654
  112TIP3    H2  301   6.403   0.325   1.764 -1.2517 -1.1080 -1.8272
  113TIP3   OH2  302   3.543   0.450   4.564  0.4847  0.1832  0.1989
  113TIP3    H1  303   3.564   0.535   4.524  0.4774  0.2976  0.4374
  113TIP3    H2  304   3.624   0.424   4.609  0.8048 -0.4029 -0.6941
  114TIP3   OH2  305   6.885   4.918   3.883 -0.6648 -0.1650  0.2634
  114TIP3    H1  306   6.829   4.939   3.809 -0.7479 -0.3177  0.2834
  114TIP3    H2  307   6.825   4.904   3.956 -0.5988 -0.2735  0.2980
  115TIP3   OH2  308   4.748   3.895   4.276 -0.1650 -0.0262 -0.2841
  115TIP3    H1  309   4.713   3.906   4.364  0.0506  0.7724 -0.2882
  115TIP3    H2  310   4.702   3.818   4.241 -0.0808 -0.4876  0.5966
  116TIP3   OH2  311   5.608   0.686   3.606  0.0037 -0.2228 -0.2871
  116TIP3    H1  312   5.700   0.672   3.581  0.3210  2.3125 -0.8512
  116TIP3    H2  313   5.558   0.640   3.539  0.8953 -0.1676 -1.0115
  117TIP3   OH2  314   4.405   4.838   1.596  0.0925  0.3491 -0.4203
  117TIP3    H1  315   4.483   4.783   1.589 -0.8839 -1.3123  0.7935
  117TIP3    H2  316   4.377   4.852   1.506  1.1227 -0.0096 -0.8134
  118TIP3   OH2  317   4.595   6.114   0.323  0.5273 -0.2492 -0.0335
  118TIP3    H1  318   4.662   6.108   0.391  0.1674 -0.7362  0.2840
  118TIP3    H2  319   4.627   6.183   0.264  1.4231 -0.6343 -0.0228
  119TIP3   OH2  320   1.137   0.315   2.875 -0.3865 -0.0321  0.3981
  119TIP3    H1  321   1.228   0.330   2.847 -0.3903 -2.4774 -1.2443
  119TIP3    H2  322   1.145   0.265   2.956 -0.1054 -2.1940 -0.8604
  120TIP3   OH2  323   2.999   4.487   0.356 -0.6899 -0.3272 -0.1583
  120TIP3    H1  324   2.994   4.498   0.451 -2.7704  0.1219 -0.2608
  120TIP3    H2  325   2.973   4.573   0.322  2.1346  0.2301 -1.2119
  121TIP3   OH2  326   4.236   6.139   3.334  0.0074 -0.0353  0.4711
  121TIP3    H1  327   4.261   6.154   3.243  0.7947  0.1229  0.7014
  121TIP3    H2  328   4.144   6.162   3.338  0.1101  0.5210 -0.1613
  122TIP3   OH2  329   1.107   3.022   5.677  0.0648  0.2760 -0.0567
  122TIP3    H1  330   1.162   3.101   5.667 -1.3003  1.0949 -1.4555
  122TIP3    H2  331   1.080   3.025   5.769 -2.1319  3.0193 -0.6451
  123TIP3   OH2  332   6.009   3.837   3.666  0.3014  0.2542  0.4100
  123TIP3    H1  333   6.096   3.827   3.626  0.5630  0.1839  0.9731
  123TIP3    H2  334   6.014   3.782   3.745  0.2131  1.3083  1.1666
  124TIP3   OH2  335   7.146   3.992   0.523  0.0319  0.1280 -0.0604
  124TIP3    H1  336   7.206   4.057   0.559 -0.2404  0.3874 -0.0686
  124TIP3    H2  337   7.114   4.031   0.441 -1.0876  0.5496  0.5462
  125TIP3   OH2  338   5.654   2.992   4.668  0.0781  0.0076  0.2096
  125TIP3    H1  339   5.661   3.027   4.756  0.4564  0.2452  0.0887
  125TIP3    H2  340   5.617   2.904   4.679 -2.2682  0.9561  0.4048
  126TIP3   OH2  341   6.210   0.672   0.603 -0.1800  0.3433 -0.2843
  126TIP3    H1  342   6.187   0.762   0.627  1.2272  0.2914  1.4379
  126TIP3    H2  343   6.268   0.682   0.526 -2.9588  0.6294 -2.5003
  127TIP3   OH2  344   4.185   6.041   5.113 -0.2546  0.5709  0.1852
  127TIP3    H1  345   4.205   5.950   5.133  2.0498  1.2274  1.1308
  127TIP3    H2  346   4.264   6.074   5.070 -2.2912  1.2476 -3.5135
  128TIP3   OH2  347   3.644   0.404   2.196  0.0931  0.9581  0.1722
  128TIP3    H1  348   3.720   0.462   2.198  1.3669 -0.6707  0.5052
  128TIP3    H2  349   3.680   0.316   2.193 -1.7250  0.0007  2.7402
  129TIP3   OH2  350   3.642   4.465   0.232 -0.1098  0.1290  0.1593
  129TIP3    H1  351   3.622   4.538   0.290  0.8550 -1.1309  2.1625
  129TIP3    H2  352   3.566   4.407   0.239  0.2486 -0.2879  0.5957
  130TIP3   OH2  353   6.320   1.311   0.591  0.4378  0.0087 -0.0472
  130TIP3    H1  354   6.357   1.399   0.601  1.6835 -0.4638 -0.2815
  130TIP3    H2  355   6.241   1.312   0.645  0.3571  1.3081 -0.1518
  131TIP3   OH2  356   5.936   3.653   0.529 -0.0810  0.2735 -0.0768
  131TIP3    H1  357   5.937   3.735   0.480 -0.5669 -0.5707 -1.5891
  131TIP3    H2  358   5.859   3.659   0.585 -0.8943  0.3316 -1.1633
  132TIP3   OH2  359   7.143   1.029   3.601  0.5856  0.1838  0.3609
  132TIP3    H1  360   7.219   1.085   3.586  0.4136  0.1393 -0.7497
  132TIP3    H2  361   7.162   0.949   3.552  0.6566 -0.6140  1.6252
  133TIP3   OH2  362   3.752   1.666   0.456 -0.2681 -0.2878 -0.5649
  133TIP3    H1  363   3.803   1.739   0.490 -0.4056 -0.1078 -0.7466
  133TIP3    H2  364   3.804   1.631   0.384 -0.1017 -0.5029 -0.3404
  134TIP3   OH2  365   6.796   1.127   1.458  0.1746 -0.1288 -0.9193
  134TIP3    H1  366   6.826   1.079   1.381  2.4818  1.1416 -0.8850
  134TIP3    H2  367   6.816   1.219   1.439  0.2839  0.2751  0.9440
  135TIP3   OH2  368   6.474   3.846   5.547 -0.1248 -0.5618 -0.3640
  135TIP3    H1  369   6.481   3.819   5.455  1.7916 -1.5402  0.0197
  135TIP3    H2  370   6.527   3.925   5.554  2.0924 -2.0383  0.4176
  136TIP3   OH2  371   6.808   0.135   1.664  0.5122  0.4489 -0.2915
  136TIP3    H1  372   6.750   0.198   1.621  0.5257  0.0482 -0.9006
  136TIP3    H2  373   6.749   0.081   1.717  0.4026  0.4333 -0.4298
  137TIP3   OH2  374   1.748   0.527   5.306  0.4894 -0.7323  1.1527
  137TIP3    H1  375   1.820   0.547   5.366  1.3369  1.6118 -0.4835
  137TIP3    H2  376   1.765   0.438   5.276  2.0402 -0.6538  1.7122
  138TIP3   OH2  377   6.531   2.825   0.597 -0.6752  0.1631  0.2105
  138TIP3    H1  378   6.447   2.826   0.551  0.5647 -0.0365 -2.2864
  138TIP3    H2  379   6.577   2.902   0.562  0.3240  0.0381  1.2062
  139TIP3   OH2  380   6.830   1.893   5.479  0.4758 -0.2838  0.0856
  139TIP3    H1  381   6.826   1.883   5.384  0.5092  1.1023 -0.0700
  139TIP3    H2  382   6.758   1.838   5.511 -2.1855  2.3186 -0.9956
  140TIP3   OH2  383   1.868   2.189   1.522  0.6794 -0.1783  0.0029
  140TIP3    H1  384   1.807   2.242   1.573  0.4579  1.3305 -1.7320
  140TIP3    H2  385   1.932   2.157   1.586 -2.2114 -2.4408  2.0377
  141TIP3   OH2  386   5.891   0.383   4.771 -0.6962 -0.4471  0.1772
  141TIP3    H1  387   5.819   0.444   4.790 -0.6091 -0.0291 -0.8033
  141TIP3    H2  388   5.931   0.416   4.691  0.9047 -0.4086  0.9669
  142TIP3   OH2  389   5.540   5.746   4.917 -0.7838 -0.2005  0.3961
  142TIP3    H1  390   5.583   5.690   4.852  1.8424  0.0519  1.7919
  142TIP3    H2  391   5.548   5.697   4.999 -0.9131  1.0011  1.1354
  143TIP3   OH2  392   3.169   6.600   3.057  0.1653 -0.3010 -0.1044
  143TIP3    H1  393   3.250   6.552   3.038 -0.0583 -0.4801 -0.6393
  143TIP3    H2  394   3.104   6.531   3.071  0.5853 -0.2487  2.7809
  144TIP3   OH2  395   5.220   5.198   0.717  0.3985  0.0698  0.8850
  144TIP3    H1  396   5.148   5.261   0.722  0.1849 -0.2215  1.9057
  144TIP3    H2  397   5.257   5.209   0.630 -0.3726  0.7932  0.6399
  145TIP3   OH2  398   1.015   4.869   3.518  0.4071  0.3787  0.0449
  145TIP3    H1  399   0.928   4.871   3.556  0.1186 -0.4768 -0.5317
  145TIP3    H2  400   1.063   4.937   3.564 -0.4993  0.7113  0.5235
  146TIP3   OH2  401   5.631   2.921   2.040  0.3612  0.3872 -0.4563
  146TIP3    H1  402   5.724   2.900   2.039 -0.0116 -1.3974 -1.3202
  146TIP3    H2  403   5.628   3.017   2.051  2.3026  0.6539 -1.7733
  147TIP3   OH2  404   4.138   5.382   1.101  0.0127  0.1884 -0.2601
  147TIP3    H1  405   4.092   5.303   1.128 -0.6653  1.4499  2.6698
  147TIP3    H2  406   4.224   5.376   1.143 -0.3027  1.2783  0.5989
  148TIP3   OH2  407   4.158   4.717   3.231 -0.2714  0.0901  0.4895
  148TIP3    H1  408   4.231   4.713   3.293  0.6907  1.3535 -0.4906
  148TIP3    H2  409   4.081   4.734   3.285  0.0846 -1.5052  1.5728
  149TIP3   OH2  410   1.443   0.803   0.621 -0.7191  0.0072 -0.4875
  149TIP3    H1  411   1.453   0.898   0.627 -1.4942  0.0374  0.5898
  149TIP3    H2  412   1.494   0.769   0.695 -1.1157 -0.3725 -0.3871
  150TIP3   OH2  413   3.382   1.644   3.833 -0.0624 -0.0693 -0.0599
  150TIP3    H1  414   3.416   1.555   3.823  0.2100 -0.1118  1.0522
  150TIP3    H2  415   3.429   1.695   3.767  0.7275 -0.5108  0.1470
  151TIP3   OH2  416   5.864   3.927   1.195  0.6817  0.3635  0.5792
  151TIP3    H1  417   5.782   3.880   1.180  1.3262 -1.5469  2.4616
  151TIP3    H2  418   5.875   3.982   1.118 -1.8380 -0.0689 -0.1941
  152TIP3   OH2  419   6.952   0.723   4.510  0.1434 -0.1375 -0.0588
  152TIP3    H1  420   6.977   0.751   4.422  0.9416 -0.8437 -0.0791
  152TIP3    H2  421   6.944   0.628   4.503 -0.9675 -0.0883  0.3579
  153TIP3   OH2  422   3.856   4.021   5.466 -0.1160 -0.7066 -0.7484
  153TIP3    H1  423   3.940   3.985   5.437 -0.0524  0.4356 -2.0994
  153TIP3    H2  424   3.802   3.944   5.484  1.1599 -1.4550  0.0097
  154TIP3   OH2  425   1.737   1.051   5.478  0.2193  0.1857 -0.5237
  154TIP3    H1  426   1.782   0.973   5.509  0.0541 -0.3066 -1.4882
  154TIP3    H2  427   1.699   1.025   5.394 -1.4595  0.7183  0.0282
  155TIP3   OH2  428   1.152   5.779   0.372  0.0948  0.2448  0.7475
  155TIP3    H1  429   1.214   5.849   0.354  1.9959 -1.1269  1.6479
  155TIP3    H2  430   1.153   5.724   0.294  0.0285  0.2007  0.7770
  156TIP3   OH2  431   3.117   3.011   0.754 -0.0150  0.4878  0.1064
  156TIP3    H1  432   3.039   2.957   0.766  0.4011 -0.7301 -2.1643
  156TIP3    H2  433   3.183   2.969   0.809 -0.5590  0.7015  0.9509
  157TIP3   OH2  434   0.979   1.137   0.945 -0.2833  0.1719 -0.5745
  157TIP3    H1  435   1.074   1.152   0.953  0.2587 -0.9073 -3.7255
  157TIP3    H2  436   0.969   1.042   0.949 -0.9545  0.1494 -2.1103
  158TIP3   OH2  437   2.903   1.038   3.865 -0.3563  0.0932  0.0271
  158TIP3    H1  438   2.898   1.031   3.960 -0.5198 -1.7203 -0.0751
  158TIP3    H2  439   2.993   1.013   3.844 -1.0601 -2.3507 -0.4248
  159TIP3   OH2  440   4.206   4.544   2.745  0.3595  0.1051  0.0292
  159TIP3    H1  441   4.259   4.488   2.803  1.0227  0.8520  0.1681
  159TIP3    H2  442   4.165   4.483   2.684  2.1139 -0.4465 -0.6628
  160TIP3   OH2  443   5.111   6.799   5.663  0.4151  0.2173  0.1900
  160TIP3    H1  444   5.205   6.781   5.663  0.6630  1.4138  0.4139
  160TIP3    H2  445   5.077   6.747   5.590  1.4443  0.6669 -0.6420
  161TIP3   OH2  446   3.653   4.941   4.176 -0.0424  0.5497  0.1590
  161TIP3    H1  447   3.610   4.866   4.135  2.3636 -0.7712 -0.1153
  161TIP3    H2  448   3.729   4.959   4.120  1.0561  1.3077  1.8104
  162TIP3   OH2  449   6.339   4.691   1.313  0.5167  0.1989  0.1917
  162TIP3    H1  450   6.404   4.761   1.301  0.6960  0.5819  2.8447
  162TIP3    H2  451   6.387   4.611   1.290  0.7316  0.7530 -1.5093
  163TIP3   OH2  452   1.389   6.398   2.743 -0.2675  0.5684 -0.0135
  163TIP3    H1  453   1.409   6.422   2.652  0.9515 -3.7916 -1.1076
  163TIP3    H2  454   1.464   6.432   2.793  0.4357  0.6545 -1.0813
  164TIP3   OH2  455   6.290   6.585   4.901  0.6064  0.6138 -0.2161
  164TIP3    H1  456   6.373   6.581   4.950  0.8048  0.6979 -0.5378
  164TIP3    H2  457   6.228   6.538   4.956  1.1994 -0.6772 -0.5986
  165TIP3   OH2  458   0.898   0.986   4.500  0.5812  0.1897 -0.4049
  165TIP3    H1  459   0.834   1.055   4.517  1.5823  1.3949 -1.3976
  165TIP3    H2  460   0.982   1.025   4.521  0.9638 -1.9432  2.6620
  166TIP3   OH2  461   0.931   0.986   5.322 -0.5833  0.4798  0.4762
  166TIP3    H1  462   0.890   1.072   5.326 -2.0672 -0.1953  0.3731
  166TIP3    H2  463   0.875   0.930   5.377  0.3003 -0.4402  0.4681
  167TIP3   OH2  464   5.284   3.010   3.001  0.4347  0.2102  0.3981
  167TIP3    H1  465   5.255   2.943   3.062 -0.8698  1.0184  0.7096
  167TIP3    H2  466   5.325   2.961   2.929  0.3792 -0.8492  1.0731
  168TIP3   OH2  467   5.367   5.143   2.738  0.0072  0.2552 -0.1907
  168TIP3    H1  468   5.328   5.059   2.713  1.1088 -0.5942  0.8242
  168TIP3    H2  469   5.384   5.135   2.832  0.9883  1.2632 -0.2577
  169TIP3   OH2  470   2.113   6.248   2.010  0.8491 -0.5746  0.3332
  169TIP3    H1  471   2.050   6.204   1.953 -0.2836  1.0570  0.2576
  169TIP3    H2  472   2.152   6.316   1.955 -0.4205  1.1776  1.4594
  170TIP3   OH2  473   3.968   2.649   0.686 -0.1631 -0.2885 -0.5229
  170TIP3    H1  474   4.062   2.664   0.701 -0.3771 -0.4636  1.1776
  170TIP3    H2  475   3.937   2.731   0.648  0.2828  0.5930  0.9353
  171TIP3   OH2  476   4.318   1.768   1.602 -0.0792 -0.0046  0.4283
  171TIP3    H1  477   4.372   1.694   1.573  1.1394  1.1692 -0.4031
  171TIP3    H2  478   4.379   1.827   1.645 -1.5366 -0.8572  4.0048
  172TIP3   OH2  479   5.683   3.717   2.659  0.5038  0.1889  0.4605
  172TIP3    H1  480   5.622   3.679   2.722  0.8590  0.2921  0.8686
  172TIP3    H2  481   5.752   3.652   2.650  0.3542  0.0887  0.0262
  173TIP3   OH2  482   4.678   2.809   0.334 -0.2029  0.0977 -0.6270
  173TIP3    H1  483   4.722   2.728   0.308  0.4745 -0.3965  1.7885
  173TIP3    H2  484   4.601   2.780   0.383  0.2062  0.8725  0.5191
  174TIP3   OH2  485   5.956   1.805   0.060  0.0270 -0.3396  0.0750
  174TIP3    H1  486   6.040   1.809   0.015 -0.3326  1.0580 -0.5310
  174TIP3    H2  487   5.959   1.876   0.124 -0.6592 -0.3416  0.1199
  175TIP3   OH2  488   2.154   2.825   1.721 -0.6321  0.3958 -0.6201
  175TIP3    H1  489   2.140   2.868   1.805  1.3397  0.1681 -0.1419
  175TIP3    H2  490   2.136   2.894   1.656 -2.4775  0.4855 -0.0628
  176TIP3   OH2  491   4.037   0.498   2.039  0.1896 -0.8967  0.1496
  176TIP3    H1  492   4.117   0.524   1.994  0.2738 -3.2138 -1.1986
  176TIP3    H2  493   4.048   0.530   2.129  1.9728  0.0602 -0.3634
  177TIP3   OH2  494   5.045   3.649   2.382 -0.2995  0.0364  0.2093
  177TIP3    H1  495   5.090   3.720   2.429  0.3294  0.1296 -0.5234
  177TIP3    H2  496   5.047   3.676   2.290 -1.0799 -0.3863  0.0620
  178TIP3   OH2  497   4.595   4.336   5.829  0.0566 -0.4946 -0.5466
  178TIP3    H1  498   4.641   4.280   5.892  0.0601  0.4977  0.3642
  178TIP3    H2  499   4.658   4.405   5.807 -1.1940  1.4066  1.4159
  179TIP3   OH2  500   6.717   2.192   5.307 -0.5702  0.1851  0.4046
  179TIP3    H1  501   6.706   2.125   5.239 -1.2184  0.4015  0.2887
  179TIP3    H2  502   6.630   2.201   5.346 -0.4093  0.7228  0.6456
  180TIP3   OH2  503   4.868   1.522   4.931 -0.0283  0.5232 -0.3017
  180TIP3    H1  504   4.909   1.582   4.993 -0.0194  1.4572 -1.1848
  180TIP3    H2  505   4.814   1.578   4.875 -0.8910 -0.4281 -0.4713
  181TIP3   OH2  506   4.771   2.575   0.194 -0.1872  0.2554  0.2836
  181TIP3    H1  507   4.776   2.579   0.098  1.8787 -0.4898  0.3127
  181TIP3    H2  508   4.759   2.482   0.212 -0.1089  0.3400  0.7644
  182TIP3   OH2  509   1.375   1.375   1.566  0.4734 -0.2733 -0.1247
  182TIP3    H1  510   1.440   1.339   1.627  0.8615 -0.6293 -0.7374
  182TIP3    H2  511   1.347   1.457   1.607  2.4563  0.6987 -0.5463
  183TIP3   OH2  512   0.232   1.994   2.644 -0.4463 -0.4667 -0.4703
  183TIP3    H1  513   0.166   2.048   2.688 -0.7070 -1.3847  0.2838
  183TIP3    H2  514   0.183   1.917   2.614 -0.0679 -0.3228 -1.5008
  184TIP3   OH2  515   1.874   6.128   4.073  0.6624  0.3302 -0.4619
  184TIP3    H1  516   1.879   6.212   4.119 -1.1047  1.0643 -1.5087
  184TIP3    H2  517   1.943   6.133   4.007 -0.0264  1.3807 -1.1278
  185TIP3   OH2  518   4.777   4.170   1.730  0.0787  0.1928 -0.0516
  185TIP3    H1  519   4.855   4.227   1.727 -2.7253  4.4414 -1.3578
  185TIP3    H2  520   4.780   4.122   1.647  0.3934  1.8777 -1.0819
  186TIP3   OH2  521   0.716   6.355   0.199 -0.1405 -0.1828  0.0539
  186TIP3    H1  522   0.698   6.263   0.181  2.1323 -0.8664  0.9141
  186TIP3    H2  523   0.805   6.370   0.165  0.5165  0.9899  2.0547
  187TIP3   OH2  524   5.842   4.323   5.051 -0.2683 -0.0578 -0.1421
  187TIP3    H1  525   5.920   4.322   5.106  0.1519  0.1392 -0.7184
  187TIP3    H2  526   5.876   4.342   4.963 -1.1835  2.1248 -0.0646
  188TIP3   OH2  527   6.407   3.918   1.356  0.2094 -0.1722  0.0907
  188TIP3    H1  528   6.328   3.967   1.337 -0.3267 -1.2558 -0.5805
  188TIP3    H2  529   6.477   3.966   1.311 -0.3052 -0.0390 -0.5707
  189TIP3   OH2  530   2.292   1.085   4.079 -0.0706 -0.5274  0.0548
  189TIP3    H1  531   2.334   1.142   4.144 -0.5990 -2.2607  2.0155
  189TIP3    H2  532   2.357   1.077   4.009  0.9601  0.5631  0.8363
  190TIP3   OH2  533   4.763   5.794   0.454  0.1436 -0.1558  0.3051
  190TIP3    H1  534   4.775   5.785   0.360  0.4343  0.0025  0.3244
  190TIP3    H2  535   4.668   5.791   0.467 -0.0986  2.3091 -0.2845
  191TIP3   OH2  536   5.328   5.816   3.123 -0.3024 -0.3093 -0.5200
  191TIP3    H1  537   5.406   5.799   3.176 -0.7791 -0.2686  0.1967
  191TIP3    H2  538   5.356   5.798   3.033  0.3097 -1.0643 -0.1862
  192TIP3   OH2  539   7.176   1.718   2.309  0.7092  0.6315  0.5443
  192TIP3    H1  540   7.094   1.675   2.332 -0.4337  2.0477 -0.6592
  192TIP3    H2  541   7.237   1.646   2.292 -1.3592 -0.6399 -2.2994
  193TIP3   OH2  542   5.707   6.458   5.581 -0.2966  0.1847  0.4029
  193TIP3    H1  543   5.700   6.427   5.671 -0.1666  0.0844  0.3780
  193TIP3    H2  544   5.799   6.445   5.558 -0.2034  0.7234  0.4447
  194TIP3   OH2  545   6.451   6.476   0.511 -0.0702 -0.2232  0.3186
  194TIP3    H1  546   6.434   6.489   0.417  0.7685 -0.7725  0.0786
  194TIP3    H2  547   6.401   6.546   0.554  0.2087  0.5567 -0.5884
  195TIP3   OH2  548   6.169   4.027   5.861  0.3090 -0.3094 -0.1118
  195TIP3    H1  549   6.122   4.101   5.900 -1.6460 -0.7414 -1.5253
  195TIP3    H2  550   6.236   4.068   5.805 -0.5586  0.4011 -0.6550
  196TIP3   OH2  551   2.552   0.354   5.570  1.0190  0.5514  0.0128
  196TIP3    H1  552   2.492   0.351   5.496  3.2704 -1.6000 -1.8951
  196TIP3    H2  553   2.495   0.349   5.647 -1.2506 -1.1825 -1.6403
  197TIP3   OH2  554   3.330   6.078   5.334 -0.5404  0.3859 -0.2838
  197TIP3    H1  555   3.391   6.061   5.262  2.0938  0.8669  1.6957
  197TIP3    H2  556   3.289   6.161   5.311  0.1784  0.4836 -1.2842
  198TIP3   OH2  557   5.140   6.015   1.011 -0.4690 -0.4852  0.4278
  198TIP3    H1  558   5.228   5.981   1.029  1.0634  1.3806 -2.6283
  198TIP3    H2  559   5.096   5.943   0.967  0.1123 -0.9050  0.5135
  199TIP3   OH2  560   6.638   1.422   1.211  0.1425 -0.4971 -0.1012
  199TIP3    H1  561   6.711   1.378   1.255  0.6269 -0.6592 -1.0466
  199TIP3    H2  562   6.595   1.471   1.281  0.5252 -1.2323  0.6726
  200TIP3   OH2  563   4.231   6.712   3.736  0.8560  0.5080  0.0965
  200TIP3    H1  564   4.273   6.660   3.667 -0.8345 -0.3954 -0.3037
  200TIP3    H2  565   4.221   6.651   3.810 -1.6364 -0.0163 -0.5649
  201TIP3   OH2  566   3.628   5.625   2.306 -0.2419  0.0124  0.2555
  201TIP3    H1  567   3.707   5.609   2.255 -0.1215  0.9229  0.1499
  201TIP3    H2  568   3.627   5.555   2.372  0.7716  0.1363  0.4090
  202TIP3   OH2  569   5.390   1.011   4.239 -0.5769 -0.0484 -0.2978
  202TIP3    H1  570   5.328   1.043   4.173 -0.4286 -0.9591 -0.9041
  202TIP3    H2  571   5.470   1.061   4.222 -0.8851  0.5238 -0.0704
  203TIP3   OH2  572   3.404   4.257   2.102  0.0010 -0.3955 -0.1232
  203TIP3    H1  573   3.311   4.275   2.114 -0.2376 -1.9129  0.4045
  203TIP3    H2  574   3.417   4.264   2.007 -0.8525 -1.0804 -0.3040
  204TIP3   OH2  575   6.360   1.769   4.160 -0.0333  0.3438 -0.5233
  204TIP3    H1  576   6.455   1.780   4.155  0.0847  0.0043  0.6018
  204TIP3    H2  577   6.327   1.804   4.078  0.9899  1.3322 -0.5389
  205TIP3   OH2  578   0.993   1.693   0.413  0.1959  0.9286  0.2271
  205TIP3    H1  579   0.958   1.781   0.425 -0.5820  0.7363 -0.5005
  205TIP3    H2  580   1.013   1.663   0.502 -1.7248  0.9735  0.7319
  206TIP3   OH2  581   1.594   5.085   5.506 -0.4867 -0.5185  0.9398
  206TIP3    H1  582   1.574   5.166   5.553  0.8829  0.9791 -0.8757
  206TIP3    H2  583   1.509   5.051   5.479 -1.1178  0.0407  2.1365
  207TIP3   OH2  584   0.183   2.949   5.546  0.2884  0.8617  0.2395
  207TIP3    H1  585   0.195   3.043   5.560  2.5431  1.3600 -3.6680
  207TIP3    H2  586   0.104   2.942   5.492 -0.3261  0.3828  1.1743
  208TIP3   OH2  587   1.386   3.467   4.863 -0.0493 -0.3603 -0.1149
  208TIP3    H1  588   1.385   3.380   4.903  0.2155 -0.7113 -0.8446
  208TIP3    H2  589   1.371   3.451   4.770 -0.2682  0.4027 -0.2187
  209TIP3   OH2  590   1.975   2.577   5.685  0.7211 -0.0047  0.3206
  209TIP3    H1  591   2.067   2.570   5.710  0.9439  1.8927  0.1886
  209TIP3    H2  592   1.976   2.581   5.589  0.8176  2.6116  0.3416
  210TIP3   OH2  593   4.169   1.660   0.423  0.3009 -0.0547  0.1702
  210TIP3    H1  594   4.091   1.643   0.476 -1.6205  2.3003 -1.6478
  210TIP3    H2  595   4.167   1.593   0.355  1.4303 -1.5985  1.5660
  211TIP3   OH2  596   5.234   1.529   4.520 -0.3009  0.0014 -0.0913
  211TIP3    H1  597   5.140   1.538   4.532 -0.3839 -1.1105  0.2100
  211TIP3    H2  598   5.263   1.477   4.595  0.6495  0.8085  0.1292
  212TIP3   OH2  599   3.674   5.263   1.314 -0.2930  0.0040  0.2759
  212TIP3    H1  600   3.616   5.189   1.294 -0.3438 -0.1849  1.0618
  212TIP3    H2  601   3.614   5.335   1.332 -0.2775 -0.0503  0.5569
  213TIP3   OH2  602   3.545   5.098   2.489 -0.3013 -0.1593  0.1147
  213TIP3    H1  603   3.599   5.056   2.421  0.5373  0.6852  0.2302
  213TIP3    H2  604   3.554   5.192   2.472 -1.4011  0.0110  0.4127
  214TIP3   OH2  605   0.431   3.038   1.152 -0.4027 -0.2711 -0.0064
  214TIP3    H1  606   0.493   3.092   1.202 -0.9789  0.6773 -0.3003
  214TIP3    H2  607   0.351   3.039   1.205 -0.6390 -0.2552 -0.3647
  215TIP3   OH2  608   5.249   2.690   5.390 -0.1934  0.0215  0.1593
  215TIP3    H1  609   5.269   2.708   5.482  1.7505 -1.3092  0.0532
  215TIP3    H2  610   5.157   2.664   5.391 -0.9477  2.4579  1.3169
  216TIP3   OH2  611   5.746   1.465   2.930 -0.1909  0.7429 -0.6152
  216TIP3    H1  612   5.657   1.460   2.897 -0.1736  2.3418 -0.9554
  216TIP3    H2  613   5.742   1.423   3.016 -0.6519 -1.6845 -1.7317
  217TIP3   OH2  614   6.991   2.903   3.753 -0.0654  0.4101 -0.6829
  217TIP3    H1  615   7.069   2.879   3.803  0.0601 -0.7139 -1.3726
  217TIP3    H2  616   7.019   2.975   3.697  0.2666  0.5338 -0.3532
  218TIP3   OH2  617   6.821   6.047   3.372 -0.4088 -0.2784 -0.0451
  218TIP3    H1  618   6.727   6.053   3.351 -0.6009 -0.2566  0.7779
  218TIP3    H2  619   6.832   6.104   3.448  0.6167  1.0718 -1.1700
  219TIP3   OH2  620   1.758   3.830   0.730  0.0592  0.5840  0.6541
  219TIP3    H1  621   1.709   3.853   0.650 -0.5890  0.0347  0.8835
  219TIP3    H2  622   1.710   3.874   0.800 -0.1420 -0.0047  0.8886
  220TIP3   OH2  623   5.340   0.254   4.733  0.0694 -0.4744 -0.2148
  220TIP3    H1  624   5.271   0.233   4.796  0.9972 -2.1962  0.2806
  220TIP3    H2  625   5.399   0.312   4.780  0.6920 -1.6519  0.4942
  221TIP3   OH2  626   5.090   2.887   2.153 -0.1901  0.7526  0.0175
  221TIP3    H1  627   4.996   2.874   2.144 -0.5211  3.1127 -0.4109
  221TIP3    H2  628   5.099   2.957   2.218  1.3694 -0.5868  1.3571
  222TIP3   OH2  629   3.214   4.584   2.666 -0.5315 -0.8732 -0.2787
  222TIP3    H1  630   3.184   4.587   2.757  1.2392 -1.6446  0.3866
  222TIP3    H2  631   3.271   4.661   2.656 -0.8232 -0.7185 -0.7739
  223TIP3   OH2  632   2.735   0.642   2.376  0.3229 -0.5105  0.1814
  223TIP3    H1  633   2.741   0.708   2.446  0.0984 -0.7689  0.4465
  223TIP3    H2  634   2.718   0.560   2.422 -1.6229 -0.4156 -0.2755
  224TIP3   OH2  635   5.405   3.221   1.031  0.0497  0.2356  0.2587
  224TIP3    H1  636   5.449   3.274   0.965  0.1853  0.3669  0.4542
  224TIP3    H2  637   5.349   3.282   1.079  0.5406  0.2885  0.7746
  225TIP3   OH2  638   5.464   0.855   2.573 -0.7109  0.5932  0.4912
  225TIP3    H1  639   5.530   0.793   2.604 -0.9903  0.2087  0.3183
  225TIP3    H2  640   5.495   0.884   2.488 -1.5324 -0.7842 -0.3173
  226TIP3   OH2  641   2.991   5.152   5.690  0.0164  0.2407  0.1194
  226TIP3    H1  642   2.919   5.129   5.749  0.5330  1.3189  1.2211
  226TIP3    H2  643   2.948   5.180   5.609 -0.6947 -1.6381 -0.2005
  227TIP3   OH2  644   6.364   2.548   1.239 -0.6044 -0.2137 -0.6636
  227TIP3    H1  645   6.410   2.620   1.282  0.7598 -1.7544  0.5917
  227TIP3    H2  646   6.341   2.582   1.153  0.3257  1.5824 -0.2485
  228TIP3   OH2  647   2.588   1.390   2.960 -0.2788 -0.2327 -0.4974
  228TIP3    H1  648   2.655   1.397   3.028 -1.7392 -0.4243  1.0346
  228TIP3    H2  649   2.573   1.480   2.932  0.6484 -0.1952 -0.9272
  229TIP3   OH2  650   5.804   1.563   2.037  0.2504  0.0316 -0.5045
  229TIP3    H1  651   5.781   1.477   2.071 -0.4123  0.2180 -0.4679
  229TIP3    H2  652   5.799   1.553   1.942 -0.5274  0.2078 -0.4900
  230TIP3   OH2  653   1.143   1.005   1.857  0.4119 -0.1561 -0.0114
  230TIP3    H1  654   1.101   0.945   1.795 -0.1724  1.7732 -1.5673
  230TIP3    H2  655   1.081   1.011   1.930 -0.2087 -0.3121 -0.5183
  231TIP3   OH2  656   1.023   5.060   1.049 -0.4720  0.0544 -0.1121
  231TIP3    H1  657   1.044   5.027   0.961  0.8755 -0.6563  0.4546
  231TIP3    H2  658   0.940   5.018   1.071 -0.8029  0.1998 -1.0105
  232TIP3   OH2  659   5.512   2.157   2.999 -0.1449  0.1901  0.0442
  232TIP3    H1  660   5.531   2.158   3.093 -1.6352 -1.1257  0.4101
  232TIP3    H2  661   5.583   2.105   2.961  0.0040  0.0098  0.5586
  233TIP3   OH2  662   4.640   5.492   4.951 -0.0599 -0.5302  0.0089
  233TIP3    H1  663   4.717   5.493   5.008  0.6296 -0.6696 -0.8938
  233TIP3    H2  664   4.647   5.571   4.898 -1.4478  0.3455  1.0517
  234TIP3   OH2  665   0.667   4.709   1.112  0.4535  0.0560  0.2312
  234TIP3    H1  666   0.591   4.651   1.113 -0.2154  0.9193  0.8287
  234TIP3    H2  667   0.742   4.651   1.128 -0.2992 -0.5037  1.9182
  235TIP3   OH2  668   0.178   0.558   4.293  0.2294 -0.2551  0.0918
  235TIP3    H1  669   0.218   0.478   4.259  0.7620 -0.9313  2.1730
  235TIP3    H2  670   0.203   0.626   4.230 -0.0623 -1.6663 -1.6037
  236TIP3   OH2  671   4.344   1.944   0.125  0.1626 -0.1400  0.1352
  236TIP3    H1  672   4.349   1.944   0.221  1.1100  1.8763  0.1353
  236TIP3    H2  673   4.297   2.024   0.103 -1.1595 -1.1990 -1.0851
  237TIP3   OH2  674   0.649   6.792   2.230  0.2620 -0.2521 -0.1184
  237TIP3    H1  675   0.738   6.764   2.252 -0.4925 -1.3191  1.7558
  237TIP3    H2  676   0.616   6.724   2.172  0.6273  0.1327 -0.7972
  238TIP3   OH2  677   2.973   1.275   5.142 -0.4634  0.0133 -0.7533
  238TIP3    H1  678   2.992   1.187   5.173 -2.4674 -0.1414  0.1697
  238TIP3    H2  679   2.909   1.263   5.072  2.2037  0.5364 -3.4600
  239TIP3   OH2  680   3.226   6.662   4.200 -0.1164  0.1904 -0.1995
  239TIP3    H1  681   3.261   6.676   4.112  1.9519  0.9117  0.6738
  239TIP3    H2  682   3.277   6.721   4.256  0.4036 -2.0381  1.8414
  240TIP3   OH2  683   6.622   4.807   3.937  0.5728  0.1155 -0.4236
  240TIP3    H1  684   6.626   4.718   3.903  0.8207 -0.3552  0.8071
  240TIP3    H2  685   6.542   4.844   3.898  1.0270 -0.2659 -1.7760
  241TIP3   OH2  686   5.783   1.429   3.831  0.0242 -0.3911 -0.2440
  241TIP3    H1  687   5.704   1.482   3.835  0.5057  0.3486 -0.3958
  241TIP3    H2  688   5.764   1.353   3.887 -1.1912 -0.7841 -1.1436
  242TIP3   OH2  689   5.014   4.691   0.484  0.1180  0.4651 -0.0894
  242TIP3    H1  690   5.039   4.784   0.489  3.2072 -0.3056  2.5993
  242TIP3    H2  691   5.090   4.645   0.521 -2.7035 -2.8775  2.1142
  243TIP3   OH2  692   4.241   5.525   5.593  0.7996 -0.0364 -0.7977
  243TIP3    H1  693   4.206   5.613   5.577 -0.7617 -0.6110 -0.7050
  243TIP3    H2  694   4.167   5.476   5.628  2.4681 -0.5352  2.3986
  244TIP3   OH2  695   5.524   6.203   2.912 -0.0637 -0.1970  0.6478
  244TIP3    H1  696   5.540   6.151   2.991  1.4503 -1.1055 -0.2024
  244TIP3    H2  697   5.567   6.153   2.842 -2.9015 -0.3659 -1.0994
  245TIP3   OH2  698   0.246   5.972   3.975 -0.6754  0.1834  0.2312
  245TIP3    H1  699   0.199   6.007   3.900  1.1562  1.5346 -0.3424
  245TIP3    H2  700   0.264   6.048   4.030 -0.1259 -0.4716  0.9817
  246TIP3   OH2  701   1.289   3.709   2.827 -0.6305  0.1291  0.8560
  246TIP3    H1  702   1.329   3.623   2.828 -0.4098  0.1562 -1.4164
  246TIP3    H2  703   1.297   3.740   2.918  1.7146 -1.1072  1.1428
  247TIP3   OH2  704   1.909   5.561   4.967 -0.4714 -0.3990  0.1597
  247TIP3    H1  705   1.941   5.556   4.877 -1.5098 -0.4333 -0.2210
  247TIP3    H2  706   1.830   5.614   4.962 -1.5135 -1.8314  0.7626
  248TIP3   OH2  707   4.877   3.801   0.806  0.7821  0.0262  0.3409
  248TIP3    H1  708   4.827   3.743   0.864 -3.5341  1.5524 -1.3978
  248TIP3    H2  709   4.882   3.884   0.852 -1.5923  0.8873 -0.7865
  249TIP3   OH2  710   0.791   0.886   0.240  0.2346 -0.3362  0.4587
  249TIP3    H1  711   0.871   0.937   0.224 -0.4905  0.7560  0.1857
  249TIP3    H2  712   0.749   0.931   0.314  0.5887 -1.7892  1.5915
  250TIP3   OH2  713   5.087   1.440   1.161  0.2163 -0.0831  0.0954
  250TIP3    H1  714   5.027   1.499   1.116 -0.0610  0.1262  0.7267
  250TIP3    H2  715   5.144   1.407   1.092  0.6737  1.2664 -0.2071
  251TIP3   OH2  716   2.929   5.575   4.664  0.0763 -0.3789  0.2617
  251TIP3    H1  717   2.946   5.604   4.753  1.5204 -3.2698  1.0335
  251TIP3    H2  718   2.902   5.484   4.672 -3.1895  0.1994 -2.0643
  252TIP3   OH2  719   6.873   2.552   5.746 -0.1435 -0.3275  0.2048
  252TIP3    H1  720   6.818   2.480   5.713  1.5997 -0.8283 -1.8426
  252TIP3    H2  721   6.897   2.601   5.668  0.3781  1.3063  1.3451
  253TIP3   OH2  722   5.442   5.651   4.340  0.4790 -0.5063  0.3594
  253TIP3    H1  723   5.479   5.592   4.275 -0.1585  0.1707 -0.6299
  253TIP3    H2  724   5.380   5.596   4.389 -0.2574 -0.6108 -0.6800
  254TIP3   OH2  725   2.258   1.883   4.020  0.0723 -0.1202 -0.0719
  254TIP3    H1  726   2.191   1.854   3.959  0.6255  0.0256 -0.7642
  254TIP3    H2  727   2.326   1.922   3.965 -0.5443  2.3475  0.7833
  255TIP3   OH2  728   0.884   5.044   4.706  0.1343 -0.0673 -0.2133
  255TIP3    H1  729   0.949   4.995   4.756 -0.3558 -1.9545 -1.2780
  255TIP3    H2  730   0.922   5.053   4.619 -0.7923 -0.8177 -0.7283
  256TIP3   OH2  731   0.228   5.309   4.110  0.1838 -0.1775  0.7887
  256TIP3    H1  732   0.269   5.236   4.061  0.0337 -1.0259  1.8893
  256TIP3    H2  733   0.253   5.293   4.201 -0.6099  0.6555  1.1614
  257TIP3   OH2  734   6.760   4.082   0.437  0.5385 -0.4025  0.4463
  257TIP3    H1  735   6.692   4.017   0.455  0.2852 -0.2494  0.0517
  257TIP3    H2  736   6.781   4.071   0.344 -1.9344  2.2986 -0.5860
  258TIP3   OH2  737   0.838   1.110   3.762  0.5969  0.0831  0.5847
  258TIP3    H1  738   0.856   1.027   3.718  3.0369  0.9979 -0.3038
  258TIP3    H2  739   0.795   1.164   3.696  0.8448  0.1805  0.4990
  259TIP3   OH2  740   5.518   1.840   1.225 -0.1103 -0.1217 -0.4773
  259TIP3    H1  741   5.475   1.762   1.190  0.8812 -0.5311 -0.8489
  259TIP3    H2  742   5.481   1.852   1.312 -0.1929 -1.0850 -0.3679
  260TIP3   OH2  743   5.091   5.477   1.056 -0.3073  0.3786  0.1375
  260TIP3    H1  744   5.098   5.548   0.993 -1.8774  0.6203  0.2006
  260TIP3    H2  745   5.008   5.435   1.036  1.2286 -2.4145 -0.8448
  261TIP3   OH2  746   6.812   0.724   1.135  0.1637 -1.1687 -0.1241
  261TIP3    H1  747   6.746   0.725   1.205  0.2773 -2.0295  0.0032
  261TIP3    H2  748   6.769   0.765   1.060  0.6139  1.4479  0.9346
  262TIP3   OH2  749   0.256   6.334   5.551 -0.0996  0.0376 -0.7365
  262TIP3    H1  750   0.284   6.422   5.526  0.8250  0.4649  1.5699
  262TIP3    H2  751   0.321   6.276   5.510 -0.1113  0.4757 -1.3993
  263TIP3   OH2  752   1.221   1.145   0.378  0.0894  0.3102  0.2849
  263TIP3    H1  753   1.187   1.223   0.334 -0.8640  0.3619  1.0988
  263TIP3    H2  754   1.144   1.100   0.412  0.4502 -1.8702 -1.5308
  264TIP3   OH2  755   1.240   3.282   0.955 -0.1089 -0.0566  0.1289
  264TIP3    H1  756   1.156   3.298   0.910 -1.0569 -1.0923  1.4289
  264TIP3    H2  757   1.284   3.367   0.955 -1.3726  0.6300 -0.1653
  265TIP3   OH2  758   2.950   6.372   2.181 -0.7712  0.2838 -0.2030
  265TIP3    H1  759   3.020   6.437   2.187  1.1986 -1.6295 -0.9791
  265TIP3    H2  760   2.921   6.377   2.090 -0.1048 -0.3559 -0.4670
  266TIP3   OH2  761   4.455   3.180   0.120 -0.4214 -0.8658 -0.3813
  266TIP3    H1  762   4.529   3.211   0.068 -0.4715  0.7522  0.4607
  266TIP3    H2  763   4.478   3.091   0.144  0.2786 -1.1199 -1.8903
  267TIP3   OH2  764   0.294   2.022   3.228 -0.0768 -0.1870  0.2595
  267TIP3    H1  765   0.336   1.936   3.228 -0.6946 -0.4925  0.7214
  267TIP3    H2  766   0.202   2.003   3.241 -0.9686  0.1925 -3.9614
  268TIP3   OH2  767   4.720   3.800   4.892  0.0372  0.4220 -0.5593
  268TIP3    H1  768   4.707   3.756   4.808  1.9158 -0.5139 -0.4125
  268TIP3    H2  769   4.813   3.787   4.912 -0.2474  1.0610  1.4198
  269TIP3   OH2  770   6.694   3.908   1.973  0.0219 -0.5582  0.7156
  269TIP3    H1  771   6.675   3.917   2.067  0.0176 -0.8414  0.7422
  269TIP3    H2  772   6.718   3.997   1.946 -2.2777  0.0695  0.4687
  270TIP3   OH2  773   4.430   0.798   0.095  0.2861  0.8319  0.2333
  270TIP3    H1  774   4.522   0.770   0.100 -0.3137 -1.0962  2.0679
  270TIP3    H2  775   4.380   0.718   0.110 -1.6622  2.1271  0.9912
  271TIP3   OH2  776   0.110   1.827   3.758  0.5401 -0.6620  0.0523
  271TIP3    H1  777   0.095   1.845   3.851  0.1477 -0.1659 -0.1049
  271TIP3    H2  778   0.185   1.767   3.757  1.5064  0.5091  0.6184
  272TIP3   OH2  779   5.566   1.264   2.394  0.1996  0.4140 -0.3050
  272TIP3    H1  780   5.605   1.178   2.407  1.0194  0.6202 -1.3205
  272TIP3    H2  781   5.640   1.321   2.373 -0.5668  0.9493 -1.6340
  273TIP3   OH2  782   4.211   5.712   2.944 -0.3864  0.0455  0.4203
  273TIP3    H1  783   4.210   5.718   2.848  0.6142  0.3651  0.4150
  273TIP3    H2  784   4.139   5.653   2.965 -1.1422  0.6115 -0.4737
  274TIP3   OH2  785   4.851   1.923   1.281 -0.4392  0.2651 -0.2017
  274TIP3    H1  786   4.773   1.960   1.241 -0.4092  0.7339  0.1665
  274TIP3    H2  787   4.848   1.952   1.372  0.4490  0.7635 -0.3210
  275TIP3   OH2  788   5.412   2.443   5.093  0.2993 -0.0199  0.0992
  275TIP3    H1  789   5.489   2.475   5.139  0.0386  0.1071  0.4450
  275TIP3    H2  790   5.373   2.379   5.152 -0.4058  0.6242  0.3411
  276TIP3   OH2  791   1.431   2.422   2.422  0.4223  0.8256 -0.0920
  276TIP3    H1  792   1.441   2.495   2.483 -1.6129  0.5922  0.5969
  276TIP3    H2  793   1.390   2.353   2.474  0.8481 -0.2476 -1.1359
  277TIP3   OH2  794   3.483   0.857   4.027 -0.0589  0.1888  0.3983
  277TIP3    H1  795   3.440   0.851   4.112 -0.8021  1.3887  0.1326
  277TIP3    H2  796   3.572   0.825   4.042 -0.3494 -0.1495  1.4834
  278TIP3   OH2  797   3.151   2.703   5.198 -0.1914 -0.1887  0.0563
  278TIP3    H1  798   3.086   2.638   5.170  1.5760 -1.9079 -0.2618
  278TIP3    H2  799   3.119   2.736   5.282 -1.0030 -1.6831  0.3479
  279TIP3   OH2  800   4.435   4.942   5.667 -0.0177  0.1460 -0.1587
  279TIP3    H1  801   4.446   4.954   5.572 -1.0493  0.3783 -0.2640
  279TIP3    H2  802   4.343   4.966   5.683  0.2140  0.3302  0.9378
  280TIP3   OH2  803   4.514   0.539   5.167 -0.4486  0.0796  0.2956
  280TIP3    H1  804   4.535   0.526   5.074  1.1412 -0.5631  0.7068
  280TIP3    H2  805   4.596   0.518   5.213 -0.8660  1.4640  1.7734
  281TIP3   OH2  806   4.768   2.069   4.065 -0.4635 -0.6264  0.5142
  281TIP3    H1  807   4.770   2.105   4.154 -1.4094 -1.1709  0.7684
  281TIP3    H2  808   4.776   2.145   4.008 -1.0671 -0.1395  1.0553
  282TIP3   OH2  809   6.220   6.308   5.534  0.2477  1.0012  0.2990
  282TIP3    H1  810   6.274   6.230   5.548  0.6470  1.0969 -0.6403
  282TIP3    H2  811   6.281   6.381   5.543 -0.1758  1.2348  1.4330
  283TIP3   OH2  812   4.516   3.478   1.655 -0.3258  0.0109  0.9637
  283TIP3    H1  813   4.567   3.534   1.714  2.9119  0.5703 -2.0248
  283TIP3    H2  814   4.544   3.389   1.677 -0.5473  0.0480  1.4251
  284TIP3   OH2  815   6.563   3.296   3.118  0.5674 -0.4768 -0.4533
  284TIP3    H1  816   6.527   3.360   3.179  0.6256 -0.1291 -0.7791
  284TIP3    H2  817   6.584   3.220   3.172 -1.0089 -0.8474 -0.3219
  285TIP3   OH2  818   2.403   5.468   3.570  0.3059  0.4809 -0.6266
  285TIP3    H1  819   2.489   5.434   3.546  0.2692  0.2862 -0.4778
  285TIP3    H2  820   2.343   5.394   3.558  0.1419  0.6465 -0.8382
  286TIP3   OH2  821   6.980   0.329   1.536 -0.1296  0.0609 -0.6239
  286TIP3    H1  822   7.000   0.392   1.606  0.6124 -1.0291  0.1822
  286TIP3    H2  823   6.885   0.325   1.533 -0.1696  0.1993  0.2685
  287TIP3   OH2  824   1.625   3.665   3.190 -0.6282 -0.1356  0.3315
  287TIP3    H1  825   1.542   3.677   3.236 -1.7882  0.3447 -1.7545
  287TIP3    H2  826   1.691   3.683   3.256 -2.1847  0.1968  1.8867
  288TIP3   OH2  827   2.619   6.577   4.871 -0.1380 -0.4118 -0.2986
  288TIP3    H1  828   2.593   6.668   4.884 -0.9132 -0.8092  1.0752
  288TIP3    H2  829   2.713   6.582   4.852  0.0995  0.6051  0.9968
  289TIP3   OH2  830   4.638   4.022   5.032  0.0516 -0.0474  0.2094
  289TIP3    H1  831   4.545   4.006   5.015 -0.1420  1.7308 -0.5847
  289TIP3    H2  832   4.682   3.949   4.987 -0.9200 -0.6095  0.1211
  290TIP3   OH2  833   6.809   1.321   4.995 -0.7053  0.3318  0.0346
  290TIP3    H1  834   6.823   1.227   4.982  0.4416  0.5628 -0.5368
  290TIP3    H2  835   6.816   1.359   4.908 -0.0602  1.0807  0.3983
  291TIP3   OH2  836   1.340   0.957   4.270  0.0072  1.5233 -0.2143
  291TIP3    H1  837   1.383   0.975   4.186  0.3147  2.1794  0.0716
  291TIP3    H2  838   1.390   1.009   4.334  0.6735 -0.0379  0.6091
  292TIP3   OH2  839   6.688   1.753   2.376  0.0613 -0.1740 -0.2507
  292TIP3    H1  840   6.691   1.694   2.451 -0.3457  0.2947  0.1405
  292TIP3    H2  841   6.599   1.788   2.377  0.7585  1.7065  0.5210
  293TIP3   OH2  842   6.766   2.904   3.417 -0.3918  0.1743 -1.4251
  293TIP3    H1  843   6.861   2.892   3.415 -0.3371  0.6372 -1.8028
  293TIP3    H2  844   6.731   2.815   3.422  0.0907  0.0535  1.5829
  294TIP3   OH2  845   3.579   6.590   1.764  0.2756  0.0455 -0.9085
  294TIP3    H1  846   3.612   6.678   1.746 -0.9430  0.8567  0.6226
  294TIP3    H2  847   3.490   6.590   1.728  0.0560 -0.3424 -0.3847
  295TIP3   OH2  848   2.104   1.688   1.111 -0.4608  0.1593  0.3101
  295TIP3    H1  849   2.083   1.687   1.017 -1.2372 -1.4055  0.4594
  295TIP3    H2  850   2.097   1.780   1.136 -1.2490  0.4745 -0.9597
  296TIP3   OH2  851   6.506   5.542   5.169 -0.2615  0.0728 -0.3951
  296TIP3    H1  852   6.531   5.452   5.187  0.6799  0.0643 -1.6565
  296TIP3    H2  853   6.415   5.537   5.139 -1.1426 -0.1336  2.0921
  297TIP3   OH2  854   6.580   6.223   0.675 -0.5057  0.5756  0.1778
  297TIP3    H1  855   6.490   6.250   0.656 -0.4248  0.4306 -0.4219
  297TIP3    H2  856   6.632   6.301   0.657 -0.3359  0.1977 -1.0139
  298TIP3   OH2  857   5.601   0.647   1.322  0.8788  0.0153  0.0924
  298TIP3    H1  858   5.567   0.713   1.383  0.9539  0.5924 -0.4849
  298TIP3    H2  859   5.535   0.643   1.253  0.3292 -1.3146  0.6584
  299TIP3   OH2  860   7.202   2.771   0.372 -0.2715 -0.7027 -0.3965
  299TIP3    H1  861   7.127   2.830   0.362 -0.4812 -0.8270  0.3886
  299TIP3    H2  862   7.276   2.829   0.392 -0.2929 -0.6324 -0.5229
  300TIP3   OH2  863   6.720   5.673   0.323 -0.3018 -0.1964 -0.2104
  300TIP3    H1  864   6.779   5.627   0.382 -0.9637  1.5735  1.9424
  300TIP3    H2  865   6.742   5.765   0.334 -0.7688  0.2513 -2.4527
  301TIP3   OH2  866   3.898   6.346   3.619 -0.5899 -0.2666 -0.3504
  301TIP3    H1  867   3.846   6.294   3.557 -2.3291  1.6060 -0.5801
  301TIP3    H2  868   3.857   6.433   3.617  0.6886  0.4534  1.8092
  302TIP3   OH2  869   0.354   1.063   3.967 -0.1054  0.2625  0.3125
  302TIP3    H1  870   0.303   1.009   4.028  1.0529 -2.3375 -0.8847
  302TIP3    H2  871   0.441   1.024   3.968  0.6885  1.8950 -0.9564
  303TIP3   OH2  872   2.566   6.027   4.152 -0.1774 -0.1054  0.3089
  303TIP3    H1  873   2.495   5.971   4.184  0.7893 -0.8806  1.1708
  303TIP3    H2  874   2.643   5.998   4.201  0.2737  2.3279  1.1662
  304TIP3   OH2  875   3.792   1.880   3.540 -0.0645  0.1002 -0.0610
  304TIP3    H1  876   3.817   1.794   3.505 -0.2741 -0.1263  0.3424
  304TIP3    H2  877   3.855   1.896   3.610  0.2834  0.5021 -0.4576
  305TIP3   OH2  878   6.962   2.368   1.054  0.8713  0.0765 -0.2134
  305TIP3    H1  879   6.996   2.457   1.059  1.3269 -0.0774 -0.5022
  305TIP3    H2  880   6.958   2.338   1.145  0.7973  0.3583 -0.1226
  306TIP3   OH2  881   1.308   5.997   0.334 -0.1722 -0.0929 -0.4354
  306TIP3    H1  882   1.387   5.953   0.304  1.6205  1.4623  1.7301
  306TIP3    H2  883   1.326   6.090   0.325 -2.3927  0.3420 -1.2747
  307TIP3   OH2  884   2.624   6.467   4.060  0.8405 -0.5638 -0.1024
  307TIP3    H1  885   2.609   6.374   4.045  2.0431 -0.7502 -0.1899
  307TIP3    H2  886   2.589   6.510   3.982 -1.6964 -0.7119  0.8305
  308TIP3   OH2  887   4.552   1.784   0.047 -0.2525 -0.1013 -0.1692
  308TIP3    H1  888   4.553   1.758  -0.045  0.2849 -1.1103  0.1098
  308TIP3    H2  889   4.472   1.837   0.056  0.1608  0.7927 -1.4100
  309TIP3   OH2  890   4.077   5.415   3.402  0.2020 -0.0647 -0.4898
  309TIP3    H1  891   4.109   5.377   3.320  2.8194  0.7356  0.0808
  309TIP3    H2  892   4.029   5.493   3.375  0.5106 -0.1380 -1.2791
  310TIP3   OH2  893   1.694   0.837   4.127  0.1160 -0.6733  0.3144
  310TIP3    H1  894   1.739   0.888   4.060 -1.2141  1.4406  0.9286
  310TIP3    H2  895   1.685   0.750   4.088  0.9356 -0.0008 -1.5130
  311TIP3   OH2  896   0.973   4.783   5.862  0.1614 -0.2493 -0.6113
  311TIP3    H1  897   1.037   4.732   5.813 -0.2944  0.2900 -1.8020
  311TIP3    H2  898   1.026   4.834   5.923  0.8260 -0.2197 -1.1945
  312TIP3   OH2  899   5.470   4.780   0.674  0.3338  0.2677 -0.3810
  312TIP3    H1  900   5.497   4.861   0.630 -0.0113  0.3285 -0.4819
  312TIP3    H2  901   5.462   4.805   0.766  2.3417 -0.1657 -0.0368
  313TIP3   OH2  902   5.262   5.805   2.357 -0.1923 -0.4151 -0.0032
  313TIP3    H1  903   5.348   5.801   2.398 -0.8616 -0.3159  1.4767
  313TIP3    H2  904   5.200   5.804   2.430 -1.4990 -1.5550 -1.0579
  314TIP3   OH2  905   6.378   6.503   2.088  0.0519  0.3747 -0.0994
  314TIP3    H1  906   6.295   6.515   2.134  1.0462 -0.3044  1.9989
  314TIP3    H2  907   6.353   6.475   2.000 -2.0173 -3.0195  1.3543
  315TIP3   OH2  908   3.217   5.895   3.972 -0.0327  0.1561  0.3666
  315TIP3    H1  909   3.170   5.811   3.964 -0.2422  0.2100  0.9533
  315TIP3    H2  910   3.309   5.872   3.963 -0.1526  0.0079 -0.5210
  316TIP3   OH2  911   4.811   3.988   1.928 -0.2889  0.1276  0.0795
  316TIP3    H1  912   4.748   4.054   1.898 -1.2446 -0.9894 -0.4763
  316TIP3    H2  913   4.897   4.028   1.913 -0.7421  0.1795 -2.9864
  317TIP3   OH2  914   1.136   4.721   2.170 -0.0794 -0.2895 -0.0418
  317TIP3    H1  915   1.168   4.805   2.136 -0.9337 -0.5542 -1.5754
  317TIP3    H2  916   1.196   4.700   2.242  0.5914  1.2693 -0.1152
  318TIP3   OH2  917   6.159   2.161   2.071 -0.2759  0.7453 -0.0702
  318TIP3    H1  918   6.151   2.079   2.119  0.5033 -0.0403 -1.2235
  318TIP3    H2  919   6.219   2.215   2.123 -0.3185  0.3509  0.3872
  319TIP3   OH2  920   3.236   6.573   1.963 -0.7391  0.2567 -0.2767
  319TIP3    H1  921   3.259   6.481   1.959 -1.0938  0.1979 -1.1199
  319TIP3    H2  922   3.198   6.585   2.050 -3.4062 -1.0565 -1.1797
  320TIP3   OH2  923   6.000   1.843   1.127  0.1183 -0.1842  0.2532
  320TIP3    H1  924   6.083   1.890   1.117 -0.3325  0.3182 -1.4232
  320TIP3    H2  925   5.998   1.782   1.054 -1.4242  0.4997 -0.3069
  321TIP3   OH2  926   1.976   1.942   0.365 -0.1297 -0.0729 -0.0993
  321TIP3    H1  927   1.923   2.002   0.313 -0.1317  0.5564  0.6091
  321TIP3    H2  928   2.064   1.947   0.326 -0.0866  0.5418  0.0693
  322TIP3   OH2  929   4.402   3.057   0.605  0.2003  0.1818 -0.1912
  322TIP3    H1  930   4.339   2.985   0.609 -0.3220  0.5912 -0.8362
  322TIP3    H2  931   4.353   3.134   0.634  0.8243  0.2521  0.7467
  323TIP3   OH2  932   2.762   3.370   4.845  0.0548 -0.3463  0.3323
  323TIP3    H1  933   2.690   3.307   4.850 -1.7071  1.5189 -0.4572
  323TIP3    H2  934   2.816   3.338   4.772 -0.8530 -0.9105 -0.1134
  324TIP3   OH2  935   1.068   1.629   1.426 -0.7625  0.2996  0.0458
  324TIP3    H1  936   1.099   1.576   1.499 -1.1291 -0.3539 -0.2684
  324TIP3    H2  937   1.028   1.706   1.467 -2.8015 -1.0048  0.6517
  325TIP3   OH2  938   4.656   1.551   5.525  0.7655  0.1252 -0.2494
  325TIP3    H1  939   4.640   1.638   5.562  0.0255 -0.2555  0.3612
  325TIP3    H2  940   4.573   1.529   5.481 -0.2800 -1.6229  2.3951
  326TIP3   OH2  941   1.751   6.473  -0.002 -0.0776 -0.4672  0.0879
  326TIP3    H1  942   1.841   6.442  -0.014 -0.0722 -0.0987 -0.8557
  326TIP3    H2  943   1.758   6.541   0.065  0.2353 -0.9007  0.5111
  327TIP3   OH2  944   4.402   2.267   1.032  0.2296  0.6588  0.1474
  327TIP3    H1  945   4.425   2.181   1.067  1.1858  1.0604  0.5370
  327TIP3    H2  946   4.333   2.299   1.089 -0.8969 -0.2952 -0.6456
  328TIP3   OH2  947   4.290   5.011   3.821  0.5383 -0.7806 -0.6614
  328TIP3    H1  948   4.370   4.960   3.835  0.6465 -0.6100 -0.6587
  328TIP3    H2  949   4.284   5.021   3.726  2.2349  1.9122 -0.5800
  329TIP3   OH2  950   6.883   3.817   3.205 -0.4963  0.9433  0.4119
  329TIP3    H1  951   6.805   3.762   3.216 -0.4922  0.8979  0.2212
  329TIP3    H2  952   6.851   3.895   3.160 -0.4405  0.9458  0.3769
  330TIP3   OH2  953   4.220   5.537   3.949  0.0193  0.4220  0.6206
  330TIP3    H1  954   4.224   5.445   3.976  3.6746  0.6327  1.2278
  330TIP3    H2  955   4.216   5.533   3.853 -0.2502 -0.3564  0.6563
  331TIP3   OH2  956   7.045   0.655   0.458  0.1660  0.0559  0.0361
  331TIP3    H1  957   6.991   0.593   0.506 -1.1712  1.6775  0.7068
  331TIP3    H2  958   7.092   0.601   0.394  0.1708 -1.8199  1.5298
  332TIP3   OH2  959   4.750   2.880   1.475 -0.1322 -0.0337 -0.2974
  332TIP3    H1  960   4.812   2.807   1.477  1.3221  1.1178 -1.6183
  332TIP3    H2  961   4.761   2.923   1.560 -0.8372 -1.1601  0.4000
  333TIP3   OH2  962   4.555   4.158   0.547  0.4108 -0.1219 -0.1120
  333TIP3    H1  963   4.541   4.232   0.605 -4.1237 -0.8884  0.0896
  333TIP3    H2  964   4.584   4.087   0.605  1.2672  0.5205  0.2650
  334TIP3   OH2  965   3.345   4.011   2.905 -0.2863 -0.0036  0.3924
  334TIP3    H1  966   3.393   4.088   2.876 -1.7778  0.9182  0.2544
  334TIP3    H2  967   3.320   4.031   2.995  0.3365 -0.8579  0.7678
  335TIP3   OH2  968   6.618   6.356   2.766 -0.2579  0.3302  0.0053
  335TIP3    H1  969   6.702   6.347   2.810 -0.2923  0.3654  0.0791
  335TIP3    H2  970   6.568   6.279   2.792 -0.0551  0.0334 -0.4712
  336TIP3   OH2  971   6.181   5.228   5.029  0.3793  0.7301  0.4615
  336TIP3    H1  972   6.086   5.219   5.022  0.4021 -1.2133  1.7323
  336TIP3    H2  973   6.200   5.217   5.123  1.8444  1.2277  0.2603
  337TIP3   OH2  974   1.280   5.071   3.918 -0.1791  0.0741 -0.0194
  337TIP3    H1  975   1.290   4.989   3.965 -0.4019 -0.7047 -1.2755
  337TIP3    H2  976   1.186   5.092   3.927 -0.0589  0.3856  0.5833
  338TIP3   OH2  977   1.538   0.079   3.966  0.6310  0.0653 -0.7341
  338TIP3    H1  978   1.582  -0.004   3.986  2.6787  1.4063  0.7529
  338TIP3    H2  979   1.462   0.080   4.023  1.6793  0.0217  0.7169
  339TIP3   OH2  980   0.281   4.113   2.963 -0.2023  0.3301 -0.7536
  339TIP3    H1  981   0.238   4.057   2.898 -0.8610  2.1338 -1.9576
  339TIP3    H2  982   0.246   4.084   3.047 -0.7060 -0.8782 -1.3499
  340TIP3   OH2  983   3.183   4.905   5.626 -0.7645 -0.1412 -0.0007
  340TIP3    H1  984   3.274   4.930   5.641  0.3975 -4.3527  1.4129
  340TIP3    H2  985   3.132   4.980   5.656  2.1701  2.3012 -0.6958
  341TIP3   OH2  986   2.232   5.318   4.250 -0.6474  0.1527  0.0972
  341TIP3    H1  987   2.292   5.330   4.324 -1.8720  0.4075  1.0934
  341TIP3    H2  988   2.245   5.227   4.224  0.8947  0.4902 -0.3849
  342TIP3   OH2  989   5.805   1.410   2.315  0.0976  0.1178 -0.1963
  342TIP3    H1  990   5.853   1.330   2.338 -0.2463 -0.6587 -1.9703
  342TIP3    H2  991   5.872   1.473   2.291  0.3280 -0.6049 -1.5836
  343TIP3   OH2  992   6.349   4.334   5.079  0.0566 -0.1941  0.1557
  343TIP3    H1  993   6.372   4.267   5.014  0.2346  0.6055 -0.6158
  343TIP3    H2  994   6.300   4.286   5.146 -1.8454 -0.7067 -1.5024
  344TIP3   OH2  995   4.805   5.187   4.336 -0.7657 -0.4542 -0.6407
  344TIP3    H1  996   4.785   5.199   4.243 -0.9717 -0.6654 -0.6262
  344TIP3    H2  997   4.720   5.192   4.379 -0.6339 -0.0203 -0.4229
  345TIP3   OH2  998   0.320   5.208   2.977 -0.2433 -0.4785 -0.5237
  345TIP3    H1  999   0.360   5.268   2.914  1.7817 -1.3584 -0.1425
  345TIP3    H2 1000   0.308   5.261   3.056  0.4771 -0.2670 -0.5481
  346TIP3   OH2 1001   0.582   0.353   1.888 -0.0902 -0.2579  0.5375
  346TIP3    H1 1002   0.513   0.348   1.822 -0.4150 -1.6069  0.9462
  346TIP3    H2 1003   0.660   0.379   1.839 -0.8339  1.1537  0.0435
  347TIP3   OH2 1004   6.130   1.041   1.722 -0.0943  0.0891  0.0800
  347TIP3    H1 1005   6.076   1.082   1.654 -0.9656  0.1403  0.7898
  347TIP3    H2 1006   6.217   1.078   1.708 -0.2294  0.0200 -1.0709
  348TIP3   OH2 1007   3.221   3.782   3.318  0.4415 -0.1626  0.1262
  348TIP3    H1 1008   3.140   3.824   3.347  1.2509  2.4997 -1.0752
  348TIP3    H2 1009   3.209   3.768   3.224  0.7973 -1.2113  0.2296
  349TIP3   OH2 1010   1.268   0.092   1.415 -0.4744 -0.0884 -0.1659
  349TIP3    H1 1011   1.362   0.105   1.399 -0.2732 -2.0119 -0.7922
  349TIP3    H2 1012   1.227   0.111   1.331 -0.8480  1.9794  0.4144
  350TIP3   OH2 1013   3.809   3.652   3.768 -0.0242  0.3920 -0.0483
  350TIP3    H1 1014   3.871   3.705   3.817  0.9572  0.4626 -1.3086
  350TIP3    H2 1015   3.811   3.689   3.679 -1.2247 -0.1527 -0.3245
  351TIP3   OH2 1016   4.142   0.614   4.522  0.2938  0.0647  0.0980
  351TIP3    H1 1017   4.084   0.566   4.463 -0.8927 -0.5975  1.6967
  351TIP3    H2 1018   4.227   0.572   4.512  0.1856  0.1379 -1.2898
  352TIP3   OH2 1019   5.987   2.661   5.874 -0.1212  0.0572  0.0968
  352TIP3    H1 1020   6.081   2.669   5.888 -0.3033  3.2035  0.2569
  352TIP3    H2 1021   5.962   2.743   5.831 -2.7402 -0.8354 -0.2557
  353TIP3   OH2 1022   6.821   3.894   4.867 -0.2328  0.2082  0.1610
  353TIP3    H1 1023   6.745   3.866   4.919  0.1277 -0.8347  0.1529
  353TIP3    H2 1024   6.880   3.933   4.931 -0.1928 -0.2213  0.3879
  354TIP3   OH2 1025   1.517   5.762   1.310 -0.1830  0.1252  0.1596
  354TIP3    H1 1026   1.548   5.821   1.242  0.4633 -0.0974  0.2595
  354TIP3    H2 1027   1.574   5.685   1.304 -0.2206  0.0384  0.8409
  355TIP3   OH2 1028   2.844   3.904   3.278  0.4226 -0.1648  0.3014
  355TIP3    H1 1029   2.909   3.898   3.347  1.4216 -1.2774 -0.6835
  355TIP3    H2 1030   2.852   3.993   3.244  0.6542  0.0498  0.9202
  356TIP3   OH2 1031   5.585   2.332   0.378  0.4405  0.3614 -0.2823
  356TIP3    H1 1032   5.641   2.385   0.435  0.1890  0.7272 -0.3739
  356TIP3    H2 1033   5.497   2.370   0.389 -0.2985 -1.6795  1.7402
  357TIP3   OH2 1034   6.290   3.748   5.047  0.6598  0.4166 -0.3550
  357TIP3    H1 1035   6.230   3.816   5.077  0.1078 -0.0233 -0.4386
  357TIP3    H2 1036   6.234   3.672   5.032  1.0114  0.4453 -1.9264
  358TIP3   OH2 1037   1.531   6.440   0.356  0.3046 -0.0809  0.0674
  358TIP3    H1 1038   1.444   6.411   0.384  0.8503 -0.7709  1.1356
  358TIP3    H2 1039   1.590   6.372   0.389  1.3771  1.0388  0.5110
  359TIP3   OH2 1040   5.573   4.769   2.515  0.2482 -0.1443  0.1706
  359TIP3    H1 1041   5.587   4.834   2.446  0.5095  0.8146  1.0940
  359TIP3    H2 1042   5.579   4.685   2.470  0.6628  0.4480 -0.9290
  360TIP3   OH2 1043   3.569   5.760   4.282 -0.0619  0.3036  0.1013
  360TIP3    H1 1044   3.476   5.752   4.262  0.1636 -0.3562 -0.7433
  360TIP3    H2 1045   3.613   5.726   4.204  0.8820 -0.9135  1.1396
  361TIP3   OH2 1046   6.501   6.614   1.722  0.2988  0.1689 -0.1775
  361TIP3    H1 1047   6.422   6.666   1.734  0.6899  1.0815 -1.3989
  361TIP3    H2 1048   6.470   6.524   1.716 -0.4995  0.3662  0.7283
  362TIP3   OH2 1049   0.864   5.768   4.263 -0.4199  0.0094 -0.8412
  362TIP3    H1 1050   0.850   5.794   4.354 -0.5487  0.5593 -1.0127
  362TIP3    H2 1051   0.910   5.842   4.224  1.9862 -1.2553 -0.5981
  363TIP3   OH2 1052   5.218   5.181   1.389 -0.0565 -0.8228 -0.2971
  363TIP3    H1 1053   5.296   5.228   1.418 -0.2940 -1.2670  1.1438
  363TIP3    H2 1054   5.241   5.089   1.395 -0.7581 -0.9692  0.4267
  364TIP3   OH2 1055   4.186   3.235   0.953  0.5621 -0.1525 -0.7572
  364TIP3    H1 1056   4.188   3.286   1.034 -3.3281 -3.5364  1.9346
  364TIP3    H2 1057   4.153   3.296   0.887 -2.0346  1.4227  1.7602
  365TIP3   OH2 1058   1.228   1.414   0.872  0.3057  0.2871  0.2112
  365TIP3    H1 1059   1.254   1.323   0.855 -0.4948  0.3152 -1.2835
  365TIP3    H2 1060   1.282   1.466   0.813 -0.5773  0.6283 -0.3076
  366TIP3   OH2 1061   7.159   2.509   3.608 -0.3636  0.2186 -0.4087
  366TIP3    H1 1062   7.124   2.563   3.538  0.7997  0.3632 -0.9007
  366TIP3    H2 1063   7.254   2.510   3.594 -0.2320 -0.9663  0.2889
  367TIP3   OH2 1064   5.108   4.867   4.023 -0.0951 -0.4209 -0.2011
  367TIP3    H1 1065   5.157   4.823   3.954 -0.0818  0.1487 -0.5618
  367TIP3    H2 1066   5.048   4.800   4.056  0.3700 -0.8918 -0.2959
  368TIP3   OH2 1067   6.801   0.977   2.866  0.4702 -0.1867 -0.8937
  368TIP3    H1 1068   6.726   0.996   2.808 -0.0821  1.0038  0.1707
  368TIP3    H2 1069   6.834   1.063   2.891  0.1549 -0.6349  1.2440
  369TIP3   OH2 1070   0.797   3.334   2.125 -0.2927 -0.1279  0.2716
  369TIP3    H1 1071   0.729   3.400   2.140 -1.8807 -1.5289 -0.4842
  369TIP3    H2 1072   0.790   3.313   2.032  0.7853 -0.7268  0.3095
  370TIP3   OH2 1073   2.962   5.950   1.943 -0.2510 -0.4476  0.0533
  370TIP3    H1 1074   2.878   5.992   1.926 -0.3895  0.3867  2.3964
  370TIP3    H2 1075   2.940   5.870   1.991  0.2740  0.1727  1.3851
  371TIP3   OH2 1076   1.186   5.075   4.235 -0.1565 -0.3670 -0.1031
  371TIP3    H1 1077   1.120   5.011   4.263 -1.9264  1.4491  0.1179
  371TIP3    H2 1078   1.212   5.119   4.315  1.0941 -0.8247 -0.2445
  372TIP3   OH2 1079   4.354   6.583   0.947  0.1957 -0.6148 -0.3600
  372TIP3    H1 1080   4.412   6.619   1.013  1.5334 -0.6467 -1.4744
  372TIP3    H2 1081   4.368   6.488   0.951 -0.3717 -0.6941 -0.1110
  373TIP3   OH2 1082   1.390   0.106   0.266  0.5806 -0.0842  0.4885
  373TIP3    H1 1083   1.420   0.019   0.289 -0.3140 -0.6364 -0.3446
  373TIP3    H2 1084   1.321   0.125   0.330  2.0927  0.8711  1.9241
  374TIP3   OH2 1085   6.254   5.601   2.354  0.2928 -0.2764 -0.1437
  374TIP3    H1 1086   6.197   5.533   2.391 -0.6594  0.8847  0.6176
  374TIP3    H2 1087   6.252   5.586   2.260 -1.2775 -0.3057 -0.1395
  375TIP3   OH2 1088   6.889   2.114   3.701  0.4973 -0.1824  0.1013
  375TIP3    H1 1089   6.891   2.184   3.766  0.4009  0.4510 -0.5614
  375TIP3    H2 1090   6.951   2.141   3.633  0.3008 -0.6293 -0.2698
  376TIP3   OH2 1091   0.440   6.704   1.790 -0.0450  0.0201 -0.2849
  376TIP3    H1 1092   0.477   6.670   1.871 -0.2269  2.0297  0.6920
  376TIP3    H2 1093   0.516   6.725   1.736  0.1298  0.3422  0.0820
  377TIP3   OH2 1094   1.528   0.875   3.290  0.0095  0.2645 -0.2939
  377TIP3    H1 1095   1.492   0.835   3.211 -1.0296  0.7060 -0.0549
  377TIP3    H2 1096   1.557   0.800   3.343 -2.1405 -0.2332  0.2557
  378TIP3   OH2 1097   2.583   4.980   3.671 -0.1717 -0.2539  0.1262
  378TIP3    H1 1098   2.629   4.915   3.618 -0.1699  0.2585 -0.5204
  378TIP3    H2 1099   2.509   4.933   3.709 -0.6460 -0.4462 -0.9948
  379TIP3   OH2 1100   2.685   0.416   2.637  0.5360  0.0736 -0.0191
  379TIP3    H1 1101   2.680   0.322   2.657  1.1394  0.1969  0.7976
  379TIP3    H2 1102   2.761   0.446   2.688  0.7722  0.8686 -0.8210
  380TIP3   OH2 1103   6.623   3.629   0.661 -0.0081 -0.3288 -0.4503
  380TIP3    H1 1104   6.544   3.637   0.714 -0.0645  0.7183 -0.6682
  380TIP3    H2 1105   6.594   3.593   0.578 -1.0237  3.6199 -2.0468
  381TIP3   OH2 1106   5.052   6.185   0.620 -0.2792 -0.0441  0.3733
  381TIP3    H1 1107   5.063   6.113   0.681  0.8105  0.1350  0.4011
  381TIP3    H2 1108   5.069   6.264   0.672 -0.9099  0.2084  0.2110
  382TIP3   OH2 1109   1.955   6.406   3.924 -0.5232  0.0842 -0.3157
  382TIP3    H1 1110   1.901   6.463   3.870 -0.7733  0.8094  0.6722
  382TIP3    H2 1111   1.900   6.384   3.999 -0.1593 -0.8519 -0.3009
  383TIP3   OH2 1112   1.066   6.088   2.969  0.0853 -0.1654  0.1356
  383TIP3    H1 1113   1.031   6.162   3.018  1.1253 -1.4978  3.1516
  383TIP3    H2 1114   1.130   6.126   2.909 -1.7841  1.6209 -0.8273
  384TIP3   OH2 1115   0.882   0.885   2.912 -0.5040  0.1237 -0.0821
  384TIP3    H1 1116   0.859   0.893   3.005 -1.6550  0.6722 -0.3904
  384TIP3    H2 1117   0.961   0.832   2.911 -0.7109 -0.2399  1.1894
  385TIP3   OH2 1118   4.093   2.626   4.163  0.2853 -0.9479 -0.0166
  385TIP3    H1 1119   4.052   2.583   4.088 -0.7820  2.0305 -1.2949
  385TIP3    H2 1120   4.161   2.682   4.125 -1.7495  2.3803  0.7352
  386TIP3   OH2 1121   6.681   4.578   3.136 -0.1957 -0.3094 -0.0151
  386TIP3    H1 1122   6.719   4.543   3.217  0.3014  0.0730 -0.0811
  386TIP3    H2 1123   6.597   4.617   3.163  0.4908  0.8345  0.5216
  387TIP3   OH2 1124   0.786   1.303   5.678 -0.0543  0.2462  0.2235
  387TIP3    H1 1125   0.841   1.229   5.653  2.0527  0.9156  2.4048
  387TIP3    H2 1126   0.778   1.355   5.598 -2.2550 -2.5722 -1.5750
  388TIP3   OH2 1127   6.952   6.715   0.423  0.2590 -0.2020 -0.5289
  388TIP3    H1 1128   6.932   6.632   0.380  1.0550 -0.6386 -0.0881
  388TIP3    H2 1129   6.867   6.748   0.453  0.1703 -2.4562  2.1209
  389TIP3   OH2 1130   1.300   3.669   0.470 -0.2709  1.0461  1.0253
  389TIP3    H1 1131   1.356   3.674   0.547  1.2756 -0.9196  0.1235
  389TIP3    H2 1132   1.354   3.706   0.399 -0.1127 -0.6606  0.1879
  390TIP3   OH2 1133   4.464   2.214   4.967  0.0131 -0.3926  0.2102
  390TIP3    H1 1134   4.463   2.152   4.894 -1.7511 -0.4555  0.2468
  390TIP3    H2 1135   4.375   2.210   5.003  0.3572  0.9110  1.2775
  391TIP3   OH2 1136   1.226   0.293   0.994 -0.2411 -0.0451 -0.0425
  391TIP3    H1 1137   1.172   0.256   0.924  0.1575  0.4086 -0.6048
  391TIP3    H2 1138   1.256   0.376   0.959  1.8104 -0.8197 -0.2260
  392TIP3   OH2 1139   0.366   0.813   1.273 -0.0056 -0.5721  0.4295
  392TIP3    H1 1140   0.380   0.872   1.199 -0.5512 -1.1309 -0.1321
  392TIP3    H2 1141   0.272   0.819   1.290  0.2606  0.3488  1.7694
  393TIP3   OH2 1142   6.992   0.767   2.314  0.0668  0.5621 -0.4937
  393TIP3    H1 1143   6.966   0.702   2.379  1.3775  0.5546  0.0526
  393TIP3    H2 1144   7.011   0.846   2.364 -0.9136  1.2047 -1.0941
  394TIP3   OH2 1145   1.249   6.331   3.136  0.8495  0.4368  0.1802
  394TIP3    H1 1146   1.244   6.358   3.227  1.6395  0.5358  0.1962
  394TIP3    H2 1147   1.302   6.398   3.093  1.1889 -0.0530 -0.1770
  395TIP3   OH2 1148   2.002   0.160   1.270  0.0509  0.1616  0.1834
  395TIP3    H1 1149   1.979   0.219   1.341 -0.7983 -0.2658  0.2765
  395TIP3    H2 1150   1.922   0.151   1.219  0.6292  0.3934 -0.7827
  396TIP3   OH2 1151   4.221   1.458   3.615  0.2038 -0.1600 -0.0800
  396TIP3    H1 1152   4.229   1.440   3.521  0.8970  0.3557 -0.1314
  396TIP3    H2 1153   4.237   1.374   3.657 -0.6744 -0.5222 -0.4317
  397TIP3   OH2 1154   4.856   2.538   3.161  0.0142  0.4426  0.0107
  397TIP3    H1 1155   4.931   2.524   3.103  0.2772  1.6919  0.0377
  397TIP3    H2 1156   4.779   2.517   3.107  0.3551 -0.6176 -0.0844
  398TIP3   OH2 1157   1.885   5.649   5.829 -0.9049  0.0797 -0.0451
  398TIP3    H1 1158   1.953   5.581   5.833  0.4181  1.1236 -2.5802
  398TIP3    H2 1159   1.915   5.709   5.761 -3.5322  1.5885  0.0010
  399TIP3   OH2 1160   2.572   3.874   1.435 -0.0337 -0.4761  0.0208
  399TIP3    H1 1161   2.629   3.949   1.419 -0.6282 -0.0411 -0.1081
  399TIP3    H2 1162   2.599   3.809   1.370 -1.3759  0.6885 -1.8001
  400TIP3   OH2 1163   5.910   3.257   3.668  0.2587 -0.7320 -0.1212
  400TIP3    H1 1164   5.825   3.251   3.712 -0.1014 -0.6228 -0.7842
  400TIP3    H2 1165   5.951   3.172   3.681 -0.2537 -1.0194 -0.4041
  401TIP3   OH2 1166   5.379   3.022   5.230  0.1814  0.1261 -0.2842
  401TIP3    H1 1167   5.356   3.114   5.224  3.1184  0.9572 -0.4033
  401TIP3    H2 1168   5.470   3.018   5.199  0.3126 -2.7280  0.1981
  402TIP3   OH2 1169   1.373   2.268   2.136  0.1594  0.5670 -0.3123
  402TIP3    H1 1170   1.317   2.197   2.166  1.5811 -0.3039  0.3901
  402TIP3    H2 1171   1.346   2.283   2.046 -1.3474  0.3493  0.0733
  403TIP3   OH2 1172   4.396   1.030   3.514 -0.2688  0.1656 -0.4299
  403TIP3    H1 1173   4.398   1.112   3.563 -2.5423  0.4379 -0.6813
  403TIP3    H2 1174   4.423   1.054   3.425 -3.4307  1.2703 -1.2010
  404TIP3   OH2 1175   1.388   6.433   5.857  0.6907 -0.4208 -0.2734
  404TIP3    H1 1176   1.378   6.492   5.783  0.4488 -1.4863 -1.1160
  404TIP3    H2 1177   1.441   6.482   5.920 -1.1188  1.4392 -0.0831
  405TIP3   OH2 1178   4.236   4.133   3.322 -0.2085 -0.3214 -0.4620
  405TIP3    H1 1179   4.204   4.188   3.394 -0.6376  0.7995 -1.4779
  405TIP3    H2 1180   4.176   4.152   3.249  0.8935 -0.5788 -1.4611
  406TIP3   OH2 1181   2.290   4.183   4.176  0.4130  0.0251  0.0112
  406TIP3    H1 1182   2.285   4.266   4.222 -0.0989 -0.2422  0.4504
  406TIP3    H2 1183   2.274   4.117   4.243 -1.1657 -0.3358 -0.6772
  407TIP3   OH2 1184   2.741   2.791   5.382 -0.5158 -0.3904  0.0038
  407TIP3    H1 1185   2.751   2.804   5.288 -2.2337 -0.9819 -0.2925
  407TIP3    H2 1186   2.681   2.861   5.410 -0.3801 -0.4932  0.5732
  408TIP3   OH2 1187   2.610   0.062   3.721  0.0439 -0.1636 -0.5651
  408TIP3    H1 1188   2.616  -0.033   3.706  0.7432 -0.2885  0.4206
  408TIP3    H2 1189   2.686   0.098   3.674  0.4393 -0.2217  0.0212
  409TIP3   OH2 1190   6.826   2.490   5.003  0.0440  0.1479 -0.2249
  409TIP3    H1 1191   6.772   2.494   5.082 -1.4336 -0.0073 -1.1988
  409TIP3    H2 1192   6.860   2.579   4.992  1.7415 -0.2022  1.5298
  410TIP3   OH2 1193   1.842   4.458   1.765  0.5059 -0.1103 -0.1765
  410TIP3    H1 1194   1.843   4.396   1.838  2.0000  0.0500 -0.0226
  410TIP3    H2 1195   1.935   4.474   1.747  0.1562  1.7502 -0.4904
  411TIP3   OH2 1196   1.908   5.620   0.420  0.9418  0.4057 -0.0098
  411TIP3    H1 1197   1.938   5.700   0.463  2.4889  0.5592 -1.2590
  411TIP3    H2 1198   1.927   5.634   0.327 -1.7734 -0.1256 -0.7415
  412TIP3   OH2 1199   0.906   5.963   5.446 -0.0664 -0.0446  0.1492
  412TIP3    H1 1200   0.999   5.942   5.436 -0.1967 -0.4822 -0.1888
  412TIP3    H2 1201   0.873   5.972   5.356 -0.2277  0.6787  0.2771
  413TIP3   OH2 1202   6.966   3.389   3.051  0.1282  0.2984  0.4423
  413TIP3    H1 1203   6.928   3.459   2.998  0.9941  0.9216  0.6112
  413TIP3    H2 1204   7.060   3.395   3.034  0.2511 -0.5721  0.7695
  414TIP3   OH2 1205   1.815   4.435   0.338 -0.4887 -0.1897  0.3085
  414TIP3    H1 1206   1.847   4.384   0.413  0.6762 -0.7050 -0.5071
  414TIP3    H2 1207   1.803   4.524   0.373  2.0200  0.0825  0.6639
  415TIP3   OH2 1208   1.821   5.908   4.221 -0.1143 -0.4523 -0.3397
  415TIP3    H1 1209   1.865   5.845   4.165 -2.1214 -1.0669 -1.3332
  415TIP3    H2 1210   1.828   5.991   4.175  0.6725 -0.3692 -0.0847
  416TIP3   OH2 1211   0.002   0.531   0.259 -0.1952  0.4318 -0.2636
  416TIP3    H1 1212   0.055   0.459   0.227  0.2245  0.6575 -0.0802
  416TIP3    H2 1213   0.028   0.607   0.206  1.3190  1.0755  1.3009
  417TIP3   OH2 1214   1.242   4.983   2.047  0.1656  0.4498  0.3797
  417TIP3    H1 1215   1.150   4.989   2.071 -0.1276 -0.1800 -0.5436
  417TIP3    H2 1216   1.243   4.994   1.952  0.9316 -0.5631  0.2560
  418TIP3   OH2 1217   1.788   2.115   5.362  0.5317  0.3463  0.0203
  418TIP3    H1 1218   1.879   2.141   5.377 -0.2780  1.8784  3.1065
  418TIP3    H2 1219   1.764   2.064   5.439 -1.4423  0.6589 -0.3315
  419TIP3   OH2 1220   6.476   1.612   3.159  0.3833 -0.1993 -0.4639
  419TIP3    H1 1221   6.546   1.546   3.166  1.9418  1.3736 -0.5189
  419TIP3    H2 1222   6.483   1.663   3.240 -0.2588  0.4055 -0.7790
  420TIP3   OH2 1223   6.406   3.007   0.979 -0.1905  0.5052  0.4057
  420TIP3    H1 1224   6.399   2.925   0.929 -1.9660  0.7888  0.1247
  420TIP3    H2 1225   6.351   3.068   0.931 -0.6452  1.2492  1.8279
  421TIP3   OH2 1226   6.330   4.168   3.860  0.3052  0.0382  0.4888
  421TIP3    H1 1227   6.335   4.228   3.935  1.1850 -0.1227  0.5642
  421TIP3    H2 1228   6.366   4.217   3.787 -0.0757  0.0120  0.2792
  422TIP3   OH2 1229   1.846   2.091   0.837  0.1718  0.1139 -0.3714
  422TIP3    H1 1230   1.814   2.077   0.926 -0.3790  0.6965 -0.4756
  422TIP3    H2 1231   1.942   2.097   0.846  0.2536 -1.2858 -0.0156
  423TIP3   OH2 1232   2.673   4.215   3.638  0.1780 -0.3619 -0.2852
  423TIP3    H1 1233   2.696   4.296   3.592 -0.5611  0.2708  0.4268
  423TIP3    H2 1234   2.671   4.148   3.570  0.1447  0.3453 -0.9922
  424TIP3   OH2 1235   2.756   2.846   4.519  0.0353  0.3101  0.0838
  424TIP3    H1 1236   2.844   2.872   4.546  0.0994  1.0516 -0.7717
  424TIP3    H2 1237   2.699   2.914   4.554 -0.0568  0.4484 -0.3307
  425TIP3   OH2 1238   0.290   1.900   0.168 -0.1419  0.5749 -0.3379
  425TIP3    H1 1239   0.226   1.910   0.097  0.0205 -0.4077 -0.6398
  425TIP3    H2 1240   0.290   1.806   0.187  0.0336  0.7842  0.7735
  426TIP3   OH2 1241   5.362   0.874   3.080 -0.2248 -0.5564 -0.4114
  426TIP3    H1 1242   5.361   0.903   2.989  0.0274 -0.6583 -0.4488
  426TIP3    H2 1243   5.384   0.952   3.130  2.4745 -1.0513 -0.6732
  427TIP3   OH2 1244   6.336   3.162   1.588 -0.5425  0.2542 -0.5943
  427TIP3    H1 1245   6.261   3.207   1.627 -0.6153  0.2322 -0.7079
  427TIP3    H2 1246   6.335   3.189   1.496 -0.2755  0.4351 -0.5464
  428TIP3   OH2 1247   0.848   0.850   0.927  0.0228  0.2532  0.0913
  428TIP3    H1 1248   0.756   0.833   0.948 -0.0467  1.2593  0.7079
  428TIP3    H2 1249   0.897   0.783   0.974 -0.3522  0.2714  0.5157
  429TIP3   OH2 1250   6.417   2.507   3.739 -0.9174 -0.7389 -0.1657
  429TIP3    H1 1251   6.512   2.511   3.748 -0.9875 -1.7237  1.5540
  429TIP3    H2 1252   6.391   2.595   3.712  0.4133 -0.2530  0.0753
  430TIP3   OH2 1253   7.129   5.264   5.365  0.2531  0.0347 -0.2317
  430TIP3    H1 1254   7.049   5.292   5.409  0.3470  0.2336 -0.1858
  430TIP3    H2 1255   7.099   5.219   5.286  0.1127  0.6417 -0.5214
  431TIP3   OH2 1256   1.318   2.800   4.130 -0.0021  0.3300 -0.4567
  431TIP3    H1 1257   1.234   2.759   4.111 -0.0263 -0.0121  0.3374
  431TIP3    H2 1258   1.335   2.857   4.055 -0.5437 -0.2291 -1.0094
  432TIP3   OH2 1259   2.400   3.763   0.785 -0.4317  0.5802  0.1778
  432TIP3    H1 1260   2.342   3.689   0.803  0.9367 -0.5806 -0.0391
  432TIP3    H2 1261   2.443   3.740   0.703  1.0446  0.9435  0.8233
  433TIP3   OH2 1262   1.069   1.743   4.291 -0.0708 -0.4029  0.1369
  433TIP3    H1 1263   1.083   1.673   4.228 -0.4492  0.8014 -1.3355
  433TIP3    H2 1264   1.157   1.772   4.316  0.1055  0.5274 -1.4828
  434TIP3   OH2 1265   6.245   4.258   4.650 -0.3030  0.4934  0.4485
  434TIP3    H1 1266   6.230   4.288   4.561 -2.2665  2.1616  1.2598
  434TIP3    H2 1267   6.288   4.332   4.693  0.0012 -0.0280  1.0524
  435TIP3   OH2 1268   0.519   3.984   3.161 -0.8512  0.0134 -0.2185
  435TIP3    H1 1269   0.572   4.019   3.090 -0.5254  0.0688  0.0510
  435TIP3    H2 1270   0.449   4.048   3.172  0.4945  1.3115  1.1812
  436TIP3   OH2 1271   6.469   0.453   1.317  0.2387  0.2380  0.7629
  436TIP3    H1 1272   6.469   0.481   1.225  0.2607  0.0573  0.7083
  436TIP3    H2 1273   6.445   0.361   1.314  0.8364  0.0734  0.8940
  437TIP3   OH2 1274   2.289   1.989   5.074  0.2307 -0.2993 -0.0922
  437TIP3    H1 1275   2.224   2.009   5.006  0.5826  0.6143 -0.1757
  437TIP3    H2 1276   2.255   1.911   5.118 -0.3402 -0.5042 -0.8805
  438TIP3   OH2 1277   1.462   0.706   3.073 -0.9451  0.1754 -0.3674
  438TIP3    H1 1278   1.549   0.687   3.039 -0.7211 -0.8514  0.7024
  438TIP3    H2 1279   1.403   0.652   3.021 -0.3092 -3.9832  2.7252
  439TIP3   OH2 1280   6.908   0.536   2.788  0.2529 -0.2306 -0.2185
  439TIP3    H1 1281   6.879   0.447   2.804 -0.3543  0.1084  0.6053
  439TIP3    H2 1282   6.973   0.553   2.857 -1.6372  0.8876  1.3635
  440TIP3   OH2 1283   1.581   3.128   4.027  0.2209  0.4715 -0.3982
  440TIP3    H1 1284   1.581   3.208   4.079 -1.2446  0.7506 -0.7630
  440TIP3    H2 1285   1.556   3.059   4.089 -0.8449  0.6931 -0.5651
  441TIP3   OH2 1286   5.822   5.223   1.735  0.1802 -0.1206  0.0089
  441TIP3    H1 1287   5.910   5.259   1.744  0.2877 -0.3298 -0.1909
  441TIP3    H2 1288   5.835   5.129   1.718 -0.1463 -0.6077  2.2088
  442TIP3   OH2 1289   1.115   5.078   3.681 -0.0449 -0.7084 -0.7442
  442TIP3    H1 1290   1.134   5.150   3.620 -0.1878  0.1828  0.2384
  442TIP3    H2 1291   1.184   5.083   3.746  0.2714 -1.8416 -0.9655
  443TIP3   OH2 1292   1.370   6.347   3.396 -0.1586  0.0212  0.2558
  443TIP3    H1 1293   1.380   6.434   3.436 -0.3361  0.3749 -0.4466
  443TIP3    H2 1294   1.457   6.309   3.400 -0.0241  0.3306  0.3493
  444TIP3   OH2 1295   1.321   1.048   2.364 -0.7469 -0.2238 -0.2422
  444TIP3    H1 1296   1.409   1.012   2.374 -0.2023  0.9120 -0.7356
  444TIP3    H2 1297   1.267   0.972   2.340  0.0205 -0.9942  0.4042
  445TIP3   OH2 1298   0.693   4.132   5.509 -0.0826  0.5961 -0.2548
  445TIP3    H1 1299   0.779   4.094   5.493 -0.6367 -1.6964  1.6513
  445TIP3    H2 1300   0.675   4.184   5.431  1.7234 -1.3427 -2.0942
  446TIP3   OH2 1301   3.818   1.145   3.944 -0.3198  0.0728  0.1228
  446TIP3    H1 1302   3.909   1.119   3.958 -0.2510 -1.3851 -2.4900
  446TIP3    H2 1303   3.821   1.199   3.865 -1.6635  0.3979  0.2826
  447TIP3   OH2 1304   6.204   0.523   0.848  0.5471 -0.5384  0.0295
  447TIP3    H1 1305   6.112   0.538   0.824  0.6646  2.6567  1.0431
  447TIP3    H2 1306   6.253   0.559   0.774  0.9564 -0.4429  0.3437
  448TIP3   OH2 1307   3.880   4.439   0.363 -0.0406  0.2900 -0.2396
  448TIP3    H1 1308   3.941   4.501   0.324  0.9372  0.3404  1.2874
  448TIP3    H2 1309   3.806   4.436   0.302  2.3258 -1.3736 -3.3055
  449TIP3   OH2 1310   1.822   1.683   5.015 -0.2169  0.0971 -0.7247
  449TIP3    H1 1311   1.753   1.652   4.956  0.3802 -2.3358 -0.2805
  449TIP3    H2 1312   1.785   1.760   5.058 -2.5597 -0.9452 -0.7199
  450TIP3   OH2 1313   7.021   6.740   3.509  0.1423 -0.1377  0.1806
  450TIP3    H1 1314   7.112   6.713   3.492  0.5048 -0.4829  2.4513
  450TIP3    H2 1315   6.970   6.662   3.488  0.3011  0.1233 -1.3224
  451TIP3   OH2 1316   3.773   2.416   4.442 -0.2510  0.1343 -0.0050
  451TIP3    H1 1317   3.834   2.343   4.460 -1.2753 -0.5194  0.9151
  451TIP3    H2 1318   3.781   2.430   4.348  0.8025 -0.4179 -0.0167
  452TIP3   OH2 1319   3.460   5.076   3.545  0.0708  0.0844 -0.4955
  452TIP3    H1 1320   3.500   5.162   3.558 -0.0525  0.5187 -2.5798
  452TIP3    H2 1321   3.370   5.095   3.519 -0.4614 -0.7640  0.6415
  453TIP3   OH2 1322   5.414   4.529   3.106 -0.4534 -0.1544  0.2815
  453TIP3    H1 1323   5.448   4.457   3.052 -0.8100  0.4742 -0.8072
  453TIP3    H2 1324   5.479   4.539   3.176  0.0959 -0.8962 -0.1115
  454TIP3   OH2 1325   2.327   4.909   0.867 -0.2849 -0.2654 -0.3088
  454TIP3    H1 1326   2.339   4.815   0.882  0.0265  0.0127  1.4266
  454TIP3    H2 1327   2.232   4.920   0.859 -0.4780 -0.5198  1.3222
  455TIP3   OH2 1328   4.461   6.681   1.175  0.3305  0.5256 -0.6950
  455TIP3    H1 1329   4.539   6.729   1.151 -0.1574  1.4438 -0.4931
  455TIP3    H2 1330   4.492   6.613   1.235  1.3553 -0.9381 -2.7869
  456TIP3   OH2 1331   2.406   0.107   2.684  0.5826 -0.1314 -0.3934
  456TIP3    H1 1332   2.486   0.157   2.670  0.2557  0.4960 -0.0481
  456TIP3    H2 1333   2.336   0.164   2.653 -0.0447  0.7012  2.2763
  457TIP3   OH2 1334   3.510   3.165   5.166 -0.2663  0.2930  0.0604
  457TIP3    H1 1335   3.516   3.258   5.143 -0.0855  0.7543  1.8124
  457TIP3    H2 1336   3.588   3.149   5.219 -1.2767 -0.3154  1.4394
  458TIP3   OH2 1337   5.401   4.083   2.302  0.0148 -0.0963 -0.3252
  458TIP3    H1 1338   5.494   4.104   2.292 -0.1999  0.2758 -1.6427
  458TIP3    H2 1339   5.355   4.166   2.288 -0.5564 -0.3901 -0.2474
  459TIP3   OH2 1340   3.357   2.639   3.878  0.9989 -0.7053 -0.7258
  459TIP3    H1 1341   3.277   2.668   3.922  1.8781 -0.0808  0.5162
  459TIP3    H2 1342   3.405   2.592   3.945  0.8136 -2.8432 -1.9904
  460TIP3   OH2 1343   5.203   0.800   5.634 -0.1769 -0.2246 -1.0134
  460TIP3    H1 1344   5.297   0.785   5.630 -0.0471  0.0190  0.4612
  460TIP3    H2 1345   5.190   0.885   5.591  0.1304 -0.7152 -2.0961
  461TIP3   OH2 1346   5.541   4.032   3.124 -0.2313 -0.4604  0.5430
  461TIP3    H1 1347   5.552   3.959   3.184 -0.8860 -0.6375  0.4604
  461TIP3    H2 1348   5.549   4.110   3.179 -1.1486 -0.6239  0.9337
  462TIP3   OH2 1349   6.328   2.877   0.427 -0.1730  0.3969 -0.4613
  462TIP3    H1 1350   6.399   2.915   0.376  0.1574  1.8225  0.9565
  462TIP3    H2 1351   6.314   2.791   0.389  0.9326  0.8845 -2.0713
  463TIP3   OH2 1352   5.610   3.765   5.123 -0.4447 -0.4514 -0.1198
  463TIP3    H1 1353   5.697   3.764   5.164  1.4553  2.8847 -3.4392
  463TIP3    H2 1354   5.563   3.834   5.170 -0.4619 -0.6882  0.2138
  464TIP3   OH2 1355   5.656   6.602   1.174  0.1606  0.0308  0.3095
  464TIP3    H1 1356   5.668   6.551   1.254  0.1354 -2.0259 -0.9315
  464TIP3    H2 1357   5.585   6.558   1.127  1.2857  0.1367 -1.6180
  465TIP3   OH2 1358   4.672   2.787   1.887  0.5555 -0.0814  0.3469
  465TIP3    H1 1359   4.762   2.754   1.881  0.5316 -0.5969  2.2976
  465TIP3    H2 1360   4.617   2.709   1.871  0.4884 -0.3435  1.7535
  466TIP3   OH2 1361   1.745   2.632   1.101 -0.2434  0.6811  0.0032
  466TIP3    H1 1362   1.694   2.605   1.177 -1.3887  1.0297 -0.6197
  466TIP3    H2 1363   1.805   2.560   1.085 -1.0433 -0.0666  0.3128
  467TIP3   OH2 1364   2.142   6.203   0.250  0.1433  0.4027 -0.3716
  467TIP3    H1 1365   2.145   6.267   0.321 -0.3471 -0.9796  0.9391
  467TIP3    H2 1366   2.200   6.133   0.278 -0.9766 -0.7150 -0.7563
  468TIP3   OH2 1367   0.143   3.234   2.752 -0.2620  0.7487 -0.5046
  468TIP3    H1 1368   0.139   3.329   2.743 -0.4336  0.9619  1.3695
  468TIP3    H2 1369   0.203   3.206   2.684 -0.8533  2.1002 -1.6313
  469TIP3   OH2 1370   5.493   0.926   1.311  0.0962 -0.3868  0.3880
  469TIP3    H1 1371   5.516   0.897   1.400 -0.0253 -1.7566  0.0030
  469TIP3    H2 1372   5.577   0.938   1.267  0.1740  0.9504  0.8669
  470TIP3   OH2 1373   6.869   0.448   0.230  0.7057 -0.1539 -0.0815
  470TIP3    H1 1374   6.946   0.395   0.207  2.0396  0.9282  1.6292
  470TIP3    H2 1375   6.876   0.460   0.325 -0.6489  1.3900 -0.1408
  471TIP3   OH2 1376   2.714   3.793   0.195 -0.2043 -0.6605 -0.1704
  471TIP3    H1 1377   2.807   3.805   0.175  0.1163 -0.4945  1.2835
  471TIP3    H2 1378   2.705   3.822   0.286 -1.9761  0.7305 -0.7315
  472TIP3   OH2 1379   5.198   5.536   1.367 -0.6336  0.0342  0.9176
  472TIP3    H1 1380   5.224   5.445   1.381  3.3518  0.6171 -1.2151
  472TIP3    H2 1381   5.241   5.584   1.437 -0.7930  0.5265  0.6834
  473TIP3   OH2 1382   0.247   4.055   2.289 -0.5766  0.0109  0.0221
  473TIP3    H1 1383   0.197   4.076   2.210  0.1523  0.8425 -0.2329
  473TIP3    H2 1384   0.330   4.020   2.256  0.5921  2.3069  0.3471
  474TIP3   OH2 1385   6.642   0.971   2.226  0.1749 -0.1741  0.0748
  474TIP3    H1 1386   6.680   1.012   2.148 -0.9928  0.5870 -0.1044
  474TIP3    H2 1387   6.626   0.880   2.199  0.9884 -0.2658 -0.1385
  475TIP3   OH2 1388   3.149   6.615   5.546  0.0334  0.0664  0.0421
  475TIP3    H1 1389   3.090   6.555   5.501 -0.3658  1.0752 -0.8132
  475TIP3    H2 1390   3.095   6.657   5.613  0.0013  0.3740 -0.1781
  476TIP3   OH2 1391   0.972   6.110   3.767 -1.3783 -1.1153 -0.9940
  476TIP3    H1 1392   0.972   6.020   3.800 -2.7713 -0.4415  0.9899
  476TIP3    H2 1393   1.062   6.125   3.738 -0.7273 -2.6289  0.1300
  477TIP3   OH2 1394   0.334   3.568   3.949  0.8418 -0.3386  0.1207
  477TIP3    H1 1395   0.285   3.650   3.952 -1.9390 -1.8857  0.0711
  477TIP3    H2 1396   0.353   3.555   3.856 -0.0194 -0.4567 -0.0428
  478TIP3   OH2 1397   4.589   1.895   2.908 -0.3652 -0.1313  0.6333
  478TIP3    H1 1398   4.514   1.943   2.943 -0.0448  0.3129  0.7176
  478TIP3    H2 1399   4.564   1.872   2.819 -0.6788 -0.1529  0.7274
  479TIP3   OH2 1400   2.293   3.243   0.818 -0.0550 -0.5101  0.2765
  479TIP3    H1 1401   2.258   3.169   0.867 -3.0174 -0.4590 -1.5506
  479TIP3    H2 1402   2.311   3.208   0.731  2.4324  0.0520  0.4914
  480TIP3   OH2 1403   2.241   1.783   3.735 -0.1448  0.0658 -0.5442
  480TIP3    H1 1404   2.177   1.827   3.679 -0.6522  0.9268  0.6512
  480TIP3    H2 1405   2.317   1.841   3.734 -0.1436  0.0683 -0.3902
  481TIP3   OH2 1406   5.015   2.558   5.060 -0.1727  0.3079 -0.6444
  481TIP3    H1 1407   5.039   2.620   4.992 -0.8549  2.0184  0.5795
  481TIP3    H2 1408   4.929   2.525   5.034 -1.0576  1.9766 -0.0282
  482TIP3   OH2 1409   3.466   4.468   4.007  0.0042  0.1654 -0.7574
  482TIP3    H1 1410   3.470   4.556   4.044  0.7965  0.6717 -1.9814
  482TIP3    H2 1411   3.386   4.430   4.043  0.3983  0.8514  0.9241
  483TIP3   OH2 1412   5.287   6.712   1.206  0.3565  0.2208 -0.7327
  483TIP3    H1 1413   5.352   6.665   1.155  0.6201 -1.7320  1.2327
  483TIP3    H2 1414   5.223   6.743   1.142  2.5873  1.2437 -2.5970
  484TIP3   OH2 1415   3.359   2.113   5.165 -0.7106  0.3923  0.0860
  484TIP3    H1 1416   3.419   2.186   5.148 -0.4649  0.5077  1.3356
  484TIP3    H2 1417   3.275   2.154   5.181 -0.4581  0.4762  1.3351
  485TIP3   OH2 1418   0.524   2.428   0.534  0.1674 -0.4291  0.3201
  485TIP3    H1 1419   0.614   2.457   0.524 -0.5794  1.2589 -3.2019
  485TIP3    H2 1420   0.484   2.494   0.590  0.8128 -0.5088  0.8881
  486TIP3   OH2 1421   0.770   0.822   2.368  0.1500  0.4100  0.0880
  486TIP3    H1 1422   0.676   0.804   2.378  0.0483  0.8482 -0.0156
  486TIP3    H2 1423   0.780   0.912   2.399  0.5300  0.3810  0.0523
  487TIP3   OH2 1424   1.691   3.390   1.402 -0.5392  0.5414  0.5679
  487TIP3    H1 1425   1.743   3.470   1.403 -1.4062  1.1803 -1.1271
  487TIP3    H2 1426   1.600   3.420   1.395 -1.0168 -0.5752  1.6241
  488TIP3   OH2 1427   4.299   4.519   1.498  0.2728  0.3776  0.4781
  488TIP3    H1 1428   4.270   4.559   1.416 -2.9951 -1.6991  0.4407
  488TIP3    H2 1429   4.350   4.443   1.472 -0.6748 -0.2215  0.3413
  489TIP3   OH2 1430   7.124   4.589   0.599 -0.1310 -0.1237 -0.3341
  489TIP3    H1 1431   7.103   4.496   0.593  0.1933 -0.3805  1.7922
  489TIP3    H2 1432   7.138   4.605   0.692 -1.6062  2.3767 -0.4428
  490TIP3   OH2 1433   1.632   0.407   3.618 -0.0229  0.2024 -0.3304
  490TIP3    H1 1434   1.540   0.402   3.643 -0.5833 -0.4695 -2.4081
  490TIP3    H2 1435   1.665   0.317   3.628 -0.2105 -0.0385 -1.7911
  491TIP3   OH2 1436   6.315   4.368   1.128 -0.4876  0.4914  0.0235
  491TIP3    H1 1437   6.269   4.286   1.110 -0.8582  0.5217  0.8106
  491TIP3    H2 1438   6.354   4.356   1.214  0.3088  0.7760 -0.2827
  492TIP3   OH2 1439   1.424   2.580   0.292  0.5880  0.0418 -0.5606
  492TIP3    H1 1440   1.445   2.590   0.385 -0.0399 -1.6738 -0.1872
  492TIP3    H2 1441   1.420   2.485   0.279 -1.8014  0.2317 -1.7417
  493TIP3   OH2 1442   2.642   0.496   1.378  0.1356  0.0235 -0.0340
  493TIP3    H1 1443   2.670   0.517   1.289  0.7917 -1.0922 -0.1027
  493TIP3    H2 1444   2.614   0.405   1.374 -1.6419  0.5159  0.4976
  494TIP3   OH2 1445   4.606   2.484   2.925  0.4864  0.0976 -0.4449
  494TIP3    H1 1446   4.618   2.389   2.933  0.5060  0.1552  0.3811
  494TIP3    H2 1447   4.562   2.509   3.007  0.8429  0.8534 -0.4746
  495TIP3   OH2 1448   2.681   6.077   5.794  0.5577 -0.5515 -0.0498
  495TIP3    H1 1449   2.667   6.069   5.889 -1.4514  0.9347 -0.1523
  495TIP3    H2 1450   2.760   6.131   5.786 -0.1862  0.7193  0.8402
  496TIP3   OH2 1451   3.920   3.620   0.723  0.0692  0.7128  0.3624
  496TIP3    H1 1452   3.996   3.665   0.688  0.3463 -1.8179 -2.8030
  496TIP3    H2 1453   3.850   3.640   0.662 -0.1870 -1.6964 -0.2278
  497TIP3   OH2 1454   5.579   3.341   4.246  0.0717 -0.8586  0.1854
  497TIP3    H1 1455   5.558   3.268   4.305 -0.5880  0.1735  1.2660
  497TIP3    H2 1456   5.648   3.390   4.292 -0.4870 -0.0142  0.1389
  498TIP3   OH2 1457   5.698   5.190   5.356 -0.5593  0.5265 -0.3793
  498TIP3    H1 1458   5.623   5.199   5.415 -1.2078 -2.2796 -0.6164
  498TIP3    H2 1459   5.664   5.141   5.281  1.0113  1.1583 -1.5522
  499TIP3   OH2 1460   7.169   5.449   1.344  0.0726 -0.5062 -0.1708
  499TIP3    H1 1461   7.122   5.379   1.299  2.1232 -1.0272 -1.6206
  499TIP3    H2 1462   7.221   5.491   1.276  1.1505  0.5114  1.2136
  500TIP3   OH2 1463   0.547   2.966   4.515  0.6860  0.7847  0.9329
  500TIP3    H1 1464   0.515   2.882   4.548  1.3620 -0.1817 -0.7173
  500TIP3    H2 1465   0.488   3.031   4.552 -1.1913 -0.6149  0.5222
  501TIP3   OH2 1466   4.734   5.074   2.187 -0.2597 -0.1367  0.5637
  501TIP3    H1 1467   4.692   5.091   2.271  1.5689 -0.3049  1.5534
  501TIP3    H2 1468   4.746   4.979   2.185 -1.8482 -0.3631 -0.7060
  502TIP3   OH2 1469   4.440   3.235   1.233 -0.3262  0.1801  0.4382
  502TIP3    H1 1470   4.440   3.153   1.281 -1.3072 -0.0426  0.0660
  502TIP3    H2 1471   4.452   3.302   1.300 -0.3971 -0.2100  0.8420
  503TIP3   OH2 1472   5.515   6.533   4.213 -0.0830 -0.3167 -0.9874
  503TIP3    H1 1473   5.490   6.623   4.232 -1.1727 -0.5527 -1.2124
  503TIP3    H2 1474   5.510   6.526   4.117 -1.0564 -0.8815 -0.9166
  504TIP3   OH2 1475   5.696   2.753   5.239  0.1529 -0.1983 -0.1194
  504TIP3    H1 1476   5.631   2.798   5.294 -0.3569  1.2783 -1.8366
  504TIP3    H2 1477   5.664   2.663   5.233 -0.8577  0.1137  0.3590
  505TIP3   OH2 1478   0.277   3.534   2.253  0.2791 -0.3506 -0.2114
  505TIP3    H1 1479   0.211   3.568   2.191  2.4870  2.2003 -1.4086
  505TIP3    H2 1480   0.258   3.579   2.335  0.1592 -0.0572 -0.3959
  506TIP3   OH2 1481   1.392   1.553   4.493 -0.0082  0.2335 -0.1978
  506TIP3    H1 1482   1.485   1.571   4.501  0.0333 -0.0429 -0.0419
  506TIP3    H2 1483   1.386   1.484   4.426 -0.0856  0.1044 -0.0574
  507TIP3   OH2 1484   2.174   4.819   1.453  0.4168 -0.1984 -0.7989
  507TIP3    H1 1485   2.219   4.857   1.378  1.1474  0.9523  0.1897
  507TIP3    H2 1486   2.221   4.737   1.470 -0.2417 -0.8684 -2.0401
  508TIP3   OH2 1487   2.653   4.720   5.624  0.2745 -0.0660 -0.5026
  508TIP3    H1 1488   2.694   4.801   5.654  1.5749 -0.9387  0.1495
  508TIP3    H2 1489   2.712   4.685   5.558  0.4669 -1.1861  0.2297
  509TIP3   OH2 1490   6.638   4.194   3.389 -0.0459 -0.5394  0.2504
  509TIP3    H1 1491   6.644   4.188   3.485 -1.2344 -1.9294  0.2722
  509TIP3    H2 1492   6.557   4.148   3.367 -0.0022  0.1059 -1.4101
  510TIP3   OH2 1493   1.526   2.882   2.745 -0.1595  0.8329  0.3450
  510TIP3    H1 1494   1.613   2.845   2.762 -1.6300 -2.3986  1.5138
  510TIP3    H2 1495   1.543   2.954   2.684  3.1910 -0.6579 -0.7330
  511TIP3   OH2 1496   4.156   6.627   4.699 -0.3224  0.0307  0.0867
  511TIP3    H1 1497   4.140   6.709   4.653  0.0384  0.0669  0.0183
  511TIP3    H2 1498   4.115   6.639   4.785  1.1585  0.9496  0.7144
  512TIP3   OH2 1499   2.441   5.156   5.166  0.0390 -0.2964 -0.3048
  512TIP3    H1 1500   2.493   5.130   5.242 -1.2374 -1.5963  0.1819
  512TIP3    H2 1501   2.505   5.177   5.098  1.2031  0.7282  1.0716
  513TIP3   OH2 1502   6.126   6.093   3.956 -0.1172 -0.0699 -0.1135
  513TIP3    H1 1503   6.195   6.072   4.019  0.0622 -1.1080 -0.6334
  513TIP3    H2 1504   6.158   6.171   3.911  0.1940  0.1165  0.4205
  514TIP3   OH2 1505   2.239   0.080   2.932 -0.4316  0.4895  0.1693
  514TIP3    H1 1506   2.279   0.136   2.999 -2.2949  2.0330  0.0897
  514TIP3    H2 1507   2.305   0.075   2.862  0.4929  1.0801  0.9770
  515TIP3   OH2 1508   0.881   0.315   1.704 -0.0352 -0.4439  0.3081
  515TIP3    H1 1509   0.863   0.266   1.624 -0.2711 -0.0664  0.1276
  515TIP3    H2 1510   0.933   0.255   1.758 -0.0910 -0.7905 -0.0214
  516TIP3   OH2 1511   6.858   6.693   2.428  0.3457 -0.1961  0.4947
  516TIP3    H1 1512   6.845   6.647   2.511  1.2503 -1.2466  0.0732
  516TIP3    H2 1513   6.770   6.702   2.392 -0.1657  1.0197  1.9233
  517TIP3   OH2 1514   4.135   4.188   3.080  0.2744 -0.0125 -0.3318
  517TIP3    H1 1515   4.058   4.226   3.037  1.3025  0.7013 -1.5989
  517TIP3    H2 1516   4.176   4.133   3.013 -0.1081 -1.9000  0.8849
  518TIP3   OH2 1517   0.513   0.238   4.294  0.0595  0.4602  0.4077
  518TIP3    H1 1518   0.439   0.295   4.274  0.0298 -0.2828 -1.8565
  518TIP3    H2 1519   0.579   0.260   4.229  0.0542 -1.9821 -0.5460
  519TIP3   OH2 1520   2.311   2.869   0.413  0.3090  0.5338  0.5100
  519TIP3    H1 1521   2.327   2.879   0.507  0.8511 -0.8074  0.5850
  519TIP3    H2 1522   2.221   2.899   0.401  0.2247  0.6925  1.4618
  520TIP3   OH2 1523   0.906   4.008   2.037  0.1120 -0.3088 -0.2772
  520TIP3    H1 1524   0.856   4.036   2.114 -0.6817  0.3255 -1.0060
  520TIP3    H2 1525   0.850   4.031   1.962  0.5507 -1.5619 -1.0188
  521TIP3   OH2 1526   2.353   4.459   3.659 -0.2606  0.2447  0.4023
  521TIP3    H1 1527   2.259   4.471   3.647 -0.3310 -0.4430  0.2271
  521TIP3    H2 1528   2.390   4.476   3.573 -0.3542 -0.7150  0.1689
  522TIP3   OH2 1529   2.848   1.551   0.482 -0.1034 -0.2827 -0.1648
  522TIP3    H1 1530   2.858   1.547   0.387  0.7883  0.7899 -0.1421
  522TIP3    H2 1531   2.922   1.605   0.512 -0.0557 -1.0285  1.1926
  523TIP3   OH2 1532   4.809   2.356   0.446 -0.5731 -0.3796 -0.0314
  523TIP3    H1 1533   4.716   2.364   0.467 -1.2258 -0.5865 -2.5473
  523TIP3    H2 1534   4.844   2.443   0.460 -1.2488 -0.1681  0.4155
  524TIP3   OH2 1535   4.293   0.700   3.548 -0.6083 -0.0723 -0.0098
  524TIP3    H1 1536   4.238   0.778   3.548  0.8642  1.0747 -2.5714
  524TIP3    H2 1537   4.380   0.732   3.569  0.2302 -0.7538 -2.1684
  525TIP3   OH2 1538   4.239   1.415   3.988  0.2404  0.5542  0.0236
  525TIP3    H1 1539   4.255   1.509   3.981 -1.2099  0.8111 -0.1903
  525TIP3    H2 1540   4.207   1.402   4.077 -1.1175  0.5416 -0.4440
  526TIP3   OH2 1541   5.678   0.434   5.370 -0.4238 -0.0794 -0.2690
  526TIP3    H1 1542   5.620   0.437   5.446 -0.9386  0.8415 -0.6716
  526TIP3    H2 1543   5.667   0.347   5.333  0.0582 -0.6362  0.8769
  527TIP3   OH2 1544   2.072   0.837   4.683 -0.1358  0.0304  0.1360
  527TIP3    H1 1545   2.158   0.835   4.641 -0.0564  0.3512  0.2824
  527TIP3    H2 1546   2.042   0.927   4.673  0.0773  0.2321  1.1364
  528TIP3   OH2 1547   4.232   5.323   4.472  0.9423 -0.3699 -0.3022
  528TIP3    H1 1548   4.146   5.331   4.430  0.1669  0.4137  1.3322
  528TIP3    H2 1549   4.295   5.327   4.399 -0.3552  0.0354 -1.4494
  529TIP3   OH2 1550   3.823   2.674   1.658 -0.2346 -0.4618 -0.2105
  529TIP3    H1 1551   3.794   2.752   1.705 -0.0204 -0.7668  0.4514
  529TIP3    H2 1552   3.777   2.677   1.575  0.1206  0.6082 -0.3843
  530TIP3   OH2 1553   6.900   2.716   5.507 -0.1408 -0.2750 -0.7768
  530TIP3    H1 1554   6.853   2.680   5.432 -0.6560 -0.6483 -0.2832
  530TIP3    H2 1555   6.853   2.796   5.529  0.7761  0.5387 -1.6345
  531TIP3   OH2 1556   0.811   6.783   5.244 -0.2757  0.3981  0.7771
  531TIP3    H1 1557   0.839   6.720   5.177 -0.3330  1.9600 -0.7985
  531TIP3    H2 1558   0.885   6.788   5.304 -0.1781 -0.9705  0.8029
  532TIP3   OH2 1559   1.624   6.278   3.330 -0.1270 -0.3996  0.7164
  532TIP3    H1 1560   1.700   6.256   3.384  0.5291 -0.4029 -0.1858
  532TIP3    H2 1561   1.590   6.193   3.301  1.5589 -0.3756 -1.6074
  533TIP3   OH2 1562   2.674   3.710   5.792  0.4825 -0.5830 -0.1809
  533TIP3    H1 1563   2.708   3.770   5.726 -0.0664  1.2313  1.1180
  533TIP3    H2 1564   2.654   3.630   5.743 -1.1866  1.0999 -2.4856
  534TIP3   OH2 1565   4.904   3.044   2.956 -0.5611  0.4252 -0.3402
  534TIP3    H1 1566   4.932   3.079   3.040 -1.0528  1.5003 -0.6058
  534TIP3    H2 1567   4.823   2.997   2.974 -0.6969  0.7061 -0.2214
  535TIP3   OH2 1568   6.576   5.292   5.252  0.4049 -0.5209 -0.3887
  535TIP3    H1 1569   6.554   5.245   5.332 -3.6528  0.2090 -0.8254
  535TIP3    H2 1570   6.568   5.227   5.183  1.0347 -0.5332 -0.4512
  536TIP3   OH2 1571   3.349   3.760   2.557  0.2747  0.7434  0.1028
  536TIP3    H1 1572   3.333   3.757   2.463  2.9482 -2.9664 -0.4857
  536TIP3    H2 1573   3.432   3.807   2.566  0.1053  0.9609  0.5813
  537TIP3   OH2 1574   0.826   3.086   2.986 -0.6035  0.6312  0.5176
  537TIP3    H1 1575   0.909   3.059   2.946 -0.9500 -1.0980  0.8787
  537TIP3    H2 1576   0.844   3.085   3.080 -0.7568  1.2516  0.5545
  538TIP3   OH2 1577   4.697   2.947   2.729  0.5719  0.7042  0.1379
  538TIP3    H1 1578   4.778   2.998   2.730  0.1824  1.3821 -0.8180
  538TIP3    H2 1579   4.671   2.941   2.820  2.1425 -0.2638  0.5686
  539TIP3   OH2 1580   6.384   4.247   4.153 -0.3131  0.2932 -0.3325
  539TIP3    H1 1581   6.380   4.299   4.233 -0.1616 -1.1501  0.6604
  539TIP3    H2 1582   6.422   4.164   4.181  1.5774  0.4242 -2.2845
  540TIP3   OH2 1583   4.019   0.052   3.024 -0.1341 -0.0149  0.0301
  540TIP3    H1 1584   4.033   0.146   3.017  0.3706 -0.1693 -1.2002
  540TIP3    H2 1585   4.100   0.013   2.991  0.0249 -0.8899  1.3953
  541TIP3   OH2 1586   1.670   4.810   4.890  0.0475 -0.0030  0.0648
  541TIP3    H1 1587   1.575   4.817   4.896  0.2079  1.1061  2.5474
  541TIP3    H2 1588   1.689   4.825   4.797 -2.0862  1.4061 -0.2278
  542TIP3   OH2 1589   1.551   4.245   5.281  0.3647 -0.2741 -0.2754
  542TIP3    H1 1590   1.577   4.307   5.213  2.3932 -1.2686 -0.4865
  542TIP3    H2 1591   1.460   4.223   5.261  0.3521  0.8610 -1.5545
  543TIP3   OH2 1592   0.549   0.376   3.369  0.5131  0.0933 -0.1232
  543TIP3    H1 1593   0.556   0.295   3.318  0.5368  0.3022 -0.4507
  543TIP3    H2 1594   0.564   0.348   3.460 -1.6913 -0.6546  0.0772
  544TIP3   OH2 1595   2.106   1.235   2.651 -0.3337  0.4218 -0.2809
  544TIP3    H1 1596   2.099   1.259   2.558 -2.1870 -2.7992 -1.1398
  544TIP3    H2 1597   2.103   1.319   2.698 -1.5003  2.0792 -3.0414
  545TIP3   OH2 1598   5.772   4.998   5.695  0.4657 -0.1860 -0.0740
  545TIP3    H1 1599   5.715   5.063   5.736 -0.5885  0.3473 -2.2735
  545TIP3    H2 1600   5.860   5.020   5.727  0.1930  2.4958 -0.8995
  546TIP3   OH2 1601   6.000   2.468   1.457  0.3101 -0.7728  0.1445
  546TIP3    H1 1602   5.984   2.435   1.369  1.9856  1.0381 -0.9033
  546TIP3    H2 1603   5.957   2.404   1.514 -1.9903 -1.2895 -1.9838
  547TIP3   OH2 1604   2.240   5.033   3.109 -0.1092  0.5367  0.5819
  547TIP3    H1 1605   2.229   5.112   3.162  0.5825  1.6329 -0.8183
  547TIP3    H2 1606   2.172   4.974   3.139 -0.8886  1.8138  1.4315
  548TIP3   OH2 1607   1.835   6.649   0.201 -0.1839 -0.0300  0.2458
  548TIP3    H1 1608   1.859   6.686   0.286 -0.6968  2.7129 -0.7071
  548TIP3    H2 1609   1.877   6.706   0.137 -3.6687  0.9678 -1.3809
  549TIP3   OH2 1610   3.693   0.683   4.535  0.3710  0.2193 -0.0684
  549TIP3    H1 1611   3.786   0.667   4.550  0.2015  0.7350  1.6781
  549TIP3    H2 1612   3.678   0.772   4.566 -0.8305 -0.0848  0.2999
  550TIP3   OH2 1613   2.270   6.051   2.144 -0.1181  0.0221  0.4338
  550TIP3    H1 1614   2.357   6.087   2.129  0.8105 -1.5590  1.7088
  550TIP3    H2 1615   2.211   6.112   2.099  1.8189 -0.7753 -3.6310
  551TIP3   OH2 1616   6.062   6.714   5.711  0.0921  0.5611  0.0138
  551TIP3    H1 1617   6.031   6.766   5.637 -1.2677  0.2870  0.3551
  551TIP3    H2 1618   6.040   6.766   5.788  1.3278  0.7584  0.2555
  552TIP3   OH2 1619   0.846   4.370   0.928  0.4147 -0.1887  0.3685
  552TIP3    H1 1620   0.768   4.314   0.922 -0.2445  0.8188 -1.8154
  552TIP3    H2 1621   0.902   4.327   0.992 -0.7688 -2.4193  0.0058
  553TIP3   OH2 1622   7.112   4.043   2.636  0.3590  0.4055 -0.8221
  553TIP3    H1 1623   7.083   4.134   2.634  1.2716  0.7053 -0.7201
  553TIP3    H2 1624   7.075   4.004   2.556 -3.4433 -0.2390  1.0291
  554TIP3   OH2 1625   1.756   5.315   5.780 -0.2569 -0.8210 -0.3120
  554TIP3    H1 1626   1.687   5.339   5.841  0.5007 -0.6186  0.4750
  554TIP3    H2 1627   1.767   5.392   5.725 -1.3063 -1.1885 -1.0820
  555TIP3   OH2 1628   3.933   1.891   1.819  0.1526 -0.0106 -0.0277
  555TIP3    H1 1629   3.986   1.897   1.898  1.5495  0.0052 -0.9253
  555TIP3    H2 1630   3.892   1.805   1.824 -1.5799  0.8574  1.7683
  556TIP3   OH2 1631   2.246   5.894   2.580  1.1458 -0.3085  0.1059
  556TIP3    H1 1632   2.306   5.845   2.523  0.0391 -1.5197 -0.0649
  556TIP3    H2 1633   2.225   5.973   2.530  1.3874 -0.6317 -0.5137
  557TIP3   OH2 1634   3.427   3.382   4.773  0.2527  0.1318  0.6328
  557TIP3    H1 1635   3.495   3.392   4.840  2.4404 -0.2276 -1.4035
  557TIP3    H2 1636   3.439   3.458   4.716  0.3296 -0.9872 -0.8881
  558TIP3   OH2 1637   3.065   3.697   2.610  0.2642  0.0883 -0.2204
  558TIP3    H1 1638   3.142   3.695   2.553  0.5164 -0.4419  0.1366
  558TIP3    H2 1639   3.081   3.772   2.668 -1.1482  2.2252 -2.4115
  559TIP3   OH2 1640   0.584   1.145   2.069  0.1399  0.5349 -0.4561
  559TIP3    H1 1641   0.652   1.150   2.002  0.7812 -2.0511 -0.0700
  559TIP3    H2 1642   0.518   1.086   2.032 -0.6120  0.8975  0.2775
  560TIP3   OH2 1643   0.055   2.119   2.796  0.0245  0.6178  0.2388
  560TIP3    H1 1644   0.100   2.202   2.814  0.2874 -0.0933  3.5810
  560TIP3    H2 1645  -0.037   2.138   2.813  0.0086  0.3825  0.4200
  561TIP3   OH2 1646   0.821   3.501   2.561 -0.3700  0.5952 -0.5083
  561TIP3    H1 1647   0.895   3.462   2.606 -0.3159  0.9648 -0.2717
  561TIP3    H2 1648   0.851   3.514   2.471 -0.6068 -0.4953 -0.7574
  562TIP3   OH2 1649   3.528   5.096   4.702  0.2918  0.2866 -0.7253
  562TIP3    H1 1650   3.497   5.051   4.623 -1.5641 -1.3609  0.8474
  562TIP3    H2 1651   3.483   5.181   4.700 -0.9554 -0.3500 -0.7099
  563TIP3   OH2 1652   3.339   6.688   3.955  0.2125  0.7820 -0.2013
  563TIP3    H1 1653   3.360   6.609   3.904 -0.3465  0.5032  0.0008
  563TIP3    H2 1654   3.413   6.747   3.938 -0.8363  1.4586 -2.8682
  564TIP3   OH2 1655   2.217   5.856   4.043 -0.2349  0.7403  0.8958
  564TIP3    H1 1656   2.309   5.849   4.015 -0.5238 -0.7637  0.2317
  564TIP3    H2 1657   2.195   5.948   4.029  1.0170  1.0232  0.6013
  565TIP3   OH2 1658   4.322   2.139   0.733 -0.3114  0.0125 -0.0256
  565TIP3    H1 1659   4.297   2.200   0.802  0.7211  0.5038 -0.0603
  565TIP3    H2 1660   4.255   2.150   0.666 -0.0951  1.2030 -0.0793
  566TIP3   OH2 1661   3.454   4.275   0.361 -0.3968  0.5328  0.2862
  566TIP3    H1 1662   3.375   4.220   0.365 -0.9466  1.2045 -0.7301
  566TIP3    H2 1663   3.481   4.284   0.452 -1.5629  0.3684  0.6744
  567TIP3   OH2 1664   5.732   4.401   5.738  0.0132  0.1905  0.3981
  567TIP3    H1 1665   5.738   4.434   5.648  1.8873  1.0080  0.7612
  567TIP3    H2 1666   5.769   4.312   5.733  1.2668  0.6770  0.5198
  568TIP3   OH2 1667   2.021   2.800   2.439  0.1749 -0.6039 -0.1196
  568TIP3    H1 1668   2.039   2.729   2.377 -1.2605 -0.8289 -0.3357
  568TIP3    H2 1669   1.929   2.822   2.423 -0.1756 -0.5157  1.7835
  569TIP3   OH2 1670   4.804   1.342   3.503 -0.5875  0.3494 -0.5779
  569TIP3    H1 1671   4.862   1.328   3.428 -0.7565  0.6882 -0.7732
  569TIP3    H2 1672   4.727   1.385   3.466 -0.0250  1.9264  0.0301
  570TIP3   OH2 1673   5.623   4.045   2.740 -0.3483  0.4591  0.0260
  570TIP3    H1 1674   5.695   4.031   2.802  0.5973 -0.2199 -1.1761
  570TIP3    H2 1675   5.545   4.017   2.788  0.2383  0.7142  1.1850
  571TIP3   OH2 1676   1.031   0.101   1.817 -0.1105 -0.1931 -0.1367
  571TIP3    H1 1677   1.036   0.058   1.732  0.7697 -0.0650 -0.1552
  571TIP3    H2 1678   0.973   0.045   1.869 -3.3282  1.3434 -1.7635
  572TIP3   OH2 1679   2.111   6.668   2.000 -0.0763  0.4294 -0.3292
  572TIP3    H1 1680   2.142   6.758   1.985 -1.3699  0.6570 -1.8038
  572TIP3    H2 1681   2.136   6.621   1.921  0.0972 -0.3982  0.2085
  573TIP3   OH2 1682   1.487   3.235   5.152 -0.5206  0.1199  0.1702
  573TIP3    H1 1683   1.497   3.254   5.059 -0.4017 -0.3906  0.0765
  573TIP3    H2 1684   1.543   3.299   5.196 -1.7876  1.4092 -0.0053
  574TIP3   OH2 1685   5.370   3.678   3.222 -0.6066  0.1292  0.0279
  574TIP3    H1 1686   5.329   3.610   3.275  0.4248 -1.6873 -1.4160
  574TIP3    H2 1687   5.306   3.696   3.153 -0.1605 -0.7016 -0.6201
  575TIP3   OH2 1688   0.736   4.514   4.923 -0.3595 -0.4768 -0.5583
  575TIP3    H1 1689   0.680   4.583   4.888  0.6818  1.7886  1.9235
  575TIP3    H2 1690   0.805   4.503   4.858 -0.8290  0.4383 -1.2268
  576TIP3   OH2 1691   3.464   2.427   4.201  0.2954  0.0143 -0.0520
  576TIP3    H1 1692   3.548   2.399   4.165  0.6834  1.7658 -0.5960
  576TIP3    H2 1693   3.476   2.426   4.295 -0.0617 -2.5851  0.0550
  577TIP3   OH2 1694   1.752   0.011   2.635 -0.9776  0.0222 -0.1965
  577TIP3    H1 1695   1.809  -0.034   2.697  2.5324  1.8350 -1.8166
  577TIP3    H2 1696   1.700   0.072   2.688  0.0484 -0.2775  1.1904
  578TIP3   OH2 1697   1.945   3.299   3.028  0.0184 -0.3336  0.3679
  578TIP3    H1 1698   1.943   3.319   3.122  0.6126  1.5119  0.0285
  578TIP3    H2 1699   1.889   3.365   2.988 -1.5115 -2.0631 -0.4698
  579TIP3   OH2 1700   1.116   4.103   2.613 -0.0914  0.7750 -0.0852
  579TIP3    H1 1701   1.159   4.138   2.691 -2.3979  2.7618  0.4023
  579TIP3    H2 1702   1.136   4.166   2.544  1.3731 -0.6214 -1.0006
  580TIP3   OH2 1703   6.650   6.446   5.300 -0.2903 -0.0891  0.1870
  580TIP3    H1 1704   6.606   6.520   5.257 -2.6323 -2.5724 -2.1022
  580TIP3    H2 1705   6.680   6.481   5.384 -0.4148  3.6399 -1.1468
  581TIP3   OH2 1706   4.103   2.644   2.288 -0.0149  0.1904 -0.1629
  581TIP3    H1 1707   4.163   2.582   2.330  0.2861 -0.3260 -1.2880
  581TIP3    H2 1708   4.018   2.625   2.325  0.3420  0.1984  0.6770
  582TIP3   OH2 1709   3.807   2.354   1.084 -0.5039 -0.1070 -0.5954
  582TIP3    H1 1710   3.752   2.283   1.052  0.1443  0.0128 -2.0343
  582TIP3    H2 1711   3.746   2.425   1.102 -1.1312 -0.9189  0.6296
  583TIP3   OH2 1712   5.554   1.587   3.264  0.1988 -0.2917  0.3950
  583TIP3    H1 1713   5.534   1.535   3.187  0.8575 -0.9066  0.6264
  583TIP3    H2 1714   5.512   1.541   3.336  2.6000 -1.8236  0.9490
  584TIP3   OH2 1715   1.329   1.629   4.136  0.4713  0.1394  0.1981
  584TIP3    H1 1716   1.362   1.612   4.048 -0.0408 -0.1982  0.0692
  584TIP3    H2 1717   1.344   1.547   4.183  3.8944  1.2804  1.4590
  585TIP3   OH2 1718   6.940   6.039   1.587 -0.2652 -0.1559 -0.9561
  585TIP3    H1 1719   6.941   6.080   1.673 -1.7905 -0.5404 -0.7129
  585TIP3    H2 1720   6.993   5.960   1.598 -1.7201 -1.0394  0.1197
  586TIP3   OH2 1721   2.821   1.611   5.633 -0.4785  0.2018 -0.0378
  586TIP3    H1 1722   2.735   1.572   5.648 -0.4949  0.6202  1.0856
  586TIP3    H2 1723   2.878   1.537   5.612 -1.1045 -0.0773 -0.7950
  587TIP3   OH2 1724   6.850   5.417   3.352  0.4714  0.3490 -0.1683
  587TIP3    H1 1725   6.764   5.384   3.378  0.1777 -0.1353 -1.6901
  587TIP3    H2 1726   6.851   5.412   3.257  1.9818  0.8838 -0.2182
  588TIP3   OH2 1727   5.928   2.609   1.094 -0.4706 -0.0617 -0.0725
  588TIP3    H1 1728   5.935   2.517   1.117 -0.4059 -0.7183 -2.4963
  588TIP3    H2 1729   6.009   2.629   1.047 -1.6127  0.4486 -1.9536
  589TIP3   OH2 1730   1.863   5.798   5.365 -0.5987 -0.0530 -0.2409
  589TIP3    H1 1731   1.925   5.790   5.292 -1.4842  0.0102 -1.0189
  589TIP3    H2 1732   1.803   5.867   5.337 -1.3219 -0.4623  0.2775
  590TIP3   OH2 1733   0.522   3.036   0.902 -0.3473 -0.0351 -0.3520
  590TIP3    H1 1734   0.471   3.019   0.981 -0.3836 -0.4965 -0.4769
  590TIP3    H2 1735   0.593   2.972   0.904  0.0453  0.3902 -0.3478
  591TIP3   OH2 1736   3.998   1.537   4.412  0.4929 -0.1900  0.0246
  591TIP3    H1 1737   3.955   1.549   4.497 -0.1604  1.4344 -0.5078
  591TIP3    H2 1738   3.928   1.550   4.348  1.4093  0.6717 -0.8162
  592TIP3   OH2 1739   3.351   4.788   0.267 -0.3561  0.0950  0.2416
  592TIP3    H1 1740   3.330   4.696   0.283 -2.5397  0.0730 -2.0842
  592TIP3    H2 1741   3.266   4.830   0.256  0.6119  1.5975 -2.5408
  593TIP3   OH2 1742   6.072   2.686   5.544  0.4956 -0.1377  0.4115
  593TIP3    H1 1743   6.106   2.734   5.469  0.2921 -0.9593 -0.2281
  593TIP3    H2 1744   6.148   2.673   5.601  0.6175  0.6226  0.4238
  594TIP3   OH2 1745   0.636   6.742   0.709 -0.7387  0.3972 -0.2249
  594TIP3    H1 1746   0.728   6.728   0.684 -0.6986 -1.9400  0.9118
  594TIP3    H2 1747   0.591   6.662   0.681 -2.5479  1.6590 -1.0950
  595TIP3   OH2 1748   3.712   6.169   4.554 -0.4212 -0.5443 -0.1672
  595TIP3    H1 1749   3.641   6.112   4.523  0.6329 -2.6614  1.0421
  595TIP3    H2 1750   3.757   6.116   4.620  1.0865  1.4847  0.5178
  596TIP3   OH2 1751   1.684   2.842   3.558  0.0191 -0.2565  0.3924
  596TIP3    H1 1752   1.737   2.902   3.505  0.5232  0.7125  1.9198
  596TIP3    H2 1753   1.659   2.773   3.497  1.4281  0.2593 -0.8619
  597TIP3   OH2 1754   6.078   1.003   4.624 -0.3184 -0.4347  0.5104
  597TIP3    H1 1755   6.065   0.916   4.663 -0.0059  0.3846  2.5405
  597TIP3    H2 1756   6.129   1.051   4.689  2.3232  0.3051 -1.9273
  598TIP3   OH2 1757   6.644   4.821   5.417  0.1491 -0.0560 -0.0174
  598TIP3    H1 1758   6.641   4.726   5.407  0.9454 -0.2642  1.5332
  598TIP3    H2 1759   6.568   4.841   5.472  0.0180  0.2072 -0.2914
  599TIP3   OH2 1760   5.790   4.370   1.775 -0.0777 -0.4623  0.2237
  599TIP3    H1 1761   5.829   4.381   1.862 -0.5189  1.0455  0.2655
  599TIP3    H2 1762   5.858   4.400   1.714 -0.3366  0.0131  0.1619
  600TIP3   OH2 1763   0.602   1.085   2.924  0.1176  0.6289  0.0851
  600TIP3    H1 1764   0.554   1.155   2.880 -1.9626 -0.6337  0.2189
  600TIP3    H2 1765   0.688   1.085   2.882 -0.4914  1.9902 -1.2446
  601TIP3   OH2 1766   3.463   2.427   0.880  0.0957 -0.3366  0.2150
  601TIP3    H1 1767   3.450   2.340   0.917 -0.1804 -0.4243 -0.0772
  601TIP3    H2 1768   3.549   2.455   0.910 -0.8007  0.3220  2.3846
  602TIP3   OH2 1769   1.584   6.681   2.223  0.0663 -0.7212  0.4532
  602TIP3    H1 1770   1.645   6.745   2.187  1.7116 -2.3087  0.3024
  602TIP3    H2 1771   1.564   6.623   2.149 -1.8008 -0.1731  0.4538
  603TIP3   OH2 1772   4.433   2.762   1.255  0.2891  0.3650 -0.0426
  603TIP3    H1 1773   4.409   2.826   1.322  0.4653  1.0092 -0.5932
  603TIP3    H2 1774   4.424   2.677   1.299 -2.2652  0.5951  0.0112
  604TIP3   OH2 1775   3.611   0.125   0.430 -0.8538 -0.8018  0.0200
  604TIP3    H1 1776   3.517   0.124   0.448 -0.9148  0.9097 -0.0834
  604TIP3    H2 1777   3.635   0.217   0.429  0.9391 -1.2069  0.5514
  605TIP3   OH2 1778   7.119   5.952   1.307  0.0620  0.0217  0.2464
  605TIP3    H1 1779   7.208   5.920   1.324 -0.4015 -1.2932  0.3678
  605TIP3    H2 1780   7.131   6.026   1.248  1.2028 -0.6843 -0.4576
  606TIP3   OH2 1781   5.830   3.904   2.449 -0.3669  0.2679  0.2154
  606TIP3    H1 1782   5.780   3.904   2.531 -1.4474  1.9062 -0.3961
  606TIP3    H2 1783   5.853   3.996   2.436  0.9676 -0.1745 -0.6390
  607TIP3   OH2 1784   3.715   2.492   0.497  0.1160 -0.2577  0.0373
  607TIP3    H1 1785   3.757   2.576   0.515 -1.0904  0.5890 -1.0106
  607TIP3    H2 1786   3.628   2.514   0.464 -0.5225 -1.9380  0.4763
  608TIP3   OH2 1787   2.868   6.560   0.619  0.2997  0.1410  0.1686
  608TIP3    H1 1788   2.831   6.491   0.675  1.6211 -1.0028 -0.3103
  608TIP3    H2 1789   2.949   6.585   0.662  0.1228  1.0021  0.0196
  609TIP3   OH2 1790   3.912   1.709   3.328  0.4130  0.4497  0.2030
  609TIP3    H1 1791   3.924   1.614   3.330 -2.0049  0.1031  1.6266
  609TIP3    H2 1792   3.853   1.725   3.254  0.2114  0.7423  0.4209
  610TIP3   OH2 1793   0.217   1.532   5.839 -0.4500  0.7234  0.2179
  610TIP3    H1 1794   0.172   1.451   5.813 -0.1223  1.4106 -2.8640
  610TIP3    H2 1795   0.152   1.601   5.824 -0.0416  1.2507  0.8162
  611TIP3   OH2 1796   4.713   1.149   5.369 -0.5578  0.0721  0.4983
  611TIP3    H1 1797   4.777   1.122   5.435  1.2215  1.1377 -0.7091
  611TIP3    H2 1798   4.693   1.069   5.320  1.9491  0.1403 -0.7892
  612TIP3   OH2 1799   0.138   0.599   5.299  0.0866 -0.4297 -0.3396
  612TIP3    H1 1800   0.065   0.624   5.357 -0.3523 -1.3736 -0.4736
  612TIP3    H2 1801   0.148   0.505   5.312  0.5971 -0.4887 -1.1082
  613TIP3   OH2 1802   0.469   3.243   1.605 -0.1571  0.0575  0.2084
  613TIP3    H1 1803   0.511   3.315   1.651 -0.8103 -0.5997  1.9332
  613TIP3    H2 1804   0.377   3.269   1.599 -0.0777  0.1446 -0.7861
  614TIP3   OH2 1805   1.649   3.445   5.226 -0.4198 -0.0452  0.9352
  614TIP3    H1 1806   1.743   3.440   5.212 -0.3805 -0.1656  1.2334
  614TIP3    H2 1807   1.627   3.537   5.213 -0.0518  0.2355  2.1220
  615TIP3   OH2 1808   2.255   1.351   0.175  0.1046  0.2153  0.1412
  615TIP3    H1 1809   2.285   1.319   0.090 -2.6338 -0.8431 -0.5282
  615TIP3    H2 1810   2.207   1.432   0.154 -0.1979  0.1960  0.7506
  616TIP3   OH2 1811   3.824   3.326   1.418  0.2967 -0.5250 -0.2277
  616TIP3    H1 1812   3.876   3.356   1.493 -0.1862  0.7499 -0.3749
  616TIP3    H2 1813   3.744   3.290   1.457 -0.1765  0.5904 -0.1259
  617TIP3   OH2 1814   5.237   4.395   4.233 -0.3406  0.1435 -0.6010
  617TIP3    H1 1815   5.275   4.320   4.187  0.4788  0.2328 -0.1040
  617TIP3    H2 1816   5.143   4.386   4.221 -0.3462 -1.6166  0.4154
  618TIP3   OH2 1817   4.848   2.486   1.678 -0.1901 -0.3102  0.1179
  618TIP3    H1 1818   4.802   2.449   1.754  1.3711  0.5786  1.5504
  618TIP3    H2 1819   4.862   2.578   1.701  2.7398 -0.6350  0.0244
  619TIP3   OH2 1820   4.430   1.521   1.576  0.5169 -0.3625 -0.2304
  619TIP3    H1 1821   4.381   1.439   1.576  2.5991 -1.6863 -0.2957
  619TIP3    H2 1822   4.471   1.526   1.662 -0.9497  1.5554  0.4369
  620TIP3   OH2 1823   6.811   2.647   4.310 -0.5039 -0.4384  0.0926
  620TIP3    H1 1824   6.861   2.721   4.344 -0.0727 -0.7834  0.2132
  620TIP3    H2 1825   6.744   2.687   4.254 -0.9323  0.1159  0.9636
  621TIP3   OH2 1826   6.885   6.794   4.526  0.0619  0.9155 -0.2801
  621TIP3    H1 1827   6.887   6.701   4.501 -1.1970  1.1139 -1.2148
  621TIP3    H2 1828   6.861   6.793   4.619  0.1306  0.2989 -0.2637
  622TIP3   OH2 1829   4.342   3.528   2.768 -0.0023 -0.2677 -0.1831
  622TIP3    H1 1830   4.251   3.544   2.744  0.5038  0.5955 -1.6413
  622TIP3    H2 1831   4.339   3.448   2.820 -1.3965 -1.1676 -1.5730
  623TIP3   OH2 1832   6.240   2.536   1.579  0.0514  0.2564 -0.0438
  623TIP3    H1 1833   6.161   2.507   1.533  1.5765 -0.6089 -2.2981
  623TIP3    H2 1834   6.220   2.626   1.605 -0.9578  0.8571 -2.5102
  624TIP3   OH2 1835   1.989   4.054   3.829 -0.0114 -0.0659 -0.0371
  624TIP3    H1 1836   1.924   4.107   3.876  0.5726  0.8288 -0.2139
  624TIP3    H2 1837   2.073   4.092   3.854  0.3676 -0.3291 -0.8863
  625TIP3   OH2 1838   5.770   3.626   5.318 -0.0430  0.2697  0.2511
  625TIP3    H1 1839   5.674   3.616   5.322  0.1647 -2.0225  2.5896
  625TIP3    H2 1840   5.803   3.536   5.315  2.0699  1.0248 -1.1609
  626TIP3   OH2 1841   2.790   0.098   5.710 -0.3609 -0.8616  0.4641
  626TIP3    H1 1842   2.876   0.096   5.668 -0.8477 -0.6315 -0.5781
  626TIP3    H2 1843   2.728   0.100   5.638 -1.1847  1.7221  1.1360
  627TIP3   OH2 1844   2.287   4.570   1.530  0.2809 -0.4580 -0.7286
  627TIP3    H1 1845   2.274   4.477   1.545 -1.9245 -0.0255  0.4711
  627TIP3    H2 1846   2.337   4.600   1.606 -1.5080 -0.2085  0.4115
  628TIP3   OH2 1847   3.624   2.381   3.439 -0.3724 -0.9189 -0.3679
  628TIP3    H1 1848   3.694   2.425   3.488 -1.2519  0.8456 -0.6067
  628TIP3    H2 1849   3.644   2.288   3.447  0.7794 -0.5721  1.4102
  629TIP3   OH2 1850   1.697   4.934   3.411  0.4647 -0.4342  0.7154
  629TIP3    H1 1851   1.726   4.940   3.502  0.8984 -0.3811  0.5749
  629TIP3    H2 1852   1.628   5.000   3.403 -0.6129 -1.4349  1.3946
  630TIP3   OH2 1853   4.805   0.148   4.173 -0.1895  0.5761  0.6999
  630TIP3    H1 1854   4.760   0.232   4.184 -0.4956  0.4088  0.7427
  630TIP3    H2 1855   4.897   0.167   4.188  0.2176  1.5649 -2.2813
  631TIP3   OH2 1856   3.811   4.599   5.241  0.2450  0.5841  0.0874
  631TIP3    H1 1857   3.896   4.608   5.283  0.3908 -0.1173 -0.0384
  631TIP3    H2 1858   3.779   4.513   5.270 -0.4828  0.8988  0.2471
  632TIP3   OH2 1859   0.934   2.284   3.368  0.0126  0.2309  0.0653
  632TIP3    H1 1860   1.000   2.285   3.437 -0.1014  1.0582  0.1734
  632TIP3    H2 1861   0.939   2.371   3.329  1.1725 -0.6872 -2.0367
  633TIP3   OH2 1862   0.436   3.744   2.996 -0.2269  0.1289  0.1973
  633TIP3    H1 1863   0.459   3.821   3.048  3.7356 -1.3049  0.9397
  633TIP3    H2 1864   0.366   3.701   3.046  0.0985  1.3048  1.7424
  634TIP3   OH2 1865   4.381   5.466   5.087 -0.0783  0.4340 -0.2118
  634TIP3    H1 1866   4.457   5.429   5.043  0.4208  0.7013  0.4087
  634TIP3    H2 1867   4.377   5.421   5.171 -1.5498 -0.7114 -0.8497
  635TIP3   OH2 1868   6.625   1.749   0.603  0.5867 -0.5952  0.6355
  635TIP3    H1 1869   6.674   1.722   0.526 -1.8081  3.7894 -2.9234
  635TIP3    H2 1870   6.662   1.834   0.627 -2.2771  0.7699  0.5992
  636TIP3   OH2 1871   3.775   1.080   1.974 -0.5183 -0.5565  0.0092
  636TIP3    H1 1872   3.683   1.085   2.002 -0.6399 -0.8577 -0.3263
  636TIP3    H2 1873   3.805   1.171   1.977 -1.0548 -0.3429 -0.5988
  637TIP3   OH2 1874   2.095   2.891   3.038 -0.5344  0.2864  0.1936
  637TIP3    H1 1875   2.136   2.926   2.960 -1.8825  0.5005 -0.4379
  637TIP3    H2 1876   2.109   2.958   3.105 -1.9389  1.4977 -0.6570
  638TIP3   OH2 1877   5.757   1.966   0.598 -0.4710  0.1470 -0.1348
  638TIP3    H1 1878   5.754   2.004   0.686  0.3392 -1.6206  0.7025
  638TIP3    H2 1879   5.719   1.879   0.607  0.8350 -0.5909 -1.2183
  639TIP3   OH2 1880   0.507   6.584   3.955  0.3812  0.6949 -0.2166
  639TIP3    H1 1881   0.425   6.561   3.999  0.1342  1.8869 -0.0246
  639TIP3    H2 1882   0.518   6.516   3.888 -2.2747  2.0465 -2.2068
  640TIP3   OH2 1883   0.563   2.219   5.169 -0.2807  0.1990  0.5289
  640TIP3    H1 1884   0.521   2.167   5.101 -3.2824  0.7281  1.8201
  640TIP3    H2 1885   0.552   2.167   5.249  1.8774  0.2513  0.9248
  641TIP3   OH2 1886   5.849   5.727   2.210  0.6563 -0.3166  0.7515
  641TIP3    H1 1887   5.933   5.759   2.242  0.5785  1.0028 -0.2284
  641TIP3    H2 1888   5.784   5.775   2.261  0.5188 -0.6165  0.8546
  642TIP3   OH2 1889   2.631   4.241   2.611 -0.2211  0.0285  0.0430
  642TIP3    H1 1890   2.692   4.179   2.650  0.0979  0.2841 -0.0511
  642TIP3    H2 1891   2.610   4.204   2.526  0.4189  0.3393 -0.2549
  643TIP3   OH2 1892   5.906   6.226   0.769  0.1289  0.0611  0.1148
  643TIP3    H1 1893   5.810   6.233   0.769  0.1632  0.6157  0.2099
  643TIP3    H2 1894   5.935   6.300   0.822  0.6354  0.2966 -0.4803
  644TIP3   OH2 1895   5.595   6.758   3.980  0.1398 -0.3750  0.7397
  644TIP3    H1 1896   5.678   6.749   4.027  0.6508  0.1763 -0.0108
  644TIP3    H2 1897   5.580   6.672   3.941  0.1111 -0.6131  1.2802
  645TIP3   OH2 1898   0.589   4.165   0.340  0.8122 -0.8429 -0.2234
  645TIP3    H1 1899   0.604   4.257   0.359  0.7580 -0.6485 -1.0622
  645TIP3    H2 1900   0.499   4.162   0.307  0.9363 -1.1423 -0.5350
  646TIP3   OH2 1901   6.920   2.040   5.045 -0.7434  0.2217  0.5699
  646TIP3    H1 1902   6.957   2.093   5.115 -2.2067 -0.0761  1.5981
  646TIP3    H2 1903   6.990   2.035   4.979  1.1411 -0.5513  2.5338
  647TIP3   OH2 1904   3.343   5.795   0.021  0.0032  0.1542 -0.1866
  647TIP3    H1 1905   3.363   5.717   0.072 -0.8411  0.8072  1.2037
  647TIP3    H2 1906   3.428   5.837   0.006  0.2293  0.1769  1.0729
  648TIP3   OH2 1907   4.046   5.018   3.286 -0.5824  0.1170 -0.4152
  648TIP3    H1 1908   3.955   5.020   3.314 -0.6656  1.4470 -0.7038
  648TIP3    H2 1909   4.096   5.050   3.362 -0.7008  2.6038 -1.3128
  649TIP3   OH2 1910   3.916   1.373   3.801  0.3847  0.0762 -0.1922
  649TIP3    H1 1911   3.999   1.326   3.809  0.7287  0.4943 -1.1745
  649TIP3    H2 1912   3.941   1.462   3.776 -0.3514  0.2126 -0.4666
  650TIP3   OH2 1913   4.791   0.865   3.558 -0.1938  0.5197 -0.2262
  650TIP3    H1 1914   4.793   0.961   3.563  0.3390  0.6481 -2.0815
  650TIP3    H2 1915   4.883   0.840   3.545  0.0241 -0.4666  2.5647
  651TIP3   OH2 1916   1.320   3.024   2.466  0.7857 -1.3712  0.1778
  651TIP3    H1 1917   1.269   2.945   2.482 -1.2205  0.0201  0.9645
  651TIP3    H2 1918   1.280   3.064   2.389  0.4624 -0.1123  0.9731
  652TIP3   OH2 1919  -0.008   1.967   2.202  0.1410 -0.1740  0.4427
  652TIP3    H1 1920  -0.012   1.878   2.236  0.5713 -0.1189  0.6520
  652TIP3    H2 1921   0.074   1.969   2.151  0.2704  0.1728  0.6588
  653TIP3   OH2 1922   4.256   6.242   2.671 -0.0614  0.3748  0.1866
  653TIP3    H1 1923   4.280   6.239   2.763  0.2409 -0.3489  0.0904
  653TIP3    H2 1924   4.165   6.271   2.671  0.3444  1.7531  0.6250
  654TIP3   OH2 1925   6.081   0.158   2.330  0.2965 -0.1870 -0.0580
  654TIP3    H1 1926   6.142   0.186   2.399  0.0854  1.4703 -0.5045
  654TIP3    H2 1927   6.054   0.240   2.288  0.8235 -1.1673 -2.4544
  655TIP3   OH2 1928   6.034   5.014   3.152 -0.4716 -0.4907  0.0483
  655TIP3    H1 1929   6.039   5.003   3.057 -1.0353 -0.8839  0.0591
  655TIP3    H2 1930   6.036   4.924   3.186  0.6012 -0.3250  0.4611
  656TIP3   OH2 1931   5.637   3.479   1.918  0.4609  0.0532  0.2345
  656TIP3    H1 1932   5.654   3.570   1.896  1.1592 -0.4074 -1.2938
  656TIP3    H2 1933   5.660   3.471   2.010 -1.2694  1.7884  0.8755
  657TIP3   OH2 1934   3.772   3.957   3.767  0.2746  0.1955  0.0662
  657TIP3    H1 1935   3.735   3.898   3.833 -0.0091  0.7242  0.3892
  657TIP3    H2 1936   3.811   4.028   3.817  0.3592  0.4293 -0.3235
  658TIP3   OH2 1937   5.907   4.236   1.450  0.6270 -0.1133  0.3565
  658TIP3    H1 1938   5.986   4.212   1.498  0.3589  1.3455  1.5844
  658TIP3    H2 1939   5.852   4.158   1.455  1.8973 -1.1197 -0.4359
  659TIP3   OH2 1940   4.325   4.580   4.778  0.2650  0.4653  0.1756
  659TIP3    H1 1941   4.344   4.579   4.684  1.5617 -0.1332  0.4184
  659TIP3    H2 1942   4.244   4.630   4.785 -0.2159 -0.0328 -1.3237
  660TIP3   OH2 1943   2.787   1.145   2.583  0.0593  0.1561 -0.2063
  660TIP3    H1 1944   2.727   1.205   2.627  0.3006  0.1294  0.1627
  660TIP3    H2 1945   2.841   1.110   2.653 -0.5811 -1.0797 -0.3148
  661TIP3   OH2 1946   3.540   2.989   1.111 -0.3577 -0.1011  0.1445
  661TIP3    H1 1947   3.470   3.053   1.096 -0.9726 -0.9044 -0.4837
  661TIP3    H2 1948   3.496   2.915   1.154  0.6778  0.6204  2.6016
  662TIP3   OH2 1949   6.803   2.646   1.508 -0.2524  0.6756 -0.1647
  662TIP3    H1 1950   6.729   2.692   1.549 -0.3545  1.0454 -0.7626
  662TIP3    H2 1951   6.786   2.652   1.414  0.9581  1.4780 -0.3556
  663TIP3   OH2 1952   6.225   0.265   0.214  0.4951  0.0365  0.1202
  663TIP3    H1 1953   6.173   0.337   0.250 -1.0858 -1.3299  0.6960
  663TIP3    H2 1954   6.215   0.273   0.119 -1.0523 -0.3743  0.2311
  664TIP3   OH2 1955   1.504   5.233   4.092 -0.2223  0.3954 -0.5605
  664TIP3    H1 1956   1.414   5.221   4.063 -0.3092 -1.5713  0.3838
  664TIP3    H2 1957   1.554   5.167   4.044  0.6579  1.2212 -0.8035
  665TIP3   OH2 1958   5.323   3.718   1.738  0.2791  0.5411 -0.0687
  665TIP3    H1 1959   5.358   3.630   1.750  0.7134  0.3340 -2.4497
  665TIP3    H2 1960   5.401   3.773   1.728  0.0443  0.5735 -2.2164
  666TIP3   OH2 1961   3.733   2.098   0.501  0.3097 -0.3964 -0.1341
  666TIP3    H1 1962   3.660   2.080   0.441 -0.3917  1.0930  0.2306
  666TIP3    H2 1963   3.771   2.012   0.518 -0.4412 -1.0427 -1.4831
  667TIP3   OH2 1964   3.001   3.374   3.317 -0.2461 -0.0177 -0.2720
  667TIP3    H1 1965   2.947   3.295   3.322 -0.2750  0.0281  0.1861
  667TIP3    H2 1966   2.978   3.423   3.395  0.7325 -0.1713  0.1303
  668TIP3   OH2 1967   3.093   3.928   5.248 -0.7948 -0.1792 -0.4345
  668TIP3    H1 1968   3.028   3.865   5.217 -0.5862 -0.5941 -0.0515
  668TIP3    H2 1969   3.170   3.874   5.269 -0.2878  0.3135 -0.9802
  669TIP3   OH2 1970   3.129   0.112   0.134  0.3838  0.1630 -0.2653
  669TIP3    H1 1971   3.137   0.021   0.161 -1.6656 -0.7032 -2.2091
  669TIP3    H2 1972   3.082   0.154   0.206 -0.8603 -0.9545 -0.3875
  670TIP3   OH2 1973   1.177   5.580   4.781  0.4619  0.1276 -0.0273
  670TIP3    H1 1974   1.240   5.612   4.717 -1.6873  0.0036 -2.3341
  670TIP3    H2 1975   1.100   5.636   4.770  0.0868  0.2888  2.7003
  671TIP3   OH2 1976   0.261   6.025   2.569  0.2523  0.0097 -0.1271
  671TIP3    H1 1977   0.196   6.080   2.526 -1.6810 -2.2113 -0.2588
  671TIP3    H2 1978   0.239   6.029   2.662 -0.0809 -0.7161 -0.1675
  672TIP3   OH2 1979   2.713   4.874   4.803 -0.2045 -0.0602  0.3493
  672TIP3    H1 1980   2.788   4.912   4.847 -0.9836  0.9645  0.8295
  672TIP3    H2 1981   2.667   4.948   4.764 -0.2422 -0.8077 -1.1125
  673TIP3   OH2 1982   3.392   3.070   0.570 -0.1925  0.3377 -0.2420
  673TIP3    H1 1983   3.298   3.090   0.581 -0.2772  0.2632 -0.8066
  673TIP3    H2 1984   3.393   2.995   0.511  0.0904 -1.8722  2.3890
  674TIP3   OH2 1985   6.550   3.500   2.511  0.4258  0.8143 -0.1514
  674TIP3    H1 1986   6.521   3.584   2.547  1.0852  1.1879 -0.4780
  674TIP3    H2 1987   6.634   3.520   2.468  0.3330  0.0953 -0.6798
  675TIP3   OH2 1988   2.318   5.845   3.206  0.3507 -0.2059 -0.0304
  675TIP3    H1 1989   2.242   5.790   3.227 -0.0615  0.2305 -0.3313
  675TIP3    H2 1990   2.298   5.929   3.248  0.9950 -0.3026  0.4676
  676TIP3   OH2 1991   5.016   3.291   0.166  0.3963 -0.3049 -0.3574
  676TIP3    H1 1992   4.924   3.272   0.148  0.1139  0.2600  0.4318
  676TIP3    H2 1993   5.030   3.258   0.255  0.2573  1.8509  0.5124
  677TIP3   OH2 1994   3.451   6.479   3.792  0.3758 -0.0202 -0.8616
  677TIP3    H1 1995   3.412   6.394   3.770  0.0210 -0.4173  1.1293
  677TIP3    H2 1996   3.524   6.458   3.849  0.4234  0.9967 -0.5268
  678TIP3   OH2 1997   5.064   2.836   2.853  0.2921 -0.1361  0.1798
  678TIP3    H1 1998   5.000   2.903   2.875 -1.5114 -1.6617 -0.0702
  678TIP3    H2 1999   5.089   2.798   2.937 -1.2418 -1.2989  0.1656
  679TIP3   OH2 2000   4.362   4.046   2.393 -0.3542 -0.5022 -0.3783
  679TIP3    H1 2001   4.446   4.087   2.413 -1.8715  2.2227  1.0313
  679TIP3    H2 2002   4.342   3.994   2.470 -0.1047 -0.9034 -0.5833
  680TIP3   OH2 2003   5.781   5.548   2.440  0.1120 -0.2362  0.5851
  680TIP3    H1 2004   5.869   5.511   2.444  0.5952  0.7957  0.1042
  680TIP3    H2 2005   5.755   5.538   2.348 -0.4999 -1.0310  0.8430
  681TIP3   OH2 2006   0.369   5.870   3.726 -0.5761 -0.1067  0.9600
  681TIP3    H1 2007   0.310   5.918   3.667 -0.5850 -4.3463 -3.0090
  681TIP3    H2 2008   0.311   5.815   3.779 -0.3655 -1.0489  0.2254
  682TIP3   OH2 2009   2.743   1.181   2.319  0.3120 -0.1526  0.0524
  682TIP3    H1 2010   2.819   1.125   2.301  0.7880  0.7616 -0.8931
  682TIP3    H2 2011   2.724   1.168   2.412  1.8051 -0.1726  0.3705
  683TIP3   OH2 2012   5.720   4.744   1.710  0.0361  0.2229  0.2810
  683TIP3    H1 2013   5.689   4.794   1.634  1.5155  1.1322  0.2402
  683TIP3    H2 2014   5.781   4.680   1.674  0.3107  0.2774  0.6451
  684TIP3   OH2 2015   6.875   6.261   0.071  0.4023 -0.1592  0.2226
  684TIP3    H1 2016   6.887   6.327   0.003  3.5377  0.2423  0.9973
  684TIP3    H2 2017   6.837   6.186   0.026 -1.4866  1.4703 -1.0571
  685TIP3   OH2 2018   0.534   0.787   4.243 -0.1244  0.1537  0.4677
  685TIP3    H1 2019   0.627   0.800   4.256  0.3385 -0.5311 -1.7060
  685TIP3    H2 2020   0.501   0.757   4.328  1.4662  1.1516  1.4644
  686TIP3   OH2 2021   4.007   5.114   0.330 -0.3228 -0.7214 -0.3315
  686TIP3    H1 2022   3.929   5.160   0.297 -0.6549  0.2663  1.6982
  686TIP3    H2 2023   4.013   5.036   0.275 -2.7657 -0.8465 -0.5447
  687TIP3   OH2 2024   1.630   2.828   3.147 -0.8320  0.0642  1.2894
  687TIP3    H1 2025   1.560   2.892   3.160 -0.3283  1.7092 -2.7386
  687TIP3    H2 2026   1.710   2.875   3.169 -0.6562 -0.1060  1.0226
  688TIP3   OH2 2027   0.286   3.056   1.424 -0.0504  0.1643 -0.1320
  688TIP3    H1 2028   0.336   2.975   1.432 -0.9891 -0.2602  2.6397
  688TIP3    H2 2029   0.351   3.125   1.440  0.5138 -0.0831 -1.2693
  689TIP3   OH2 2030   6.528   5.755   4.191 -0.0230  0.2282  0.3101
  689TIP3    H1 2031   6.458   5.755   4.125 -0.0027  0.2695  0.2885
  689TIP3    H2 2032   6.556   5.664   4.195  0.4784  0.3481 -0.2679
  690TIP3   OH2 2033   6.053   1.754   1.976 -0.0068  0.1549  0.2154
  690TIP3    H1 2034   6.131   1.709   1.944 -0.4081 -0.2809 -0.1650
  690TIP3    H2 2035   5.980   1.698   1.948 -0.4595  0.6146  0.4674
  691TIP3   OH2 2036   3.312   4.601   4.333  0.1705 -0.1914  0.3421
  691TIP3    H1 2037   3.256   4.594   4.256 -1.8957  0.6586  1.6761
  691TIP3    H2 2038   3.281   4.531   4.391  0.7196  0.0926  0.9893
  692TIP3   OH2 2039   5.069   5.914   0.678  0.4555  1.0024 -0.3238
  692TIP3    H1 2040   5.037   5.856   0.609  1.2015  1.2444 -0.8826
  692TIP3    H2 2041   5.164   5.915   0.667  0.4740  2.2173 -0.2349
  693TIP3   OH2 2042   0.992   2.185   0.395  1.1009  0.3269 -0.1603
  693TIP3    H1 2043   1.084   2.161   0.406  1.7371  2.8598  0.7964
  693TIP3    H2 2044   0.953   2.172   0.481  0.3516 -1.2777 -0.6937
  694TIP3   OH2 2045   6.637   4.492   4.391 -0.1273 -0.5208 -0.3242
  694TIP3    H1 2046   6.690   4.422   4.352 -0.3912  0.0584 -1.7894
  694TIP3    H2 2047   6.677   4.507   4.477  0.7044 -1.5962 -0.4940
  695TIP3   OH2 2048   2.340   2.305   1.108 -0.0372 -0.1444  0.2183
  695TIP3    H1 2049   2.321   2.212   1.096  0.0725 -0.0735 -0.5504
  695TIP3    H2 2050   2.393   2.308   1.187 -0.1827 -0.7198  0.3459
  696TIP3   OH2 2051   0.951   2.046   0.077  0.1136  0.1289 -0.0232
  696TIP3    H1 2052   0.960   1.980   0.008  0.0758 -0.9120  0.9366
  696TIP3    H2 2053   1.032   2.097   0.071  0.5692 -0.5888 -0.1990
  697TIP3   OH2 2054   1.494   5.715   3.094 -0.0454  0.2859 -0.0600
  697TIP3    H1 2055   1.547   5.787   3.060  1.0268  0.0504  1.0218
  697TIP3    H2 2056   1.557   5.659   3.139 -0.8660 -1.3056 -0.8269
  698TIP3   OH2 2057   6.114   4.197   1.608  0.7691 -0.4544  0.3446
  698TIP3    H1 2058   6.178   4.259   1.643  1.0016 -0.8913  0.7001
  698TIP3    H2 2059   6.166   4.126   1.571  0.5847  0.7028 -2.3397
  699TIP3   OH2 2060   5.011   4.000   4.850  0.1681 -0.9119 -0.3493
  699TIP3    H1 2061   5.070   4.042   4.913 -1.5721 -0.6233  1.1849
  699TIP3    H2 2062   5.016   3.907   4.871  0.1278 -0.8924 -0.2505
  700TIP3   OH2 2063   0.179   5.447   0.481 -0.1594 -0.0275 -0.0765
  700TIP3    H1 2064   0.268   5.413   0.466 -0.4304 -1.1309  0.6852
  700TIP3    H2 2065   0.126   5.406   0.413 -0.1479  0.3685 -0.3244
  701TIP3   OH2 2066   6.716   3.039   2.230  0.1491 -1.0899 -0.1428
  701TIP3    H1 2067   6.753   3.111   2.281 -0.3139 -1.1575  0.3015
  701TIP3    H2 2068   6.719   2.964   2.290 -1.7100 -0.8512  0.3359
  702TIP3   OH2 2069   1.120   6.806   5.125 -0.4579 -0.3296 -0.4892
  702TIP3    H1 2070   1.149   6.828   5.036 -1.6053 -1.9040 -1.2920
  702TIP3    H2 2071   1.049   6.744   5.113 -0.2801 -1.0074  1.5629
  703TIP3   OH2 2072   4.134   3.934   2.869  0.0708 -0.2420  0.4521
  703TIP3    H1 2073   4.117   3.933   2.775 -0.7044  1.3251  0.5371
  703TIP3    H2 2074   4.224   3.965   2.878  0.3025 -0.8343  0.2281
  704TIP3   OH2 2075   3.986   4.773   1.379  0.3351  0.1504 -0.1078
  704TIP3    H1 2076   4.020   4.753   1.292 -0.5248  0.4315 -0.5198
  704TIP3    H2 2077   4.037   4.849   1.408  0.7130 -0.0269 -0.3096
  705TIP3   OH2 2078   2.062   5.029   3.443  0.1875  0.2122 -0.3119
  705TIP3    H1 2079   2.145   4.993   3.471  0.5907  0.5163 -1.0747
  705TIP3    H2 2080   1.996   4.986   3.498  0.9066  0.5141  0.8024
  706TIP3   OH2 2081   3.502   3.054   3.616  0.0899 -0.0657 -0.2800
  706TIP3    H1 2082   3.449   2.977   3.636 -2.4325  1.4821 -0.5399
  706TIP3    H2 2083   3.532   3.040   3.526 -0.9998 -0.4331 -0.6043
  707TIP3   OH2 2084   0.109   3.648   3.528 -0.0606 -0.1558  0.2079
  707TIP3    H1 2085   0.056   3.594   3.471  1.1722  0.5789 -1.7311
  707TIP3    H2 2086   0.152   3.710   3.469  0.1875  1.5722  2.0983
  708TIP3   OH2 2087   5.114   0.328   3.994 -0.1983 -0.6277 -0.2750
  708TIP3    H1 2088   5.088   0.294   4.080  0.3789 -1.3215 -0.3642
  708TIP3    H2 2089   5.118   0.423   4.006 -0.8792 -0.6521  0.2484
  709TIP3   OH2 2090   1.033   4.411   2.988 -1.2264  1.0581 -0.4826
  709TIP3    H1 2091   1.005   4.501   2.971 -0.3080  1.9397  2.2225
  709TIP3    H2 2092   0.959   4.371   3.032 -0.2317  1.8156  2.0182
  710TIP3   OH2 2093   6.267   3.676   2.558 -0.0912  0.2381  0.1699
  710TIP3    H1 2094   6.226   3.704   2.640 -1.7388 -1.2280 -0.0932
  710TIP3    H2 2095   6.357   3.708   2.564 -0.4073  0.8942  2.1656
  711TIP3   OH2 2096   1.710   3.338   3.812  0.0705  0.3235 -0.6535
  711TIP3    H1 2097   1.786   3.370   3.860  0.3024  0.9205 -1.3782
  711TIP3    H2 2098   1.679   3.416   3.765 -1.3412  0.2264  0.0871
  712TIP3   OH2 2099   5.133   4.499   3.243  0.1115  0.4686 -0.5359
  712TIP3    H1 2100   5.195   4.459   3.304 -1.6399  1.0403  1.7529
  712TIP3    H2 2101   5.158   4.463   3.158  0.3579 -3.3885  0.9442
  713TIP3   OH2 2102   6.531   4.596   0.216 -0.2942  0.2083  0.4238
  713TIP3    H1 2103   6.506   4.681   0.250  1.4800  1.3272 -0.9216
  713TIP3    H2 2104   6.594   4.615   0.146 -0.8381 -2.1432 -0.8173
  714TIP3   OH2 2105   2.531   3.503   1.531 -0.3879 -0.3700 -0.1246
  714TIP3    H1 2106   2.562   3.439   1.596 -0.0842  0.6550  0.7562
  714TIP3    H2 2107   2.435   3.496   1.534 -0.5366  1.5963  2.4907
  715TIP3   OH2 2108   0.822   0.706   2.091  0.1795  0.2803 -0.1761
  715TIP3    H1 2109   0.889   0.638   2.082  0.3730  0.5222 -0.6089
  715TIP3    H2 2110   0.810   0.716   2.185 -0.0160 -0.5115 -0.1130
  716TIP3   OH2 2111   6.509   2.790   4.478 -0.3868  0.0675  0.1361
  716TIP3    H1 2112   6.508   2.802   4.383 -1.6404  1.4548  0.2848
  716TIP3    H2 2113   6.515   2.879   4.513  3.3339 -0.5187  1.4091
  717TIP3   OH2 2114   5.237   2.330   5.545 -0.7309 -0.4361 -0.1417
  717TIP3    H1 2115   5.143   2.338   5.531 -0.7513  0.9786  0.6121
  717TIP3    H2 2116   5.251   2.358   5.635  0.5233  0.3511 -0.5477
  718TIP3   OH2 2117   1.211   6.288   2.183  0.2069 -0.0339 -0.2768
  718TIP3    H1 2118   1.204   6.330   2.097 -1.2965  0.3410 -0.0091
  718TIP3    H2 2119   1.293   6.239   2.180  1.3394  1.8133 -1.1038
  719TIP3   OH2 2120   5.289   2.403   2.215 -0.2522 -0.3334  0.0149
  719TIP3    H1 2121   5.245   2.344   2.276  0.4020 -0.5549  0.2866
  719TIP3    H2 2122   5.382   2.380   2.222  0.3264  2.1739  1.7405
  720TIP3   OH2 2123   4.868   2.106   0.335 -0.4810 -0.4196 -0.4147
  720TIP3    H1 2124   4.871   2.201   0.344 -0.1999 -0.4579 -0.0693
  720TIP3    H2 2125   4.942   2.075   0.387 -1.0877 -0.8789  0.1839
  721TIP3   OH2 2126   0.322   6.235   3.189  0.0783  0.2127  0.1352
  721TIP3    H1 2127   0.376   6.161   3.160 -0.3856 -0.2465  0.4337
  721TIP3    H2 2128   0.251   6.239   3.125  1.2586  1.7695 -1.1477
  722TIP3   OH2 2129   5.365   4.291   1.171 -0.2325 -0.4315 -0.3193
  722TIP3    H1 2130   5.348   4.385   1.180 -1.1779 -0.7996  2.5978
  722TIP3    H2 2131   5.350   4.273   1.078 -1.0947  2.0790 -0.7499
  723TIP3   OH2 2132   0.528   2.472   5.464 -0.7370  0.1124  0.1628
  723TIP3    H1 2133   0.544   2.567   5.467  1.1711 -0.1695  0.4369
  723TIP3    H2 2134   0.610   2.435   5.431 -1.7806 -1.3930 -0.8775
  724TIP3   OH2 2135   0.405   0.757   4.478 -0.2263 -0.1616  0.2123
  724TIP3    H1 2136   0.326   0.804   4.505 -0.2816 -1.3030  2.2181
  724TIP3    H2 2137   0.473   0.789   4.536  0.2513 -0.9178  0.0841
  725TIP3   OH2 2138   0.313   1.539   4.613  0.0261 -0.4177 -0.1496
  725TIP3    H1 2139   0.330   1.624   4.653 -1.4742 -0.3758  0.4573
  725TIP3    H2 2140   0.363   1.541   4.531  0.6056  0.7358  0.2043
  726TIP3   OH2 2141   6.220   1.614   5.593 -0.0400  0.2530 -1.2830
  726TIP3    H1 2142   6.162   1.672   5.544  0.1803  0.1313 -1.6889
  726TIP3    H2 2143   6.223   1.652   5.681 -0.7066  0.2769 -1.2692
  727TIP3   OH2 2144   4.543   1.780   1.260 -0.0867  0.5922  0.2314
  727TIP3    H1 2145   4.550   1.858   1.314  0.3955  1.1713 -0.6417
  727TIP3    H2 2146   4.634   1.752   1.247 -0.0999  1.1522 -1.2353
  728TIP3   OH2 2147   6.942   4.019   1.581 -0.1960  0.7585  0.0678
  728TIP3    H1 2148   6.941   4.092   1.519 -0.5088  0.4758 -0.2644
  728TIP3    H2 2149   6.931   3.941   1.526  0.7203  0.4132  0.3548
  729TIP3   OH2 2150   2.124   2.717   3.789 -0.2321 -0.1284 -0.2997
  729TIP3    H1 2151   2.082   2.800   3.764  1.3473  0.4947 -1.0140
  729TIP3    H2 2152   2.199   2.744   3.842  0.5748 -1.0618 -0.9380
  730TIP3   OH2 2153   3.276   2.840   3.207 -0.2951 -0.1530 -0.4064
  730TIP3    H1 2154   3.328   2.862   3.130 -0.7879 -0.8906 -0.9693
  730TIP3    H2 2155   3.299   2.749   3.226 -0.3115 -0.0294  0.2028
  731TIP3   OH2 2156   2.968   5.755   0.697 -0.0307 -0.1685 -0.2843
  731TIP3    H1 2157   2.989   5.787   0.609  0.4275 -0.2633 -0.2090
  731TIP3    H2 2158   2.997   5.664   0.697  0.0624 -0.1374 -0.0014
  732TIP3   OH2 2159   6.574   5.476   4.268 -0.1804  0.3876  0.1498
  732TIP3    H1 2160   6.650   5.463   4.324 -0.7678  0.5912  1.0157
  732TIP3    H2 2161   6.510   5.411   4.299 -0.5152  0.5040 -0.2865
  733TIP3   OH2 2162   3.509   3.835   0.369 -0.3878  0.4991 -0.0953
  733TIP3    H1 2163   3.430   3.795   0.332  0.8574 -2.3889  0.1393
  733TIP3    H2 2164   3.565   3.852   0.293  0.1544 -0.7584  0.0070
  734TIP3   OH2 2165   0.874   1.097   3.436  0.3810 -0.6058  0.3817
  734TIP3    H1 2166   0.947   1.136   3.388 -0.4828 -1.0803 -1.4079
  734TIP3    H2 2167   0.840   1.169   3.490  0.5315  0.3820 -0.7857
  735TIP3   OH2 2168   5.779   2.397   4.666 -0.3650 -0.0299 -0.0631
  735TIP3    H1 2169   5.831   2.327   4.706  0.5757  0.7442  0.1198
  735TIP3    H2 2170   5.726   2.353   4.600 -0.1500 -0.9816  0.3828
  736TIP3   OH2 2171   3.055   2.071   2.775  0.3276  0.2208  0.0028
  736TIP3    H1 2172   3.023   2.108   2.857  0.6226 -0.7842  0.5788
  736TIP3    H2 2173   3.150   2.084   2.778  0.2927  0.6257 -0.4159
  737TIP3   OH2 2174   0.103   0.272   5.253 -0.6143 -0.4593 -0.2138
  737TIP3    H1 2175   0.153   0.237   5.179 -1.0062 -0.5160 -0.4554
  737TIP3    H2 2176   0.012   0.273   5.222 -0.6313  0.6033 -0.1470
  738TIP3   OH2 2177   3.696   2.024   2.133  0.1025  1.2726  0.4195
  738TIP3    H1 2178   3.643   2.015   2.212  0.5244  2.0978  0.8074
  738TIP3    H2 2179   3.657   2.098   2.086 -1.3469 -0.3783 -1.1358
  739TIP3   OH2 2180   0.884   5.583   0.657 -0.2356 -0.0899 -0.3496
  739TIP3    H1 2181   0.807   5.569   0.712  0.8454 -1.1471  0.9527
  739TIP3    H2 2182   0.942   5.509   0.677  2.2265  1.9630  0.6264
  740TIP3   OH2 2183   4.298   1.644   3.211  0.7864  0.0279  0.1665
  740TIP3    H1 2184   4.389   1.629   3.185  0.8255 -0.8946  0.7994
  740TIP3    H2 2185   4.292   1.739   3.221  0.7101  0.5078 -3.3214
  741TIP3   OH2 2186   5.458   1.061   4.913 -0.1961 -0.4610 -0.2515
  741TIP3    H1 2187   5.387   1.099   4.964 -2.4620 -0.8363 -2.9047
  741TIP3    H2 2188   5.495   1.135   4.864 -0.7324 -0.7108 -1.0515
  742TIP3   OH2 2189   5.663   6.653   2.230  0.3990 -0.1289 -0.2501
  742TIP3    H1 2190   5.756   6.663   2.249  0.6187 -0.9420 -0.8884
  742TIP3    H2 2191   5.646   6.713   2.157  0.3847  0.1169 -0.0479
  743TIP3   OH2 2192   4.603   4.975   1.976  0.0019 -0.0082 -0.0699
  743TIP3    H1 2193   4.638   5.006   1.893 -0.8007  1.4704  0.1188
  743TIP3    H2 2194   4.663   5.011   2.042  0.2068 -0.5461  0.0404
  744TIP3   OH2 2195   1.388   5.359   2.573  0.0625 -0.3048  0.1434
  744TIP3    H1 2196   1.483   5.354   2.567 -0.0550 -2.3793 -1.2465
  744TIP3    H2 2197   1.371   5.426   2.639  2.4957 -0.8572  1.4336
  745TIP3   OH2 2198   0.736   3.237   5.801  0.6098 -0.1130  0.0313
  745TIP3    H1 2199   0.652   3.282   5.791 -0.0400 -1.2527  0.1294
  745TIP3    H2 2200   0.794   3.302   5.840  0.2466  1.2136 -1.5190
  746TIP3   OH2 2201   1.916   5.692   0.142  0.1053  0.8412  0.8810
  746TIP3    H1 2202   1.833   5.684   0.095 -0.6818  0.1373  2.3208
  746TIP3    H2 2203   1.980   5.652   0.084 -1.3323 -2.8610  1.5638
  747TIP3   OH2 2204   1.373   0.804   2.559 -0.4645 -0.8025 -0.0189
  747TIP3    H1 2205   1.291   0.828   2.602 -0.1446  1.2395 -0.4437
  747TIP3    H2 2206   1.433   0.876   2.580  1.3392 -2.3802  0.5241
  748TIP3   OH2 2207   2.217   2.422   5.703 -0.3298  0.2514 -0.0298
  748TIP3    H1 2208   2.243   2.458   5.618  2.4925  0.0905  0.6819
  748TIP3    H2 2209   2.193   2.331   5.683  3.3467 -0.8235 -0.3949
  749TIP3   OH2 2210   1.412   1.461   2.293  0.1155 -0.2056 -0.3943
  749TIP3    H1 2211   1.429   1.450   2.387  2.2600 -1.0326 -0.8009
  749TIP3    H2 2212   1.341   1.525   2.288  1.2286  1.3210  1.7533
  750TIP3   OH2 2213   4.475   2.295   0.058  0.3429 -0.0101  0.2678
  750TIP3    H1 2214   4.566   2.291   0.028  1.4047  0.0155  3.1889
  750TIP3    H2 2215   4.469   2.378   0.105 -1.3469  0.1603 -0.1821
  751TIP3   OH2 2216   5.187   6.415   4.901 -0.0803  0.3349 -0.2058
  751TIP3    H1 2217   5.130   6.403   4.826 -0.4174  1.4948 -0.1650
  751TIP3    H2 2218   5.203   6.327   4.935 -0.8095 -0.0999 -0.9776
  752TIP3   OH2 2219   4.057   3.259   0.370 -0.0051 -0.2076 -0.0667
  752TIP3    H1 2220   4.069   3.212   0.453 -4.7182 -0.9501  0.4581
  752TIP3    H2 2221   4.103   3.205   0.305  1.9779 -0.7659  1.6919
  753TIP3   OH2 2222   2.644   5.551   0.811  0.3152  0.4917  0.2159
  753TIP3    H1 2223   2.650   5.628   0.867 -1.4517  0.5180  0.4156
  753TIP3    H2 2224   2.700   5.486   0.853  1.2164  1.4049  0.4594
  754TIP3   OH2 2225   7.152   3.042   2.727  0.9502  0.1184  0.2298
  754TIP3    H1 2226   7.080   3.030   2.790  2.6011 -0.6507  2.0842
  754TIP3    H2 2227   7.189   3.127   2.749  3.1907 -1.2338  2.2476
  755TIP3   OH2 2228   1.222   2.062   2.279  0.4184  0.0864 -0.1396
  755TIP3    H1 2229   1.240   1.995   2.213  1.3508  0.0687  0.1254
  755TIP3    H2 2230   1.193   2.013   2.356  1.2350 -0.0381  0.1007
  756TIP3   OH2 2231   7.117   6.131   0.516  0.2672  0.4525  0.0316
  756TIP3    H1 2232   7.064   6.135   0.436  0.5741 -3.1598 -0.5045
  756TIP3    H2 2233   7.053   6.140   0.587 -0.5987 -0.2815 -0.6209
  757TIP3   OH2 2234   3.208   6.198   2.513  0.4446 -0.3432  0.8480
  757TIP3    H1 2235   3.183   6.192   2.421 -0.3333  0.0584  1.0268
  757TIP3    H2 2236   3.177   6.115   2.551 -1.8651  0.6531  1.3369
  758TIP3   OH2 2237   1.344   1.174   0.102  0.2103 -0.9405  0.0938
  758TIP3    H1 2238   1.436   1.171   0.074  0.7206 -0.8361  1.7087
  758TIP3    H2 2239   1.305   1.096   0.062  0.9590 -0.9129 -0.7205
  759TIP3   OH2 2240   5.950   1.472   4.239  0.5889 -0.4918  0.2850
  759TIP3    H1 2241   6.045   1.463   4.245  0.5752 -0.0467  1.4964
  759TIP3    H2 2242   5.936   1.555   4.192  0.8252  0.0628  1.1679
  760TIP3   OH2 2243   6.500   0.629   1.107 -0.3887  0.5568  0.2979
  760TIP3    H1 2244   6.531   0.718   1.090  1.1679 -0.0237 -0.0504
  760TIP3    H2 2245   6.433   0.614   1.041  0.2703  1.0221 -0.5005
  761TIP3   OH2 2246   5.175   3.936   2.044  0.9406  0.1573 -0.1751
  761TIP3    H1 2247   5.129   3.982   1.974 -0.6457 -2.2382 -0.8405
  761TIP3    H2 2248   5.260   3.914   2.006  0.6408  0.1177 -0.8298
  762TIP3   OH2 2249   7.161   2.385   2.476  0.4351  0.3690 -0.2278
  762TIP3    H1 2250   7.068   2.363   2.467  0.2706  1.4224 -1.5612
  762TIP3    H2 2251   7.171   2.411   2.567 -0.7957  1.0779 -0.2712
  763TIP3   OH2 2252   0.892   3.103   3.579 -0.3365  0.0656 -0.2566
  763TIP3    H1 2253   0.915   3.174   3.520 -0.1423  0.5274  0.3620
  763TIP3    H2 2254   0.803   3.123   3.608  0.3797  1.0907  1.3634
  764TIP3   OH2 2255   2.417   4.634   0.947  0.5053 -0.5754 -0.5114
  764TIP3    H1 2256   2.411   4.640   0.851 -0.5750 -1.4255 -0.5171
  764TIP3    H2 2257   2.511   4.632   0.964  0.8058  2.2278 -1.3379
  765TIP3   OH2 2258   3.476   4.108   1.849 -0.1433  0.0474 -0.0823
  765TIP3    H1 2259   3.415   4.043   1.885 -0.4252  0.8518  0.9566
  765TIP3    H2 2260   3.549   4.057   1.815 -1.0775 -0.8992 -0.7307
  766TIP3   OH2 2261   3.943   6.419   1.748 -0.1118  0.0399  0.3910
  766TIP3    H1 2262   3.968   6.332   1.779 -0.9486 -0.5741 -0.5851
  766TIP3    H2 2263   4.008   6.478   1.786  1.2123 -1.1611  0.0684
  767TIP3   OH2 2264   4.672   5.467   2.802 -0.4226  0.4333  0.3385
  767TIP3    H1 2265   4.682   5.450   2.709 -1.3051 -1.1356  0.4922
  767TIP3    H2 2266   4.759   5.495   2.831 -0.2031  1.1795 -0.9857
  768TIP3   OH2 2267   4.290   0.898   2.821  0.3851 -0.3037 -0.1933
  768TIP3    H1 2268   4.288   0.989   2.793 -0.8186  0.8206  3.0078
  768TIP3    H2 2269   4.204   0.883   2.860  0.4181 -2.9715 -0.9260
  769TIP3   OH2 2270   2.711   2.585   0.870 -0.5034  0.1668  0.0791
  769TIP3    H1 2271   2.665   2.507   0.901  0.6111 -0.1454  1.0710
  769TIP3    H2 2272   2.649   2.657   0.883 -1.2088 -0.4280  0.0392
  770TIP3   OH2 2273   1.957   1.368   1.371 -0.0525 -0.0336  0.3375
  770TIP3    H1 2274   1.867   1.393   1.390  0.1095  0.9085 -0.0905
  770TIP3    H2 2275   1.978   1.301   1.436 -0.7855  0.3260  0.9508
  771TIP3   OH2 2276   3.740   4.540   4.868  0.1415 -0.4971  0.0389
  771TIP3    H1 2277   3.780   4.494   4.794 -2.4808 -0.5330 -1.5162
  771TIP3    H2 2278   3.709   4.470   4.926  1.7717 -0.4760  0.9962
  772TIP3   OH2 2279   0.452   0.812   0.390 -0.1500  0.0287 -0.0315
  772TIP3    H1 2280   0.410   0.893   0.420 -1.5566 -0.8438  0.4391
  772TIP3    H2 2281   0.486   0.772   0.470 -0.7629 -0.5551 -0.0537
  773TIP3   OH2 2282   3.692   6.731   4.042  0.6770  0.0615 -0.2416
  773TIP3    H1 2283   3.667   6.814   4.084  1.6526  0.6538 -0.7845
  773TIP3    H2 2284   3.674   6.744   3.949 -1.3838 -1.2143 -0.0864
  774TIP3   OH2 2285   5.366   1.605   5.449  0.4889 -0.0131  0.0668
  774TIP3    H1 2286   5.329   1.588   5.362 -0.3822  0.2931  0.3742
  774TIP3    H2 2287   5.461   1.612   5.433  0.1797  1.9983 -1.1823
  775TIP3   OH2 2288   1.551   6.148   2.865  0.4664  0.5488  0.0896
  775TIP3    H1 2289   1.551   6.218   2.930  0.4971 -0.9938  1.8144
  775TIP3    H2 2290   1.626   6.167   2.809 -0.9812  3.2867 -1.1497
  776TIP3   OH2 2291   1.017   3.677   0.474  0.3231 -0.2412  0.2208
  776TIP3    H1 2292   0.980   3.705   0.390 -0.5748  0.3506  0.8030
  776TIP3    H2 2293   1.112   3.679   0.460  0.1867 -0.2476 -0.8030
  777TIP3   OH2 2294   3.809   4.206   2.039  0.2399  0.0776  0.1776
  777TIP3    H1 2295   3.778   4.249   2.118  2.3293 -0.6624  1.4628
  777TIP3    H2 2296   3.742   4.140   2.019 -0.9639  1.1578  0.5071
  778TIP3   OH2 2297   4.421   0.040   0.122  0.6786 -0.0894  0.0784
  778TIP3    H1 2298   4.376   0.095   0.058 -1.1300 -1.4246  0.1284
  778TIP3    H2 2299   4.459   0.102   0.184 -1.2000  1.1388  0.0861
  779TIP3   OH2 2300   1.986   0.669   0.578  0.3662 -0.2229  0.1405
  779TIP3    H1 2301   1.896   0.644   0.556  0.3641  0.3468 -0.4991
  779TIP3    H2 2302   1.993   0.761   0.553  1.1739 -0.2987  0.0578
  780TIP3   OH2 2303   6.737   1.511   3.221  0.3175 -0.6443 -0.0983
  780TIP3    H1 2304   6.811   1.512   3.160 -0.2387 -0.2736 -0.7858
  780TIP3    H2 2305   6.757   1.580   3.284 -0.3201  0.7890 -1.3975
  781TIP3   OH2 2306   1.647   3.120   1.034 -0.1241  0.1158 -0.1187
  781TIP3    H1 2307   1.668   3.027   1.047 -0.7830 -0.0622 -0.2723
  781TIP3    H2 2308   1.578   3.138   1.098 -1.6004 -0.1051 -1.5770
  782TIP3   OH2 2309   0.344   2.555   3.050 -0.1137 -0.1362 -0.4264
  782TIP3    H1 2310   0.269   2.613   3.038  0.7115  0.9435 -0.4911
  782TIP3    H2 2311   0.333   2.520   3.139  0.7628  2.2299  0.6939
  783TIP3   OH2 2312   1.181   2.535   1.235 -0.0483 -0.3167  0.5472
  783TIP3    H1 2313   1.247   2.467   1.223  0.5629  0.5441 -1.2577
  783TIP3    H2 2314   1.099   2.487   1.248  0.5119 -1.3935  0.2133
  784TIP3   OH2 2315   5.801   1.149   2.093 -0.1390  0.2551  0.1301
  784TIP3    H1 2316   5.723   1.199   2.118  0.7998  1.7734  0.1387
  784TIP3    H2 2317   5.849   1.207   2.034  0.5040 -1.0569 -0.6949
  785TIP3   OH2 2318   3.355   5.250   2.267  0.3873 -0.2559  0.2299
  785TIP3    H1 2319   3.406   5.181   2.226 -0.1656 -1.4669  1.5098
  785TIP3    H2 2320   3.274   5.253   2.216  0.6125 -0.2080 -0.1283
  786TIP3   OH2 2321   2.918   3.516   3.524  0.3451  0.3644 -0.1922
  786TIP3    H1 2322   2.886   3.428   3.544  0.8874 -0.1226 -1.3748
  786TIP3    H2 2323   2.845   3.574   3.548 -1.3640 -0.6723 -2.4722
  787TIP3   OH2 2324   4.082   3.530   2.019  0.0654  0.2708 -0.5111
  787TIP3    H1 2325   4.022   3.522   1.945 -0.4775  0.1003 -0.0519
  787TIP3    H2 2326   4.102   3.623   2.023  0.3840  0.2368 -1.0912
  788TIP3   OH2 2327   0.124   3.572   0.465 -0.5923 -0.7747  0.7079
  788TIP3    H1 2328   0.152   3.501   0.524  4.1398  0.2605  0.1306
  788TIP3    H2 2329   0.084   3.637   0.523  1.8608 -0.7858  2.5753
  789TIP3   OH2 2330   0.840   1.572   5.053  0.0272  0.0871 -0.0653
  789TIP3    H1 2331   0.751   1.571   5.089  0.3504 -0.8509  0.7752
  789TIP3    H2 2332   0.895   1.544   5.127  0.8621 -0.6740 -0.9529
  790TIP3   OH2 2333   3.750   5.682   4.735  0.4461  0.2957  0.1300
  790TIP3    H1 2334   3.776   5.606   4.786 -0.1907 -0.5085 -0.6938
  790TIP3    H2 2335   3.825   5.700   4.678 -0.4931 -1.7820 -1.9803
  791TIP3   OH2 2336   2.092   0.114   3.291  0.0651 -0.3641 -0.5514
  791TIP3    H1 2337   2.123   0.204   3.298  0.4510 -0.6184  2.2583
  791TIP3    H2 2338   2.155   0.063   3.343 -2.2193 -1.6519  1.1219
  792TIP3   OH2 2339   0.969   3.500   5.189 -0.1625 -0.2923 -0.2714
  792TIP3    H1 2340   0.940   3.499   5.098  1.5303 -1.2311 -0.8506
  792TIP3    H2 2341   0.960   3.409   5.218 -1.6973  0.1787  0.8887
  793TIP3   OH2 2342   5.072   5.370   4.968  0.0127  0.4151 -0.0364
  793TIP3    H1 2343   4.998   5.403   5.019 -0.3597  1.3979 -1.1907
  793TIP3    H2 2344   5.110   5.448   4.927  2.6336  0.1983  1.6758
  794TIP3   OH2 2345   2.084   3.069   1.001  0.2448 -0.5487 -0.2109
  794TIP3    H1 2346   2.006   3.096   0.953  1.0448  0.6531 -0.8819
  794TIP3    H2 2347   2.069   2.977   1.023 -1.8359 -0.0496  0.6490
  795TIP3   OH2 2348   3.350   2.033   0.490 -0.1285 -0.9194  0.2929
  795TIP3    H1 2349   3.361   2.126   0.511  2.1514 -1.6561  3.0516
  795TIP3    H2 2350   3.434   2.007   0.453 -0.1634 -2.1612  1.0248
  796TIP3   OH2 2351   0.166   5.231   5.478 -0.0804 -0.3953 -0.1264
  796TIP3    H1 2352   0.083   5.266   5.447 -1.1980 -0.5277  2.5085
  796TIP3    H2 2353   0.220   5.308   5.496 -0.3635 -0.2406  0.0597
  797TIP3   OH2 2354   1.497   0.156   5.725  0.4613 -0.6591 -0.3443
  797TIP3    H1 2355   1.408   0.121   5.721  0.4989 -0.8602  0.4739
  797TIP3    H2 2356   1.527   0.157   5.634 -0.4750 -0.3333 -0.6528
  798TIP3   OH2 2357   7.012   0.159   2.362  0.3005 -0.4550 -0.0379
  798TIP3    H1 2358   7.106   0.171   2.352  0.1595  0.3176 -0.4915
  798TIP3    H2 2359   6.977   0.248   2.368 -0.9225 -0.3480 -4.6949
  799TIP3   OH2 2360   6.933   5.431   5.506 -0.2275 -0.2811 -0.3044
  799TIP3    H1 2361   6.847   5.427   5.465 -0.8694 -0.2055  0.9938
  799TIP3    H2 2362   6.940   5.521   5.539 -0.6062 -0.8812  1.5302
  800TIP3   OH2 2363   3.656   4.308   2.258  0.2843 -0.3036 -0.4814
  800TIP3    H1 2364   3.663   4.269   2.346  2.0920 -2.7245 -1.5837
  800TIP3    H2 2365   3.562   4.318   2.244 -0.0552  1.7371  2.2949
  801TIP3   OH2 2366   1.516   3.808   3.801  0.3795  0.8067  0.1950
  801TIP3    H1 2367   1.425   3.822   3.828  0.8403  1.5098  1.4686
  801TIP3    H2 2368   1.566   3.812   3.883  1.6611  1.2605 -0.5871
  802TIP3   OH2 2369   6.328   4.999   3.482  0.1607 -0.2154  0.2076
  802TIP3    H1 2370   6.416   4.986   3.448  0.3453 -0.6667  0.8469
  802TIP3    H2 2371   6.275   4.931   3.440  0.3563 -0.6698  0.6841
  803TIP3   OH2 2372   0.921   4.250   1.532  0.3737 -0.1027 -0.1095
  803TIP3    H1 2373   0.984   4.300   1.481  1.4970 -0.6416  0.7023
  803TIP3    H2 2374   0.935   4.277   1.623 -0.0319 -0.7979  0.1740
  804TIP3   OH2 2375   6.519   1.607   4.380 -0.6073  0.4830 -0.1993
  804TIP3    H1 2376   6.444   1.614   4.440  0.0765  0.8348  0.6393
  804TIP3    H2 2377   6.581   1.673   4.411 -0.2700  0.7313 -1.3628
  805TIP3   OH2 2378   2.663   0.079   0.232 -0.0379 -0.6519  0.4391
  805TIP3    H1 2379   2.717   0.092   0.311 -0.3384  1.0718  0.4076
  805TIP3    H2 2380   2.574   0.076   0.265 -0.0553 -1.9821  0.3344
  806TIP3   OH2 2381   4.971   4.201   5.518 -0.4382 -0.3509 -0.5710
  806TIP3    H1 2382   5.016   4.126   5.556 -0.0861  0.1612  0.0277
  806TIP3    H2 2383   4.880   4.190   5.544 -0.2990 -0.3031 -0.0553
  807TIP3   OH2 2384   6.581   2.202   3.184  0.2440  0.1203 -0.1837
  807TIP3    H1 2385   6.644   2.233   3.249 -0.8356 -1.0920  1.5281
  807TIP3    H2 2386   6.520   2.275   3.174 -1.0930 -0.5572  2.2458
  808TIP3   OH2 2387   5.003   1.059   4.077 -0.0883  0.1417  0.0845
  808TIP3    H1 2388   5.047   0.986   4.122  1.1403  1.9702  2.0065
  808TIP3    H2 2389   5.072   1.124   4.064 -1.2418  1.1504 -1.2251
  809TIP3   OH2 2390   5.143   0.463   0.386 -0.5874  0.8014 -0.6803
  809TIP3    H1 2391   5.190   0.496   0.309 -1.0405  0.6664 -1.0187
  809TIP3    H2 2392   5.070   0.413   0.350  0.7316 -1.6042 -0.2070
  810TIP3   OH2 2393   4.512   5.278   5.284 -0.1900 -0.6896 -0.1309
  810TIP3    H1 2394   4.570   5.314   5.352 -0.0644  0.1817 -0.6842
  810TIP3    H2 2395   4.427   5.268   5.327 -0.5115  1.3058 -0.2344
  811TIP3   OH2 2396   6.111   0.601   1.520  0.2741 -0.2780  0.4357
  811TIP3    H1 2397   6.056   0.523   1.509  0.3343 -0.0040 -2.7378
  811TIP3    H2 2398   6.106   0.620   1.614 -0.7324 -3.3400  1.1392
  812TIP3   OH2 2399   2.533   3.574   3.075 -0.2533  0.2773 -0.2875
  812TIP3    H1 2400   2.628   3.574   3.092 -0.5379  1.2093  1.6486
  812TIP3    H2 2401   2.517   3.492   3.029  1.1469 -1.2485  1.7468
  813TIP3   OH2 2402   0.140   6.719   0.803  0.1857  0.3054  0.1047
  813TIP3    H1 2403   0.084   6.719   0.725  0.7096  2.8817 -0.3695
  813TIP3    H2 2404   0.213   6.777   0.779  0.1030  1.5887  2.6637
  814TIP3   OH2 2405   2.149   2.281   5.020 -0.8404 -0.0279  0.3632
  814TIP3    H1 2406   2.209   2.275   4.946 -0.3799  0.7341  0.6556
  814TIP3    H2 2407   2.125   2.374   5.024 -0.5677  0.0166  1.3782
  815TIP3   OH2 2408   4.083   4.400   3.292  0.2834  0.2357  0.2167
  815TIP3    H1 2409   4.047   4.487   3.277 -1.3816 -0.1627  1.5070
  815TIP3    H2 2410   4.011   4.340   3.269  1.1623 -0.7626 -0.0246
  816TIP3   OH2 2411   6.520   2.586   0.028  0.1444  0.1740  0.2939
  816TIP3    H1 2412   6.493   2.667  -0.015  0.3208  0.1762  0.1831
  816TIP3    H2 2413   6.614   2.597   0.043  0.1037  0.1281  0.5881
  817TIP3   OH2 2414   1.186   6.470   2.395  0.7001  0.1965  0.5386
  817TIP3    H1 2415   1.198   6.388   2.346  0.1483  1.0214 -1.0533
  817TIP3    H2 2416   1.175   6.537   2.327 -0.3311  1.3700  1.7978
  818TIP3   OH2 2417   2.568   0.649   1.827  0.4825  0.2394  0.0823
  818TIP3    H1 2418   2.633   0.623   1.761  0.5071  0.4364  0.0288
  818TIP3    H2 2419   2.534   0.566   1.861  0.1194  0.1297 -0.5241
  819TIP3   OH2 2420   2.830   3.076   3.213  0.0204  0.1100  0.0366
  819TIP3    H1 2421   2.828   3.034   3.299 -0.3805  1.3060  0.6407
  819TIP3    H2 2422   2.797   3.009   3.153  1.8970 -1.3242  0.5136
  820TIP3   OH2 2423   3.969   0.403   4.662 -0.3404  0.0599  0.4345
  820TIP3    H1 2424   3.961   0.389   4.756  0.8435  0.6227  0.6399
  820TIP3    H2 2425   4.000   0.493   4.654  1.6968 -0.6676 -0.3853
  821TIP3   OH2 2426   1.628   4.948   4.054  0.0310  0.0088 -0.0890
  821TIP3    H1 2427   1.633   4.853   4.040  1.1584  0.0873 -0.2961
  821TIP3    H2 2428   1.648   4.959   4.147 -2.7894 -0.1395  0.6149
  822TIP3   OH2 2429   0.322   4.931   3.018  0.3971  0.1061  0.5766
  822TIP3    H1 2430   0.310   5.024   3.002  1.0294 -0.0281 -0.8204
  822TIP3    H2 2431   0.306   4.889   2.933  0.1808 -1.0616  1.1622
  823TIP3   OH2 2432   5.871   2.159   3.183  0.2292  0.2279  0.1490
  823TIP3    H1 2433   5.824   2.240   3.163  0.3495  0.0888 -0.7387
  823TIP3    H2 2434   5.918   2.138   3.102  1.3160  0.0236  0.8198
  824TIP3   OH2 2435   6.631   5.670   5.668 -0.0950 -0.3888  0.6629
  824TIP3    H1 2436   6.615   5.625   5.585 -0.6212  0.4729  0.2772
  824TIP3    H2 2437   6.724   5.693   5.667 -0.4773  1.3185 -0.5961
  825TIP3   OH2 2438   2.912   1.764   4.506 -0.6488  0.5728  0.1242
  825TIP3    H1 2439   2.819   1.754   4.489 -0.4806 -0.4204 -0.3228
  825TIP3    H2 2440   2.954   1.738   4.424 -0.0207  3.5842 -0.6326
  826TIP3   OH2 2441   1.666   1.201   3.870 -0.0938 -0.3640  0.6238
  826TIP3    H1 2442   1.717   1.121   3.873  0.1054 -0.2488  0.3413
  826TIP3    H2 2443   1.710   1.256   3.805 -2.0965 -1.3405 -1.7621
  827TIP3   OH2 2444   2.929   3.827   1.036  0.4664 -0.0508  0.1800
  827TIP3    H1 2445   2.837   3.826   1.011  0.9243 -1.2494 -1.6298
  827TIP3    H2 2446   2.946   3.739   1.070  0.7792  0.3973  1.2207
  828TIP3   OH2 2447   4.844   2.986   3.488 -0.0272 -0.4510 -0.5617
  828TIP3    H1 2448   4.862   2.928   3.415 -0.3513 -1.5094  0.1812
  828TIP3    H2 2449   4.812   2.929   3.558 -1.8805  0.7874 -0.3168
  829TIP3   OH2 2450   3.167   0.960   5.693 -0.5115  0.3869 -0.0077
  829TIP3    H1 2451   3.253   0.992   5.720 -0.0373 -1.0668  0.3041
  829TIP3    H2 2452   3.114   0.962   5.773 -0.6159  0.7562 -0.0811
  830TIP3   OH2 2453   2.735   0.431   0.811  0.6057 -0.0581  0.3349
  830TIP3    H1 2454   2.756   0.423   0.904  2.8126 -1.6387 -0.2133
  830TIP3    H2 2455   2.819   0.451   0.769  0.0061 -1.1063 -1.4776
  831TIP3   OH2 2456   0.490   0.251   0.766  0.2534  0.5896 -0.3797
  831TIP3    H1 2457   0.429   0.258   0.693  1.8282 -0.8667 -1.9484
  831TIP3    H2 2458   0.521   0.160   0.763  3.3485  1.5189 -0.4665
  832TIP3   OH2 2459  -0.017   6.007   1.853 -0.3823  0.2041 -0.4290
  832TIP3    H1 2460   0.021   6.054   1.779  1.2594  0.6519  0.6447
  832TIP3    H2 2461   0.052   5.948   1.883 -0.2885  1.3472  1.8455
  833TIP3   OH2 2462   2.139   6.629   5.082  0.1032  0.2319  0.4830
  833TIP3    H1 2463   2.081   6.679   5.139  1.0828  0.4738  1.2918
  833TIP3    H2 2464   2.191   6.695   5.038  1.6413 -0.0428  1.8050
  834TIP3   OH2 2465   7.098   6.160   5.746 -0.4308 -0.4869 -0.3778
  834TIP3    H1 2466   7.180   6.125   5.782 -0.9551  0.2301  1.6559
  834TIP3    H2 2467   7.104   6.142   5.652  3.0462  1.4044 -0.6969
  835TIP3   OH2 2468   1.999   1.065   3.372  0.3150  0.3836 -0.0507
  835TIP3    H1 2469   1.975   1.024   3.456  2.0465 -0.1989  0.1895
  835TIP3    H2 2470   1.939   1.139   3.365 -1.0605 -0.5824  0.8330
  836TIP3   OH2 2471   0.666   5.652   4.086 -0.0333 -0.6235 -0.0876
  836TIP3    H1 2472   0.720   5.616   4.016  0.2214 -3.9407  1.5834
  836TIP3    H2 2473   0.728   5.673   4.156 -0.4708  0.4813 -0.0190
  837TIP3   OH2 2474   3.662   0.856   0.067 -0.1557 -0.6858  0.2702
  837TIP3    H1 2475   3.570   0.880   0.081  0.3440  0.4757  1.8938
  837TIP3    H2 2476   3.694   0.920   0.003  0.3020  0.9545  2.0751
  838TIP3   OH2 2477   4.884   2.986   2.401 -0.6232 -0.3065 -0.3463
  838TIP3    H1 2478   4.905   2.892   2.401 -1.2356 -0.4552 -0.2438
  838TIP3    H2 2479   4.966   3.030   2.380 -0.8386 -0.9751 -2.9144
  839TIP3   OH2 2480   6.369   1.902   4.690 -0.1198 -0.1110 -0.1139
  839TIP3    H1 2481   6.457   1.874   4.666  0.3196  2.2520 -1.5724
  839TIP3    H2 2482   6.324   1.914   4.607 -1.7847 -1.0397  0.6071
  840TIP3   OH2 2483   7.017   0.417   4.760 -0.3317  0.1339 -0.0903
  840TIP3    H1 2484   7.032   0.425   4.666  1.8648  1.4035  0.3045
  840TIP3    H2 2485   7.093   0.370   4.793 -0.3586  0.9471  1.2225
  841TIP3   OH2 2486   0.331   5.412   0.183 -0.5515  0.1873  0.1667
  841TIP3    H1 2487   0.274   5.388   0.109 -1.0030  3.8334 -0.8576
  841TIP3    H2 2488   0.412   5.442   0.142  0.6030 -1.0930  1.4178
  842TIP3   OH2 2489   6.595   6.718   5.204 -0.0502 -0.1620  0.4451
  842TIP3    H1 2490   6.562   6.727   5.115 -0.9971 -1.8858  0.5820
  842TIP3    H2 2491   6.538   6.774   5.256  0.9375  1.3965 -0.0827
  843TIP3   OH2 2492   0.099   4.702   3.254  0.1119  0.3912  0.2639
  843TIP3    H1 2493   0.009   4.695   3.285 -0.5325  2.1284 -1.0365
  843TIP3    H2 2494   0.094   4.690   3.160  1.0246  1.7946  0.0055
  844TIP3   OH2 2495   4.508   5.749   0.571 -0.6648 -0.5830 -0.3855
  844TIP3    H1 2496   4.467   5.673   0.611 -0.2784 -0.9044 -0.5941
  844TIP3    H2 2497   4.437   5.793   0.525 -1.2057  0.0295  0.9931
  845TIP3   OH2 2498   2.142   1.975   3.052  0.5703  0.1284  0.2651
  845TIP3    H1 2499   2.070   1.939   3.104  1.1891 -0.5288  0.6937
  845TIP3    H2 2500   2.147   1.918   2.975  0.3020  0.4929 -0.0269
  846TIP3   OH2 2501   0.782   5.678   1.777  0.7687 -0.1159  0.0835
  846TIP3    H1 2502   0.822   5.744   1.720 -0.7412  0.1235 -0.7651
  846TIP3    H2 2503   0.805   5.595   1.735  2.4921 -0.1745  1.0361
  847TIP3   OH2 2504   0.630   1.842   1.667 -0.3112 -0.3925 -0.3709
  847TIP3    H1 2505   0.631   1.861   1.761  1.0860  2.6249 -0.8837
  847TIP3    H2 2506   0.540   1.857   1.640 -0.7240 -1.2765  0.4306
  848TIP3   OH2 2507   6.736   1.540   3.763  0.3576  0.2606  0.3279
  848TIP3    H1 2508   6.826   1.541   3.730  1.4716 -2.2096  2.8789
  848TIP3    H2 2509   6.687   1.492   3.697  1.3581 -0.0918 -0.1784
  849TIP3   OH2 2510   4.340   1.319   3.056 -0.0030  0.9881 -0.1711
  849TIP3    H1 2511   4.401   1.391   3.075 -1.4120  2.3968 -0.7310
  849TIP3    H2 2512   4.258   1.363   3.034 -0.6730 -0.7982 -1.4406
  850TIP3   OH2 2513   1.521   2.993   0.095  0.6367  0.2642  0.0350
  850TIP3    H1 2514   1.571   2.943   0.031 -0.9654 -0.9905 -0.2962
  850TIP3    H2 2515   1.576   2.995   0.173  0.4285 -2.8604  0.3813
  851TIP3   OH2 2516   0.636   0.797   2.795 -0.2593  0.4425  0.3274
  851TIP3    H1 2517   0.592   0.783   2.879  0.5523 -0.8316  0.5723
  851TIP3    H2 2518   0.721   0.834   2.819 -0.5998  1.4990 -0.0443
  852TIP3   OH2 2519   5.178   0.245   4.457 -0.0952 -0.2590 -0.0831
  852TIP3    H1 2520   5.239   0.299   4.507 -0.5366  0.0843  0.0877
  852TIP3    H2 2521   5.194   0.156   4.488  1.9055 -0.5111 -1.6358
  853TIP3   OH2 2522   7.039   1.397   3.372  0.2038 -1.2792 -0.3034
  853TIP3    H1 2523   7.113   1.380   3.314  0.5768  0.2792 -0.3205
  853TIP3    H2 2524   6.967   1.346   3.334 -0.2664  1.5926 -3.7301
  854TIP3   OH2 2525   6.040   2.350   0.692 -0.5915  0.0517 -0.2406
  854TIP3    H1 2526   6.024   2.431   0.742  2.9674  0.3045  0.7587
  854TIP3    H2 2527   6.035   2.280   0.757 -0.6861 -0.1711 -0.4884
  855TIP3   OH2 2528   6.690   0.919   4.292 -0.4628  0.5275  0.2768
  855TIP3    H1 2529   6.736   0.944   4.372  0.8805  2.7208 -1.0881
  855TIP3    H2 2530   6.691   0.823   4.293  0.8397  0.5039  2.1308
  856TIP3   OH2 2531   0.493   1.546   1.829 -0.2583 -0.0289 -0.1601
  856TIP3    H1 2532   0.462   1.456   1.828 -2.9582  0.7715  0.7569
  856TIP3    H2 2533   0.550   1.552   1.906 -1.4549 -0.6074  0.8136
  857TIP3   OH2 2534   4.759   5.050   5.856  0.2203 -0.0873 -0.0476
  857TIP3    H1 2535   4.702   5.028   5.782 -0.2800 -0.6532  0.4839
  857TIP3    H2 2536   4.713   5.014   5.932  1.5670 -1.0520  0.3395
  858TIP3   OH2 2537   1.035   5.965   4.149  0.0030  0.0507 -0.5434
  858TIP3    H1 2538   1.094   5.915   4.206 -0.6359 -2.3983 -1.9207
  858TIP3    H2 2539   1.080   5.968   4.065 -0.5698  0.6888 -0.8348
  859TIP3   OH2 2540   2.831   0.651   3.234 -0.0185 -0.3706  0.3704
  859TIP3    H1 2541   2.863   0.585   3.295  0.0686 -0.4726  0.2138
  859TIP3    H2 2542   2.815   0.728   3.289  2.1773  0.2660  0.1987
  860TIP3   OH2 2543   0.722   6.537   2.931  0.1115 -0.1854  0.5723
  860TIP3    H1 2544   0.629   6.533   2.953 -0.2572  0.0491 -0.8149
  860TIP3    H2 2545   0.734   6.466   2.867  1.2193 -1.1560  1.7974
  861TIP3   OH2 2546   4.915   1.777   2.218  0.0104 -0.0779  0.4583
  861TIP3    H1 2547   4.984   1.715   2.242  0.4782 -0.0076 -0.6622
  861TIP3    H2 2548   4.852   1.725   2.168  0.4669  0.3666 -0.5966
  862TIP3   OH2 2549   6.533   2.659   4.718 -0.4549  0.8910 -0.1158
  862TIP3    H1 2550   6.532   2.708   4.635 -0.6452  1.3832  0.1723
  862TIP3    H2 2551   6.584   2.714   4.777  1.0572 -0.1985 -0.3390
  863TIP3   OH2 2552   5.483   2.590   0.876 -0.5057 -0.7999 -0.1206
  863TIP3    H1 2553   5.500   2.638   0.796  0.4435 -0.6618  0.1534
  863TIP3    H2 2554   5.442   2.508   0.847 -1.0261 -0.3522 -0.6682
  864TIP3   OH2 2555   2.768   0.229   3.224  0.2494  0.2052 -0.0315
  864TIP3    H1 2556   2.681   0.188   3.229  0.1798  0.1916 -1.1393
  864TIP3    H2 2557   2.766   0.297   3.291 -0.4265 -0.1398  0.3128
  865TIP3   OH2 2558   5.569   4.448   0.794 -0.3507 -0.0990 -0.1809
  865TIP3    H1 2559   5.625   4.495   0.733  1.2764 -1.1256  0.4713
  865TIP3    H2 2560   5.514   4.393   0.738 -1.0649  1.2515 -0.8495
  866TIP3   OH2 2561   1.129   0.031   3.568  0.1303  0.4171 -0.1830
  866TIP3    H1 2562   1.130   0.034   3.664  0.9806 -0.0178 -0.1651
  866TIP3    H2 2563   1.109   0.120   3.541 -1.1274  0.3386  0.3976
  867TIP3   OH2 2564   2.779   3.913   5.199  0.6594 -0.3287  0.3464
  867TIP3    H1 2565   2.854   3.908   5.140  1.5906 -0.5299  1.5001
  867TIP3    H2 2566   2.780   3.829   5.246  1.1832  0.6124  2.0774
  868TIP3   OH2 2567   2.666   4.331   0.180 -0.1137 -0.0580  0.3493
  868TIP3    H1 2568   2.731   4.261   0.173 -3.1026 -3.2122  1.1246
  868TIP3    H2 2569   2.685   4.390   0.107  1.5683 -2.6551 -1.4651
  869TIP3   OH2 2570   3.672   1.313   2.267 -0.0259 -0.4327  0.0392
  869TIP3    H1 2571   3.691   1.231   2.312 -1.3246 -1.3592 -1.0300
  869TIP3    H2 2572   3.583   1.302   2.233  0.0756  1.1106 -0.8293
  870TIP3   OH2 2573   1.812   0.379   3.976 -0.1833 -0.2187 -0.3084
  870TIP3    H1 2574   1.839   0.320   3.905 -1.6387 -0.5007 -0.6529
  870TIP3    H2 2575   1.725   0.409   3.951 -0.5949 -0.0590  1.2112
  871TIP3   OH2 2576   6.371   2.375   3.496  0.5976  0.2958  0.3065
  871TIP3    H1 2577   6.370   2.409   3.586  2.0946 -1.7944  1.2164
  871TIP3    H2 2578   6.464   2.371   3.474  0.2247  1.2236 -1.5462
  872TIP3   OH2 2579   1.183   0.836   5.283  0.2459 -0.6796  0.1888
  872TIP3    H1 2580   1.101   0.885   5.274  0.8292  0.2525 -0.1753
  872TIP3    H2 2581   1.156   0.752   5.320 -0.8299 -0.2519  0.4293
  873TIP3   OH2 2582   1.128   3.706   1.878  0.1851 -0.3761  0.4817
  873TIP3    H1 2583   1.213   3.699   1.921  0.3325  1.1493  0.4681
  873TIP3    H2 2584   1.147   3.685   1.786  0.6508  0.3868  0.3903
  874TIP3   OH2 2585   5.386   2.566   2.553  0.4661  0.0229 -0.3270
  874TIP3    H1 2586   5.343   2.539   2.634  0.8333  0.0616 -0.1154
  874TIP3    H2 2587   5.314   2.584   2.492  0.1814  0.2685  0.0779
  875TIP3   OH2 2588   6.037   1.572   2.298 -0.2696 -0.0498 -0.0810
  875TIP3    H1 2589   6.098   1.545   2.229 -0.4205  1.6736 -0.9415
  875TIP3    H2 2590   6.086   1.561   2.379 -0.0063 -1.8906 -0.4335
  876TIP3   OH2 2591   4.973   5.143   3.983  0.2941 -0.0174  0.4437
  876TIP3    H1 2592   5.031   5.219   3.989  0.3877 -0.1402  1.2566
  876TIP3    H2 2593   5.025   5.071   4.018 -0.5939  0.0198  1.9259
  877TIP3   OH2 2594   3.092   1.636   1.636  0.1000  0.2582 -0.0781
  877TIP3    H1 2595   3.009   1.638   1.588  0.1596 -1.1316 -0.2852
  877TIP3    H2 2596   3.086   1.559   1.692  1.8829 -0.8661 -1.3160
  878TIP3   OH2 2597   5.811   4.775   0.447 -0.8604  0.2171  0.6064
  878TIP3    H1 2598   5.808   4.831   0.525 -0.0373 -0.0554  0.8384
  878TIP3    H2 2599   5.812   4.836   0.373  1.4739  0.6010  0.8750
  879TIP3   OH2 2600   1.802   0.228   4.697 -0.3131 -0.0911 -0.3154
  879TIP3    H1 2601   1.881   0.214   4.750  0.4289  1.8121 -0.8405
  879TIP3    H2 2602   1.755   0.297   4.744 -0.2321  0.7882 -1.5043
  880TIP3   OH2 2603   1.274   0.185   3.293 -0.5853 -0.1393  0.1366
  880TIP3    H1 2604   1.298   0.126   3.222  0.4254 -0.9074  1.0669
  880TIP3    H2 2605   1.345   0.175   3.357 -1.3903  0.6196  1.1885
  881TIP3   OH2 2606   0.451   2.536   2.556  0.3651  0.1090  0.5984
  881TIP3    H1 2607   0.511   2.606   2.532  0.7103 -0.1407  0.7117
  881TIP3    H2 2608   0.440   2.546   2.651 -2.8477  2.5481  0.1225
  882TIP3   OH2 2609   3.577   5.483   1.680  0.4543 -0.1731  0.5102
  882TIP3    H1 2610   3.573   5.390   1.701  0.0115 -0.0674  0.9059
  882TIP3    H2 2611   3.577   5.528   1.764  3.6801  0.1305  0.4742
  883TIP3   OH2 2612   6.364   0.266   0.802  0.2158  0.0409  0.6201
  883TIP3    H1 2613   6.327   0.353   0.818 -2.0305 -0.5445 -0.9306
  883TIP3    H2 2614   6.367   0.259   0.707  0.5469 -1.4913  0.7286
  884TIP3   OH2 2615   4.882   1.074   1.572 -0.0206  0.1984 -0.2338
  884TIP3    H1 2616   4.806   1.027   1.606  0.6585 -1.5895 -1.0689
  884TIP3    H2 2617   4.881   1.057   1.478  2.2192 -1.2179 -0.0997
  885TIP3   OH2 2618   0.845   4.604   2.558  0.0932 -0.0010 -0.0336
  885TIP3    H1 2619   0.826   4.666   2.628  0.5221  0.8318 -0.6393
  885TIP3    H2 2620   0.835   4.518   2.599  0.8491  0.4675  1.1984
  886TIP3   OH2 2621   2.988   3.178   2.192 -0.0409  0.4479 -0.3426
  886TIP3    H1 2622   3.059   3.174   2.256  0.2876 -0.3600 -0.7391
  886TIP3    H2 2623   2.947   3.263   2.207 -0.3082  0.0591  1.2835
  887TIP3   OH2 2624   3.154   3.932   2.716 -0.8119 -0.8282 -0.4170
  887TIP3    H1 2625   3.220   3.962   2.778 -2.3594 -1.1729  1.5066
  887TIP3    H2 2626   3.204   3.902   2.639  1.0238  2.1082 -0.4996
  888TIP3   OH2 2627   2.324   0.840   4.557  0.6584 -0.0687 -0.2053
  888TIP3    H1 2628   2.411   0.880   4.563  0.3071  1.3619 -3.0992
  888TIP3    H2 2629   2.304   0.840   4.464 -2.5199 -0.2780  0.3684
  889TIP3   OH2 2630   5.604   5.288   2.743  0.2889  0.7445  0.4135
  889TIP3    H1 2631   5.519   5.252   2.717  0.0209  1.3639  0.4026
  889TIP3    H2 2632   5.643   5.221   2.800 -0.7081  0.9327  1.3517
  890TIP3   OH2 2633   5.254   3.423   3.320  0.3990  0.0741  0.1117
  890TIP3    H1 2634   5.257   3.391   3.230  3.3246 -1.5186  0.6595
  890TIP3    H2 2635   5.160   3.429   3.341 -0.3308 -0.5429 -2.6422
  891TIP3   OH2 2636   1.843   4.907   4.646 -0.1045 -0.3472 -0.2005
  891TIP3    H1 2637   1.776   4.838   4.647 -0.9731  0.4781  0.2515
  891TIP3    H2 2638   1.918   4.868   4.691 -0.5938 -0.9950  0.0725
  892TIP3   OH2 2639   4.160   5.753   1.266 -0.0900  0.5408  0.4703
  892TIP3    H1 2640   4.120   5.760   1.179  0.2718  0.1381  0.2706
  892TIP3    H2 2641   4.197   5.840   1.283 -0.0004  0.5661  0.1431
  893TIP3   OH2 2642   4.893   4.078   0.059  0.2246  0.3745 -0.2373
  893TIP3    H1 2643   4.868   4.093   0.151 -2.6680  1.0773 -1.0318
  893TIP3    H2 2644   4.893   3.983   0.050 -2.3699  0.2768 -0.1041
  894TIP3   OH2 2645   6.714   6.523   3.653  0.1017 -0.4544  0.2445
  894TIP3    H1 2646   6.755   6.563   3.730 -0.0344 -0.9620  0.5924
  894TIP3    H2 2647   6.785   6.510   3.591  0.0833  0.6595 -0.0219
  895TIP3   OH2 2648   5.387   3.131   4.105 -0.0076 -0.0053  0.3530
  895TIP3    H1 2649   5.384   3.194   4.033  0.0502  2.7738  2.5992
  895TIP3    H2 2650   5.464   3.077   4.087  0.7518  1.4598 -1.0232
  896TIP3   OH2 2651   3.923   0.442   5.862  0.0431 -0.6587  0.0642
  896TIP3    H1 2652   3.938   0.369   5.802  0.0927  0.5593 -1.4670
  896TIP3    H2 2653   3.846   0.486   5.826  0.2257  0.2388  0.7651
  897TIP3   OH2 2654   3.635   5.190   1.768 -0.0143  0.0986 -0.2263
  897TIP3    H1 2655   3.592   5.113   1.732 -0.3878  0.1167  0.1788
  897TIP3    H2 2656   3.725   5.162   1.785  0.3295  0.2391 -1.6700
  898TIP3   OH2 2657   4.628   2.891   3.732  0.3802  0.1982 -0.0724
  898TIP3    H1 2658   4.679   2.854   3.804  0.5384  1.0940  0.2979
  898TIP3    H2 2659   4.613   2.982   3.758 -0.6085  0.2066 -0.6123
  899TIP3   OH2 2660   2.405   1.564   5.180  0.0513  0.6913  0.2026
  899TIP3    H1 2661   2.456   1.507   5.123 -2.9644 -0.9545 -1.0811
  899TIP3    H2 2662   2.353   1.618   5.121 -1.7503  0.2994  1.3253
  900TIP3   OH2 2663   0.653   4.191   5.052 -0.0029  0.0082 -0.3490
  900TIP3    H1 2664   0.685   4.226   5.135  0.5162  0.2951 -0.6672
  900TIP3    H2 2665   0.600   4.262   5.014 -1.6717 -0.7251  0.5230
  901TIP3   OH2 2666   0.972   2.561   5.548  0.2623  0.7836  0.0207
  901TIP3    H1 2667   0.972   2.647   5.589 -1.3518 -0.2883  2.4809
  901TIP3    H2 2668   0.880   2.540   5.534  0.3419 -1.7475  2.4159
  902TIP3   OH2 2669   0.029   2.503   0.476 -0.1605  0.0368  0.4842
  902TIP3    H1 2670  -0.005   2.470   0.393  0.5500 -0.0202  0.2067
  902TIP3    H2 2671   0.031   2.598   0.466 -0.8692  0.0817  0.7528
  903TIP3   OH2 2672   6.947   3.737   3.539 -0.2477  0.0971  0.2789
  903TIP3    H1 2673   6.929   3.722   3.631  0.4477  2.0952  0.8008
  903TIP3    H2 2674   6.921   3.656   3.495 -0.2316 -1.0266  2.2551
  904TIP3   OH2 2675   4.767   5.217   0.558 -0.1389  0.0412  0.6005
  904TIP3    H1 2676   4.766   5.309   0.532  1.1557 -0.2908 -0.7943
  904TIP3    H2 2677   4.750   5.218   0.652 -1.8260  1.5692  0.3343
  905TIP3   OH2 2678   4.962   1.702   2.582 -0.4201  0.1217  0.0018
  905TIP3    H1 2679   4.907   1.625   2.595 -0.3179  0.1131  0.4038
  905TIP3    H2 2680   4.933   1.764   2.649 -0.3289  0.3357 -0.1554
  906TIP3   OH2 2681   6.168   0.654   1.149 -0.0716 -0.9120  0.3481
  906TIP3    H1 2682   6.133   0.683   1.065  1.2620  1.5718  0.5576
  906TIP3    H2 2683   6.092   0.651   1.208 -0.5881  0.2828 -0.2241
  907TIP3   OH2 2684   1.595   5.347   5.209  0.3380 -0.0606  0.5830
  907TIP3    H1 2685   1.612   5.417   5.145  1.7314 -1.6252 -0.8781
  907TIP3    H2 2686   1.546   5.390   5.279  0.8539  2.2972 -0.3869
  908TIP3   OH2 2687   5.706   1.814   3.209 -0.2710  0.2778 -0.8027
  908TIP3    H1 2688   5.656   1.733   3.219  0.8410 -0.1672  1.9510
  908TIP3    H2 2689   5.764   1.798   3.135  2.1916 -2.8253  1.5364
  909TIP3   OH2 2690   1.225   4.017   1.384 -0.1865 -0.3149 -0.6534
  909TIP3    H1 2691   1.178   4.076   1.324 -0.7394 -0.2737 -0.1892
  909TIP3    H2 2692   1.203   4.049   1.471  2.0611  0.7764 -0.3990
  910TIP3   OH2 2693   5.704   4.971   1.116 -0.5507  0.5872  0.0031
  910TIP3    H1 2694   5.632   4.934   1.167 -0.5565  0.4642 -0.0947
  910TIP3    H2 2695   5.776   4.977   1.179 -0.7217  0.9535  0.1663
  911TIP3   OH2 2696   4.607   0.611   1.002  0.1435 -0.0444 -0.1261
  911TIP3    H1 2697   4.546   0.676   0.967  1.4620  1.5119  0.3889
  911TIP3    H2 2698   4.672   0.600   0.932  0.6260  0.1515  0.2885
  912TIP3   OH2 2699   1.469   4.221   1.478 -0.2035 -0.3886 -0.8674
  912TIP3    H1 2700   1.447   4.128   1.475  0.4216 -0.5149 -1.8776
  912TIP3    H2 2701   1.398   4.261   1.529 -1.1233 -1.2282 -1.4555
  913TIP3   OH2 2702   4.185   3.614   3.293 -0.0728  0.1116 -0.3930
  913TIP3    H1 2703   4.133   3.651   3.221 -0.8001  0.0367  0.0872
  913TIP3    H2 2704   4.167   3.672   3.367 -1.5379 -1.3908  0.4768
  914TIP3   OH2 2705   3.258   6.529   4.459 -0.5606  0.0812  0.3575
  914TIP3    H1 2706   3.188   6.507   4.398  0.1851 -1.7271  0.0840
  914TIP3    H2 2707   3.322   6.577   4.407 -0.9744  0.5752  0.2947
  915TIP3   OH2 2708   4.278   4.275   4.211  0.1276 -0.1203 -0.2190
  915TIP3    H1 2709   4.366   4.289   4.247  0.1307 -1.2039  0.2431
  915TIP3    H2 2710   4.283   4.312   4.123  0.0705  2.7276  0.8742
  916TIP3   OH2 2711   6.829   4.434   0.377  0.3524  0.0991 -0.3120
  916TIP3    H1 2712   6.833   4.519   0.334 -0.4590  0.3850  0.1498
  916TIP3    H2 2713   6.798   4.453   0.466 -0.2750 -0.7131 -0.3384
  917TIP3   OH2 2714   6.938   2.257   1.330 -0.2924  0.7715  0.6624
  917TIP3    H1 2715   6.938   2.272   1.424  0.0619 -0.0062  0.7958
  917TIP3    H2 2716   6.870   2.191   1.316  0.6464 -0.2064  0.5762
  918TIP3   OH2 2717   0.483   4.230   1.191  0.0177 -0.0655  0.3331
  918TIP3    H1 2718   0.528   4.297   1.243  0.4752  0.0992 -0.2617
  918TIP3    H2 2719   0.531   4.228   1.109  1.9407 -3.1993  1.3474
  919TIP3   OH2 2720   6.576   0.481   0.147 -0.0930  0.5676 -0.1870
  919TIP3    H1 2721   6.662   0.482   0.188 -0.7017  2.1806  1.1710
  919TIP3    H2 2722   6.516   0.513   0.215 -2.1738 -2.6042 -0.3331
  920TIP3   OH2 2723   1.571   3.999   0.875 -0.0969 -0.3237  0.3327
  920TIP3    H1 2724   1.529   4.015   0.790 -1.0307  0.0421  0.8429
  920TIP3    H2 2725   1.632   4.072   0.886  0.1118 -0.4335 -0.0664
  921TIP3   OH2 2726   2.955   4.858   0.922 -0.2772 -0.4485 -0.8236
  921TIP3    H1 2727   2.955   4.942   0.969 -2.4788 -0.6490 -0.3695
  921TIP3    H2 2728   2.967   4.793   0.991 -2.9928 -0.7120 -0.4942
  922TIP3   OH2 2729   5.416   1.376   3.384  0.1492 -0.1574  0.3329
  922TIP3    H1 2730   5.498   1.352   3.428 -0.2556 -1.0900  0.6162
  922TIP3    H2 2731   5.354   1.390   3.456 -0.5342 -1.7449  0.1037
  923TIP3   OH2 2732   5.712   3.111   3.825 -0.2543 -0.0806 -0.0880
  923TIP3    H1 2733   5.658   3.147   3.755 -2.0626 -2.2916  0.0368
  923TIP3    H2 2734   5.689   3.164   3.902 -1.9908 -0.6907 -0.1418
  924TIP3   OH2 2735   4.057   0.899   2.967 -0.5573  0.5716  0.3000
  924TIP3    H1 2736   4.035   0.904   3.060 -0.9960 -0.7005  0.2852
  924TIP3    H2 2737   3.988   0.948   2.922 -1.1813 -0.0656  0.5464
  925TIP3   OH2 2738   3.893   4.527   0.798  0.3626 -0.1564  0.4133
  925TIP3    H1 2739   3.879   4.496   0.888  0.6812 -0.4290  0.3690
  925TIP3    H2 2740   3.846   4.610   0.795  1.6105  0.6358  1.3139
  926TIP3   OH2 2741   4.194   1.662   4.800  0.0072 -0.3390 -0.0976
  926TIP3    H1 2742   4.169   1.660   4.707  0.3063 -0.3839 -0.1780
  926TIP3    H2 2743   4.119   1.701   4.844  0.3205  0.7481 -0.4987
  927TIP3   OH2 2744   3.509   1.844   3.682  0.1732  0.1724 -0.4878
  927TIP3    H1 2745   3.596   1.814   3.655 -0.0082 -0.7620 -0.0858
  927TIP3    H2 2746   3.520   1.938   3.697  0.8209  0.2863 -1.5623
  928TIP3   OH2 2747   0.053   4.573   3.553 -0.0906  0.3716 -0.8553
  928TIP3    H1 2748   0.104   4.654   3.546  1.3386 -0.5441 -1.4083
  928TIP3    H2 2749   0.115   4.503   3.529 -0.4876 -1.1680  2.1779
  929TIP3   OH2 2750   6.459   6.740   0.148 -0.1267 -0.4304  0.7269
  929TIP3    H1 2751   6.482   6.725   0.057  0.4028 -0.8507  0.9219
  929TIP3    H2 2752   6.370   6.706   0.156  0.0223 -0.8818  0.4907
  930TIP3   OH2 2753   4.102   3.151   0.623  0.3523  0.2585 -0.0232
  930TIP3    H1 2754   4.069   3.108   0.702  0.7184 -0.4985 -0.2698
  930TIP3    H2 2755   4.105   3.244   0.645 -0.8272  0.2190  0.3934
  931TIP3   OH2 2756   3.866   1.020   2.783 -0.4925 -0.7243  0.5332
  931TIP3    H1 2757   3.777   1.006   2.750 -0.5522 -0.0358  0.3798
  931TIP3    H2 2758   3.856   1.087   2.850  0.2123  1.2671 -1.2463
  932TIP3   OH2 2759   4.577   6.166   3.540 -0.0993 -0.7728  0.1572
  932TIP3    H1 2760   4.499   6.222   3.538  0.4472 -0.0021 -0.1344
  932TIP3    H2 2761   4.558   6.095   3.479  0.0635  0.3045 -1.2041
  933TIP3   OH2 2762   0.328   5.330   2.322 -0.2197 -0.1884  0.3999
  933TIP3    H1 2763   0.266   5.285   2.265  0.9207  0.7947 -1.7278
  933TIP3    H2 2764   0.389   5.262   2.350 -2.7739 -1.4618  3.5633
  934TIP3   OH2 2765   2.069   2.363   3.843 -0.4997  0.3643  0.5060
  934TIP3    H1 2766   2.029   2.336   3.926  1.1996  0.8308  1.5307
  934TIP3    H2 2767   2.071   2.459   3.848  1.0981  0.3521  0.7188
  935TIP3   OH2 2768   1.093   2.536   0.270 -0.3549  0.5844 -0.0441
  935TIP3    H1 2769   1.004   2.502   0.276 -0.6894  1.5837  0.9456
  935TIP3    H2 2770   1.137   2.478   0.207 -1.5525 -0.2155 -0.1680
  936TIP3   OH2 2771   6.357   0.772   1.813  0.3597  0.2018  0.0221
  936TIP3    H1 2772   6.382   0.845   1.869  0.0421 -1.4322  2.4423
  936TIP3    H2 2773   6.434   0.755   1.759  0.5768  2.0031 -0.2787
  937TIP3   OH2 2774   5.002   3.897   5.211  0.6005  0.2927 -0.6621
  937TIP3    H1 2775   4.924   3.860   5.168  0.4246  1.1886 -1.1256
  937TIP3    H2 2776   4.977   3.986   5.233  0.2723 -0.4353  2.3577
  938TIP3   OH2 2777   5.802   5.952   1.493  0.6713  0.7914 -0.2046
  938TIP3    H1 2778   5.876   5.945   1.432  0.3328  0.2146 -0.5594
  938TIP3    H2 2779   5.724   5.947   1.438  0.3123  3.2003 -0.0531
  939TIP3   OH2 2780   1.340   6.741   2.810 -0.0591  0.4350  0.1385
  939TIP3    H1 2781   1.353   6.831   2.780  0.5173  0.5630  0.7500
  939TIP3    H2 2782   1.397   6.688   2.754 -1.0509  0.3290 -0.8050
  940TIP3   OH2 2783   0.305   1.038  -0.003 -0.2723  0.0722  0.4970
  940TIP3    H1 2784   0.382   1.056   0.051  0.6830  1.3192 -1.1818
  940TIP3    H2 2785   0.263   1.123  -0.013  0.2582  0.1214 -1.6695
  941TIP3   OH2 2786   7.145   1.018   1.080  0.1019 -0.2592 -0.6357
  941TIP3    H1 2787   7.129   0.940   1.026  0.6259 -1.3284  0.6688
  941TIP3    H2 2788   7.077   1.014   1.148 -0.5060  1.0114 -1.1457
  942TIP3   OH2 2789   5.060   4.410   5.651  0.0003 -0.3183  0.1353
  942TIP3    H1 2790   5.146   4.380   5.681  0.8659  1.1348 -0.7577
  942TIP3    H2 2791   5.043   4.361   5.572  0.3476 -0.1067 -0.0730
  943TIP3   OH2 2792   5.682   2.644   4.466  0.2738  0.2481  0.7846
  943TIP3    H1 2793   5.761   2.625   4.517  0.0837 -0.5498  0.7890
  943TIP3    H2 2794   5.611   2.637   4.529  0.2193  1.3737  0.8734
  944TIP3   OH2 2795   5.711   2.892   4.321 -0.5831  0.5116  0.0210
  944TIP3    H1 2796   5.666   2.826   4.375  0.2272  1.2084  1.6277
  944TIP3    H2 2797   5.803   2.883   4.344 -0.2056  0.8621 -1.2761
  945TIP3   OH2 2798   4.760   0.138   3.899  0.1078  0.0388 -0.2689
  945TIP3    H1 2799   4.793   0.150   3.988  0.1942  1.1555 -0.4333
  945TIP3    H2 2800   4.706   0.215   3.883 -0.5683 -0.5553 -0.9011
  946TIP3   OH2 2801   5.608   3.211   5.882 -0.1238  0.2548  0.2940
  946TIP3    H1 2802   5.662   3.132   5.894 -1.2820 -0.9503 -1.7189
  946TIP3    H2 2803   5.671   3.281   5.867  0.9862 -1.0251 -1.5828
  947TIP3   OH2 2804   3.707   3.800   4.625 -0.2609  0.7722 -0.2264
  947TIP3    H1 2805   3.754   3.748   4.559 -0.0805 -0.8011  1.0684
  947TIP3    H2 2806   3.615   3.778   4.611 -0.1855  0.0433  0.3170
  948TIP3   OH2 2807   2.597   5.902   3.213 -0.1257  0.2959  0.3643
  948TIP3    H1 2808   2.624   5.982   3.168 -0.7513  0.8891  1.0179
  948TIP3    H2 2809   2.503   5.896   3.196  0.1047 -0.9382 -0.6458
  949TIP3   OH2 2810   6.071   6.667   2.015  0.6198  0.8541  0.1223
  949TIP3    H1 2811   6.073   6.597   2.080 -1.2907  0.8078  0.1654
  949TIP3    H2 2812   6.044   6.745   2.063  2.0147  1.5014 -0.0729
  950TIP3   OH2 2813   4.066   1.939   1.048  0.1182  0.1363 -0.0795
  950TIP3    H1 2814   4.153   1.911   1.075  0.5054  1.1386 -0.2567
  950TIP3    H2 2815   4.011   1.922   1.124  0.0347 -2.2784 -0.5698
  951TIP3   OH2 2816   0.786   1.582   0.209 -0.2521  0.4716  0.1213
  951TIP3    H1 2817   0.837   1.512   0.169 -1.3906 -0.7664  0.7889
  951TIP3    H2 2818   0.851   1.645   0.240  0.9112 -1.1546  1.1207
  952TIP3   OH2 2819   0.834   6.407   0.854 -0.2599  0.0672  0.4322
  952TIP3    H1 2820   0.784   6.437   0.930 -2.0317  0.6647 -0.9047
  952TIP3    H2 2821   0.849   6.486   0.803  2.5260 -0.0076  0.9654
  953TIP3   OH2 2822   3.469   4.789   3.586  0.2589  0.2794  0.7153
  953TIP3    H1 2823   3.452   4.879   3.559  0.4545  0.0184 -0.3444
  953TIP3    H2 2824   3.542   4.795   3.648  2.5134  0.6226 -1.7855
  954TIP3   OH2 2825   0.960   2.290   3.809  0.3029  0.3781 -0.1203
  954TIP3    H1 2826   1.011   2.268   3.730 -0.3258 -0.0089 -0.4269
  954TIP3    H2 2827   0.950   2.385   3.804  0.6284  0.4075 -0.2855
  955TIP3   OH2 2828   5.868   6.303   2.558  0.2365  0.6097 -0.0271
  955TIP3    H1 2829   5.844   6.394   2.579 -1.4454  0.3111 -0.4865
  955TIP3    H2 2830   5.963   6.300   2.571  0.3749  2.4941 -0.2205
  956TIP3   OH2 2831   5.168   0.883   1.102 -0.1830 -0.3602 -0.0889
  956TIP3    H1 2832   5.181   0.917   1.191 -0.2428 -1.9023  0.5335
  956TIP3    H2 2833   5.082   0.841   1.105  1.3187 -3.6796  0.2490
  957TIP3   OH2 2834   6.967   1.904   2.094  0.3127 -0.2325 -0.0075
  957TIP3    H1 2835   7.051   1.947   2.107  0.0150  0.2320  0.4303
  957TIP3    H2 2836   6.932   1.894   2.183 -1.3350  2.0855 -0.3123
  958TIP3   OH2 2837   0.489   6.120   1.311 -0.1389 -0.2209  0.1592
  958TIP3    H1 2838   0.432   6.129   1.235  0.7824  0.5014 -0.4716
  958TIP3    H2 2839   0.573   6.155   1.282  0.1963  0.1824  1.5526
  959TIP3   OH2 2840   6.064   5.354   0.491  0.4313  0.2011 -0.4620
  959TIP3    H1 2841   6.091   5.411   0.419  1.4344  1.1388  0.6061
  959TIP3    H2 2842   6.127   5.282   0.489  0.5357  0.2918 -0.4510
  960TIP3   OH2 2843   0.497   0.835   2.230  0.0151 -0.3408  0.3162
  960TIP3    H1 2844   0.543   0.877   2.158  1.2667 -1.2353  0.5677
  960TIP3    H2 2845   0.416   0.802   2.191  0.2410  0.0151 -0.4613
  961TIP3   OH2 2846   0.771   5.023   3.383 -1.0067 -0.3638  0.5334
  961TIP3    H1 2847   0.698   5.054   3.329 -0.2602  0.4121 -0.0552
  961TIP3    H2 2848   0.831   5.097   3.388 -0.4568 -0.8489  1.3748
  962TIP3   OH2 2849   2.782   4.478   0.804  0.2860  0.2495 -0.1942
  962TIP3    H1 2850   2.758   4.394   0.844  0.8177  1.2317  2.3655
  962TIP3    H2 2851   2.744   4.544   0.863  1.2673  1.8089 -1.2422
  963TIP3   OH2 2852   5.141   2.936   0.910 -0.7077 -0.0265 -0.4249
  963TIP3    H1 2853   5.232   2.921   0.936 -0.8918 -1.0809 -0.3338
  963TIP3    H2 2854   5.143   2.931   0.815 -0.8214 -1.0993 -0.3871
  964TIP3   OH2 2855   2.903   1.280   3.430  0.4616 -0.2202  0.1790
  964TIP3    H1 2856   2.957   1.351   3.394  1.1793 -1.1933 -0.6898
  964TIP3    H2 2857   2.954   1.248   3.505  0.3494 -0.1386  0.2924
  965TIP3   OH2 2858   3.263   1.736   3.406 -0.1101  0.1313  0.0649
  965TIP3    H1 2859   3.308   1.680   3.469  1.6567  1.0960 -0.2728
  965TIP3    H2 2860   3.328   1.752   3.338 -1.0791  1.3306 -0.6157
  966TIP3   OH2 2861   3.225   5.002   2.760 -0.1524  0.0218 -0.4847
  966TIP3    H1 2862   3.261   5.088   2.783 -0.7742  0.1021  0.2268
  966TIP3    H2 2863   3.142   5.022   2.715 -0.2531 -0.2034 -0.4000
  967TIP3   OH2 2864   4.984   4.949   0.146 -0.2044  0.0381  0.0147
  967TIP3    H1 2865   4.993   4.859   0.176 -0.6376 -0.0216 -0.0361
  967TIP3    H2 2866   4.893   4.972   0.165  0.1399  0.7655  0.8360
  968TIP3   OH2 2867   4.933   0.101   2.088  0.2673 -0.5034  0.0652
  968TIP3    H1 2868   5.022   0.133   2.072  0.5458 -1.3309 -0.0635
  968TIP3    H2 2869   4.887   0.177   2.125  0.4812  0.5280 -1.6702
  969TIP3   OH2 2870   1.946   0.837   2.920  0.0144  0.0242 -0.2713
  969TIP3    H1 2871   1.963   0.903   2.987 -1.9131  0.7360 -0.4003
  969TIP3    H2 2872   1.965   0.881   2.838 -0.6748  0.2257 -0.3278
  970TIP3   OH2 2873   5.692   2.937   3.055 -0.2937 -0.1266  0.2441
  970TIP3    H1 2874   5.660   2.971   2.971  1.5150  0.3232 -0.3147
  970TIP3    H2 2875   5.709   2.844   3.038  0.2334  0.0018  0.0463
  971TIP3   OH2 2876   4.025   6.314   0.947  0.1463 -0.6283 -0.0705
  971TIP3    H1 2877   3.931   6.310   0.932  0.2906 -1.0928 -0.8790
  971TIP3    H2 2878   4.052   6.398   0.909  0.1387 -0.7224 -0.2823
  972TIP3   OH2 2879   0.765   2.363   5.324  0.1870  0.0166  0.0076
  972TIP3    H1 2880   0.691   2.333   5.271  2.2106  0.5623 -3.4384
  972TIP3    H2 2881   0.832   2.295   5.313  1.1007  0.7214  0.9346
  973TIP3   OH2 2882   3.485   1.295   3.182  0.0885 -0.5985  0.1447
  973TIP3    H1 2883   3.455   1.261   3.267  0.5095 -0.8468  0.1972
  973TIP3    H2 2884   3.453   1.231   3.119  2.3682 -2.0846  0.3972
  974TIP3   OH2 2885   7.058   6.472   0.268  0.2704  0.4726  0.1887
  974TIP3    H1 2886   7.048   6.382   0.236 -0.9915 -0.7710  3.5325
  974TIP3    H2 2887   7.144   6.473   0.311  1.1215  1.5056 -1.4714
  975TIP3   OH2 2888   4.256   6.093   5.543  0.3105 -0.0124  0.1770
  975TIP3    H1 2889   4.334   6.146   5.528  1.2454 -1.7073 -1.4012
  975TIP3    H2 2890   4.198   6.114   5.470 -0.2104  0.3738  0.6976
  976TIP3   OH2 2891   6.925   1.447   0.865 -0.2982  0.2582  0.8104
  976TIP3    H1 2892   6.838   1.475   0.893 -0.5523  0.1420  0.1701
  976TIP3    H2 2893   6.911   1.411   0.777  0.5739  1.2733  0.2289
  977TIP3   OH2 2894   1.743   2.836   4.058  0.6355 -0.5189 -0.0531
  977TIP3    H1 2895   1.665   2.829   4.002  0.7812 -1.4393 -0.1616
  977TIP3    H2 2896   1.711   2.822   4.147  0.5102  0.2599  0.0341
  978TIP3   OH2 2897   3.265   1.534   5.763 -0.8560  0.1653 -0.1429
  978TIP3    H1 2898   3.251   1.629   5.763 -1.3101  0.1032  0.2990
  978TIP3    H2 2899   3.198   1.500   5.822 -0.4436 -0.3962  0.0101
  979TIP3   OH2 2900   3.259   3.711   1.081  0.4048  0.5593 -0.5669
  979TIP3    H1 2901   3.303   3.796   1.090  0.6633  0.4189 -0.4919
  979TIP3    H2 2902   3.181   3.719   1.135  1.8017 -0.1782  1.7169
  980TIP3   OH2 2903   5.878   3.510   2.616 -0.3838  0.1810 -0.3379
  980TIP3    H1 2904   5.941   3.439   2.619 -0.9889 -0.4568 -1.8103
  980TIP3    H2 2905   5.909   3.568   2.547 -0.6071  0.6569 -0.0470
  981TIP3   OH2 2906   7.214   3.518   4.760 -0.0963 -0.2990 -0.2918
  981TIP3    H1 2907   7.131   3.535   4.717 -0.7958  0.5921  1.3333
  981TIP3    H2 2908   7.247   3.604   4.785  0.2213 -0.7798  1.0325
  982TIP3   OH2 2909   6.819   2.765   4.710  0.0846  0.3306 -0.1863
  982TIP3    H1 2910   6.875   2.689   4.695 -1.2096 -0.7387  0.1607
  982TIP3    H2 2911   6.840   2.825   4.638  1.5299 -0.1032 -0.1447
  983TIP3   OH2 2912   1.543   2.127   2.344 -0.5641 -0.4818 -0.1779
  983TIP3    H1 2913   1.625   2.079   2.334  0.1831  0.6761  0.1368
  983TIP3    H2 2914   1.515   2.107   2.433 -1.0760 -1.5307 -0.5582
  984TIP3   OH2 2915   0.284   3.760   0.797 -0.5189 -0.4323  0.0652
  984TIP3    H1 2916   0.193   3.780   0.775  0.0470 -0.3317 -2.4115
  984TIP3    H2 2917   0.309   3.690   0.738 -0.1077 -3.4291  3.4311
  985TIP3   OH2 2918   6.041   4.684   2.625  0.1756  0.6063 -0.1795
  985TIP3    H1 2919   6.095   4.611   2.657  1.4037 -0.0185 -3.3371
  985TIP3    H2 2920   5.955   4.668   2.664  0.4424 -2.4865 -0.6097
  986TIP3   OH2 2921   3.567   5.548   5.798  0.2255 -0.0545 -1.0082
  986TIP3    H1 2922   3.545   5.614   5.733  3.2914  0.0331 -2.1161
  986TIP3    H2 2923   3.586   5.469   5.747  0.4333 -0.6642 -0.0210
  987TIP3   OH2 2924   0.789   5.198   2.824  0.1388  0.1037  0.2430
  987TIP3    H1 2925   0.829   5.264   2.881 -0.8682 -0.4723  1.6992
  987TIP3    H2 2926   0.698   5.228   2.814 -0.1813 -0.7503  0.4788
  988TIP3   OH2 2927   0.946   6.416   2.764  0.2487  0.1782 -0.0655
  988TIP3    H1 2928   1.024   6.469   2.751  1.2700 -0.9789  1.0547
  988TIP3    H2 2929   0.947   6.396   2.858 -1.6886  0.5661  0.0781
  989TIP3   OH2 2930   4.011   2.292   4.508  0.0127 -0.3409 -0.2985
  989TIP3    H1 2931   4.077   2.285   4.439 -1.1187  1.4472 -1.6726
  989TIP3    H2 2932   4.044   2.362   4.565  0.0180 -0.4867 -0.1217
  990TIP3   OH2 2933   3.699   4.070   1.026 -0.0870 -0.2100 -0.6418
  990TIP3    H1 2934   3.679   3.976   1.022 -2.6444  0.2531 -0.3005
  990TIP3    H2 2935   3.715   4.095   0.935  0.5470 -0.9344 -0.7435
  991TIP3   OH2 2936   3.071   2.235   4.299  0.1847  0.2481  0.0477
  991TIP3    H1 2937   3.140   2.175   4.328 -0.1263 -1.1999 -1.9857
  991TIP3    H2 2938   3.005   2.179   4.260 -0.6993  1.8401 -0.8512
  992TIP3   OH2 2939   6.842   6.681   2.037  0.1004 -0.0790  0.1702
  992TIP3    H1 2940   6.768   6.714   2.088  0.2278  1.4301 -0.5849
  992TIP3    H2 2941   6.807   6.666   1.949  0.7163  0.8320 -0.2468
  993TIP3   OH2 2942   3.479   6.055   2.571 -0.1226  0.1175  0.3480
  993TIP3    H1 2943   3.509   6.108   2.497  0.4352  1.2922  1.3934
  993TIP3    H2 2944   3.428   6.115   2.625 -1.7931 -1.0901  0.1946
  994TIP3   OH2 2945   2.119   0.238   4.087  0.2072  0.2279  0.0841
  994TIP3    H1 2946   2.120   0.288   4.169  1.0186 -1.4975  1.1907
  994TIP3    H2 2947   2.089   0.300   4.021 -1.2833  1.4616  1.8301
  995TIP3   OH2 2948   6.151   6.272   2.392  0.7800 -0.3616 -0.2350
  995TIP3    H1 2949   6.177   6.339   2.456 -1.3712 -0.1918  0.5209
  995TIP3    H2 2950   6.229   6.261   2.337  1.4540  2.2308  0.0512
  996TIP3   OH2 2951   6.632   5.951   5.702 -0.0154  0.0565 -0.3555
  996TIP3    H1 2952   6.721   5.936   5.734  0.3517  1.1702 -0.7780
  996TIP3    H2 2953   6.599   5.865   5.679  1.7325 -0.1970 -2.1798
  997TIP3   OH2 2954   4.288   1.411   3.350  0.5466 -0.9194 -0.3144
  997TIP3    H1 2955   4.201   1.382   3.322 -0.4822  0.9005  0.7720
  997TIP3    H2 2956   4.301   1.494   3.304  1.2744 -0.6896  0.2920
  998TIP3   OH2 2957   6.284   5.046   4.062  0.7760  0.6909 -0.1256
  998TIP3    H1 2958   6.295   5.011   3.974  0.4152 -0.3742  0.2351
  998TIP3    H2 2959   6.189   5.045   4.076  0.8743  0.0467  0.5757
  999TIP3   OH2 2960   1.146   2.422   4.327 -0.1787 -0.4245  0.3332
  999TIP3    H1 2961   1.120   2.409   4.236  0.2192 -1.0795  0.3050
  999TIP3    H2 2962   1.073   2.384   4.378 -1.2729  1.5755  0.3406
 1000TIP3   OH2 2963   0.086   6.515   4.700  0.2948  0.0369  0.7712
 1000TIP3    H1 2964   0.082   6.574   4.776 -0.1240  1.9790 -0.6739
 1000TIP3    H2 2965   0.014   6.544   4.644  0.4763 -1.4836 -0.2948
 1001TIP3   OH2 2966   3.161   0.682   2.969  0.4171 -0.1608  0.2901
 1001TIP3    H1 2967   3.165   0.707   3.061  0.2751 -1.2705  0.6041
 1001TIP3    H2 2968   3.197   0.593   2.966 -2.4193 -1.3906 -0.2349
 1002TIP3   OH2 2969   6.991   3.984   0.979  0.5469  0.5610 -0.3319
 1002TIP3    H1 2970   6.995   4.076   0.952  0.3074  0.0784 -2.1713
 1002TIP3    H2 2971   6.902   3.956   0.956  0.0722  0.2504  1.6720
 1003TIP3   OH2 2972   2.269   3.927   1.170 -0.0381  0.1362  0.3154
 1003TIP3    H1 2973   2.204   3.943   1.102  0.2489 -0.5963 -0.1299
 1003TIP3    H2 2974   2.333   3.997   1.159  0.2993 -0.3014 -0.5250
 1004TIP3   OH2 2975   1.208   4.569   0.114  0.1199 -0.1725 -0.7501
 1004TIP3    H1 2976   1.156   4.503   0.067 -1.4340 -0.3692  1.1304
 1004TIP3    H2 2977   1.176   4.652   0.080 -0.1069 -0.3352 -0.9441
 1005TIP3   OH2 2978   0.426   6.096   5.525 -0.2410  0.3567 -0.1733
 1005TIP3    H1 2979   0.482   6.024   5.496 -0.0543  0.3133  0.2908
 1005TIP3    H2 2980   0.393   6.069   5.610  0.0967  0.9573  0.1580
 1006TIP3   OH2 2981   3.218   6.073   5.849  0.2040 -0.2294  0.2523
 1006TIP3    H1 2982   3.276   6.044   5.778 -0.1568 -0.0518 -0.1183
 1006TIP3    H2 2983   3.211   6.167   5.836 -0.0545 -0.2315  0.3809
 1007TIP3   OH2 2984   5.939   4.104   5.550  0.2011 -0.7007  0.1052
 1007TIP3    H1 2985   5.857   4.084   5.594 -0.1972 -1.4251 -0.9369
 1007TIP3    H2 2986   5.984   4.164   5.609 -0.8238 -0.7405  0.9460
 1008TIP3   OH2 2987   6.216   4.248   0.437 -0.1834  0.2708  0.4731
 1008TIP3    H1 2988   6.162   4.316   0.396  1.6841  0.5645 -1.6847
 1008TIP3    H2 2989   6.213   4.175   0.376 -2.2955 -1.8186  2.8366
 1009TIP3   OH2 2990   5.811   6.173   1.696 -0.2888 -0.4012  0.3608
 1009TIP3    H1 2991   5.851   6.113   1.633  0.7746 -0.3450  0.9639
 1009TIP3    H2 2992   5.807   6.123   1.778  0.9562  0.4411  0.9712
 1010TIP3   OH2 2993   0.163   0.331   3.909  0.7910  0.0827  0.4917
 1010TIP3    H1 2994   0.216   0.332   3.830  0.2464 -1.1038  0.0804
 1010TIP3    H2 2995   0.095   0.397   3.893 -1.3018 -2.3429 -1.5241
 1011TIP3   OH2 2996   4.823   3.160   5.495 -0.0208  0.0780 -0.0813
 1011TIP3    H1 2997   4.810   3.226   5.427  1.0016 -0.2482 -0.6212
 1011TIP3    H2 2998   4.837   3.078   5.447  0.2007 -0.2522  0.5299
 1012TIP3   OH2 2999   4.155   2.085   3.631  0.2632  0.0159 -0.0139
 1012TIP3    H1 3000   4.158   2.035   3.549 -0.3971 -0.1199  0.0375
 1012TIP3    H2 3001   4.228   2.146   3.625 -0.6380  1.0151 -1.3529
 1013TIP3   OH2 3002   1.867   2.327   4.865  0.1834 -0.0663 -0.8737
 1013TIP3    H1 3003   1.844   2.330   4.957 -3.4654 -0.0693 -1.6351
 1013TIP3    H2 3004   1.881   2.419   4.841  1.2043 -0.0723 -0.3567
 1014TIP3   OH2 3005   7.066   6.177   0.231  0.1180  0.9428 -0.3960
 1014TIP3    H1 3006   7.006   6.193   0.158 -0.2476 -0.5188 -0.4472
 1014TIP3    H2 3007   7.150   6.157   0.189 -0.4714 -1.5684 -0.5689
 1015TIP3   OH2 3008   5.800   6.039   2.595  0.3053  0.8064  0.0535
 1015TIP3    H1 3009   5.882   6.018   2.639 -0.0901 -1.1621 -0.0288
 1015TIP3    H2 3010   5.805   6.133   2.578  2.5547  0.7445  0.0046
 1016TIP3   OH2 3011   7.006   1.407   1.575 -0.5868 -0.1026  0.5851
 1016TIP3    H1 3012   6.932   1.457   1.612  0.9731 -0.5357  4.8766
 1016TIP3    H2 3013   7.079   1.469   1.575 -0.4726 -0.1460 -2.0489
 1017TIP3   OH2 3014   2.495   2.479   2.190 -0.6558 -0.3663 -0.3547
 1017TIP3    H1 3015   2.524   2.497   2.101 -0.1907 -0.6557 -0.2663
 1017TIP3    H2 3016   2.512   2.560   2.238 -2.4399  0.3629 -0.8922
 1018TIP3   OH2 3017   2.117   2.394   3.160  0.7095  0.5630  0.4072
 1018TIP3    H1 3018   2.136   2.332   3.090  1.3858 -0.3071  1.3453
 1018TIP3    H2 3019   2.146   2.479   3.125 -0.9727  0.5405 -1.2009
 1019TIP3   OH2 3020   2.723   6.235   2.281 -0.7525 -0.1372 -0.0023
 1019TIP3    H1 3021   2.730   6.229   2.377  1.4923 -1.7985 -0.1923
 1019TIP3    H2 3022   2.798   6.288   2.255 -1.3641  0.3278 -0.8736
 1020TIP3   OH2 3023   6.264   0.652   4.702 -0.0182  0.3703  0.0565
 1020TIP3    H1 3024   6.306   0.690   4.780  0.3249 -0.9882  0.5613
 1020TIP3    H2 3025   6.171   0.669   4.715  0.1500  1.3377  0.0926
 1021TIP3   OH2 3026   0.180   4.107   0.063 -0.1460 -0.3045  0.3189
 1021TIP3    H1 3027   0.093   4.069   0.081 -0.2161 -1.2817 -1.8148
 1021TIP3    H2 3028   0.225   4.040   0.012  1.4225  0.7097  0.3166
 1022TIP3   OH2 3029   0.801   5.907   1.629 -0.0624 -0.5417 -0.3312
 1022TIP3    H1 3030   0.844   5.952   1.701  0.8206  0.6571 -1.5542
 1022TIP3    H2 3031   0.718   5.953   1.618  0.7729  0.7922 -1.4811
 1023TIP3   OH2 3032   2.636   5.591   0.322 -0.1463  0.0219 -0.2486
 1023TIP3    H1 3033   2.595   5.677   0.322  2.7569  1.5610  0.8908
 1023TIP3    H2 3034   2.631   5.561   0.413 -2.2393 -1.7108 -0.8409
 1024TIP3   OH2 3035   0.345   6.451   1.705  0.2941  0.0351 -0.7547
 1024TIP3    H1 3036   0.377   6.540   1.725  0.9492 -0.6220  1.4029
 1024TIP3    H2 3037   0.377   6.434   1.617  2.0432  1.1577 -0.4088
 1025TIP3   OH2 3038   4.702   5.992   1.498 -0.4149  0.7006 -0.6171
 1025TIP3    H1 3039   4.694   6.028   1.409  0.3982  2.5118 -0.0209
 1025TIP3    H2 3040   4.700   6.069   1.555  1.5976 -0.1701  0.7703
 1026TIP3   OH2 3041   3.076   2.899   4.423  0.1991  0.1694 -0.6781
 1026TIP3    H1 3042   3.101   2.987   4.395 -0.4917  0.3332 -0.7987
 1026TIP3    H2 3043   3.147   2.870   4.480  0.1133  1.0550 -0.1175
 1027TIP3   OH2 3044   2.205   1.286   5.726 -0.2302  0.2056  0.2258
 1027TIP3    H1 3045   2.289   1.242   5.734  0.9497  2.0452 -1.3877
 1027TIP3    H2 3046   2.157   1.235   5.661  0.2356  0.0467  0.0072
 1028TIP3   OH2 3047   2.553   3.278   1.350  0.0708  0.0644 -0.1619
 1028TIP3    H1 3048   2.568   3.357   1.401  1.1466 -0.1655 -0.1082
 1028TIP3    H2 3049   2.491   3.305   1.282  0.2024  0.8782  0.0299
 1029TIP3   OH2 3050   0.620   5.449   2.853  0.1376 -0.2773  0.4784
 1029TIP3    H1 3051   0.631   5.489   2.939 -1.6810  0.4448  0.4094
 1029TIP3    H2 3052   0.618   5.523   2.792  0.8971 -0.7514 -0.1579
 1030TIP3   OH2 3053   0.480   6.264   1.906  0.6938  0.1394 -0.1250
 1030TIP3    H1 3054   0.452   6.338   1.851  1.0308  1.8368  1.8471
 1030TIP3    H2 3055   0.398   6.219   1.928 -0.0155  2.0670  1.4949
 1031TIP3   OH2 3056   1.709   3.922   4.341 -0.3076 -0.1762  0.8751
 1031TIP3    H1 3057   1.730   3.868   4.417  0.2622 -0.2187  0.6884
 1031TIP3    H2 3058   1.660   3.996   4.377 -0.1081 -0.2354  1.2690
 1032TIP3   OH2 3059   4.798   1.322   0.934 -0.0680 -0.2660  0.1263
 1032TIP3    H1 3060   4.794   1.247   0.994  1.8180  0.0170  0.6706
 1032TIP3    H2 3061   4.709   1.358   0.935 -0.4598 -1.1910  1.5738
 1033TIP3   OH2 3062   4.639   6.383   5.151  0.0972 -0.3982 -0.0502
 1033TIP3    H1 3063   4.590   6.377   5.069 -0.7947 -0.1538  0.4430
 1033TIP3    H2 3064   4.713   6.324   5.140  0.7577  0.6601 -1.5441
 1034TIP3   OH2 3065   5.757   2.487   3.540  0.0283 -0.1080  0.0275
 1034TIP3    H1 3066   5.749   2.571   3.585 -1.1060 -0.7144  0.9987
 1034TIP3    H2 3067   5.796   2.510   3.455  1.9569  1.1032  1.1467
 1035TIP3   OH2 3068   3.543   1.488   0.421  0.4925  0.3640  0.1261
 1035TIP3    H1 3069   3.527   1.447   0.506  0.4301  1.9438  0.9151
 1035TIP3    H2 3070   3.622   1.540   0.433 -0.4735  2.0005 -0.2326
 1036TIP3   OH2 3071   2.650   3.694   3.349  0.0444 -0.5970  0.0826
 1036TIP3    H1 3072   2.686   3.776   3.384  0.8578 -0.4782 -0.9783
 1036TIP3    H2 3073   2.711   3.669   3.280 -1.1415 -1.1642 -0.7945
 1037TIP3   OH2 3074   5.075   3.506   1.871 -0.1675  0.4940  0.8544
 1037TIP3    H1 3075   5.154   3.462   1.902 -0.8363 -0.6724  0.9723
 1037TIP3    H2 3076   5.003   3.454   1.907 -1.0031  1.8056  1.1426
 1038TIP3   OH2 3077   6.721   1.933   1.704 -0.4667  0.5697 -0.2648
 1038TIP3    H1 3078   6.739   2.013   1.752 -0.9546  0.0528  0.8196
 1038TIP3    H2 3079   6.802   1.882   1.712 -0.1241  0.9836 -1.0344
 1039TIP3   OH2 3080   3.435   6.503   1.216 -0.3127  0.8401 -0.3950
 1039TIP3    H1 3081   3.355   6.553   1.226  0.4575  2.5114 -2.0238
 1039TIP3    H2 3082   3.437   6.479   1.123  1.9498  2.5449 -0.8792
 1040TIP3   OH2 3083   2.304   6.749   5.740  0.0836  0.1849  0.8649
 1040TIP3    H1 3084   2.273   6.658   5.738  1.9528 -0.5577 -2.6106
 1040TIP3    H2 3085   2.228   6.801   5.714 -0.7850 -0.4243  2.0887
 1041TIP3   OH2 3086   6.823   3.108   0.301  0.4275  0.1423 -0.3913
 1041TIP3    H1 3087   6.900   3.083   0.352  0.5438 -0.6259 -0.9290
 1041TIP3    H2 3088   6.827   3.053   0.222 -0.2236  0.6813 -0.8149
 1042TIP3   OH2 3089   6.025   0.342   1.434  0.1703 -0.2111  0.2090
 1042TIP3    H1 3090   6.005   0.372   1.345  0.6777 -0.1177  0.1214
 1042TIP3    H2 3091   6.041   0.248   1.425  2.3846  0.1583 -0.1958
 1043TIP3   OH2 3092   3.352   5.393   1.810  0.2190 -0.3826 -0.0414
 1043TIP3    H1 3093   3.340   5.445   1.731 -2.2533  0.0812  0.5593
 1043TIP3    H2 3094   3.390   5.453   1.874  0.7856 -0.3415 -0.4115
 1044TIP3   OH2 3095   5.808   1.781   3.587  0.0958  0.5781 -0.6902
 1044TIP3    H1 3096   5.843   1.843   3.524  1.2733  0.5980 -0.0534
 1044TIP3    H2 3097   5.832   1.695   3.553 -0.3339  0.5355 -0.8842
 1045TIP3   OH2 3098   2.340   6.071   1.449 -0.2844  0.1042 -0.2690
 1045TIP3    H1 3099   2.371   6.161   1.460 -1.1712  0.2659  1.2572
 1045TIP3    H2 3100   2.247   6.081   1.428  0.2589 -0.4057 -3.3402
 1046TIP3   OH2 3101   5.215   5.499   2.526  0.5497 -0.3128 -0.4658
 1046TIP3    H1 3102   5.292   5.499   2.469 -0.7613  0.7796 -2.3315
 1046TIP3    H2 3103   5.158   5.431   2.491  0.0152 -0.0939 -0.0474
 1047TIP3   OH2 3104   5.919   0.567   2.432 -0.3737  0.1763 -0.1368
 1047TIP3    H1 3105   5.928   0.499   2.365 -0.2835 -1.3532  1.3624
 1047TIP3    H2 3106   5.977   0.539   2.503 -3.4173 -0.5547  2.3254
 1048TIP3   OH2 3107   0.700   0.178   5.428  0.6357 -0.7064 -0.8097
 1048TIP3    H1 3108   0.604   0.187   5.431  0.7768  1.8841 -1.5597
 1048TIP3    H2 3109   0.717   0.093   5.468 -1.9737 -1.2229 -0.5957
 1049TIP3   OH2 3110   6.806   6.088   4.422 -0.0678  0.0591 -0.3401
 1049TIP3    H1 3111   6.784   6.065   4.512 -0.9553  0.8072 -0.3415
 1049TIP3    H2 3112   6.820   6.005   4.378 -1.8596 -0.4513 -0.0374
 1050TIP3   OH2 3113   6.213   1.522   4.259 -0.6379  0.6037 -0.4227
 1050TIP3    H1 3114   6.263   1.581   4.203 -0.3184  1.2843  0.5593
 1050TIP3    H2 3115   6.223   1.558   4.347  0.1108 -1.2611  0.3088
 1051TIP3   OH2 3116   6.803   2.984   5.482  0.0150  0.2306  0.0687
 1051TIP3    H1 3117   6.800   3.034   5.564 -2.0429 -4.0644  2.9985
 1051TIP3    H2 3118   6.713   2.957   5.467  1.0077 -3.0325 -0.7971
 1052TIP3   OH2 3119   6.349   0.374   4.118 -0.2018  0.1918  0.4411
 1052TIP3    H1 3120   6.341   0.279   4.124  0.5426  0.1585  1.1220
 1052TIP3    H2 3121   6.417   0.397   4.182 -0.1371  1.1459  0.0580
 1053TIP3   OH2 3122   0.675   3.550   5.156  0.0073  0.0266  0.5954
 1053TIP3    H1 3123   0.765   3.561   5.186  1.6074 -1.4829 -3.0224
 1053TIP3    H2 3124   0.652   3.460   5.180 -0.6488  0.4466  1.6224
 1054TIP3   OH2 3125   2.899   0.522   1.889  0.0360  0.3308 -0.1633
 1054TIP3    H1 3126   2.860   0.575   1.959 -1.2038 -1.1787  0.3332
 1054TIP3    H2 3127   2.840   0.533   1.815 -1.1603 -1.5633  0.4362
 1055TIP3   OH2 3128   4.408   5.295   1.188 -1.1022 -0.4832 -0.2177
 1055TIP3    H1 3129   4.372   5.307   1.276  0.5266  0.9866  0.2917
 1055TIP3    H2 3130   4.466   5.219   1.196 -0.3491  0.1211  0.2018
 1056TIP3   OH2 3131   3.239   6.753   2.789 -0.1106  0.3545 -0.5949
 1056TIP3    H1 3132   3.305   6.801   2.740  1.3656 -1.3219 -0.3292
 1056TIP3    H2 3133   3.258   6.772   2.881  0.0830 -0.2126 -0.5128
 1057TIP3   OH2 3134   2.041   5.076   0.258 -0.2784  0.3044  0.2269
 1057TIP3    H1 3135   2.051   5.062   0.164  1.3473  0.8943  0.2803
 1057TIP3    H2 3136   2.024   4.988   0.293  0.8441 -0.1901 -0.4275
 1058TIP3   OH2 3137   4.658   2.105   3.737 -0.3244 -0.4679  0.0662
 1058TIP3    H1 3138   4.746   2.105   3.775 -0.6526  0.1181  0.8694
 1058TIP3    H2 3139   4.666   2.160   3.659  0.0968 -0.6858 -0.0468
 1059TIP3   OH2 3140   4.397   0.723   3.923 -0.9510  0.1248 -0.0672
 1059TIP3    H1 3141   4.409   0.737   4.016 -0.1012  0.8554 -0.2768
 1059TIP3    H2 3142   4.347   0.799   3.893  2.8410  2.5505 -1.0272
 1060TIP3   OH2 3143   0.015   3.901   3.644  0.1761  0.4822  0.2393
 1060TIP3    H1 3144   0.098   3.935   3.677  0.6126 -1.7455  1.6245
 1060TIP3    H2 3145   0.038   3.860   3.560  0.5309 -0.2791  0.7003
 1061TIP3   OH2 3146   0.665   5.969   5.858  0.2156  0.6472 -0.4713
 1061TIP3    H1 3147   0.701   6.054   5.883 -0.2557  0.8790 -0.5900
 1061TIP3    H2 3148   0.739   5.908   5.870  0.3636  0.9573  0.2613
 1062TIP3   OH2 3149   6.869   4.846   5.764 -0.0541 -0.1124  0.1181
 1062TIP3    H1 3150   6.803   4.788   5.725 -1.0761  0.2347  1.2603
 1062TIP3    H2 3151   6.867   4.824   5.857  1.0290  0.3354  0.2594
 1063TIP3   OH2 3152   1.604   0.258   5.467 -0.0839 -0.1325 -0.4230
 1063TIP3    H1 3153   1.534   0.293   5.412 -0.4879  0.6613  0.5725
 1063TIP3    H2 3154   1.676   0.241   5.406 -0.0819  1.8949 -1.0371
 1064TIP3   OH2 3155   5.425   0.726   0.576  0.4302 -0.3232 -0.2900
 1064TIP3    H1 3156   5.445   0.724   0.482  0.3725 -1.0147 -0.2885
 1064TIP3    H2 3157   5.364   0.653   0.589 -0.3716  0.3926  0.0977
 1065TIP3   OH2 3158   4.164   4.786   2.461 -0.4270  0.0678  0.3688
 1065TIP3    H1 3159   4.195   4.828   2.541  0.6228 -1.4785  0.8173
 1065TIP3    H2 3160   4.234   4.800   2.398 -1.0356  0.8505 -0.1560
 1066TIP3   OH2 3161   6.207   2.388   3.895 -0.1388 -0.2607  0.5225
 1066TIP3    H1 3162   6.254   2.445   3.835 -1.7437  1.5939  0.9255
 1066TIP3    H2 3163   6.276   2.336   3.938  1.6247  2.5303  1.3280
 1067TIP3   OH2 3164   7.203   1.102   2.908 -0.6547  0.1930 -0.3475
 1067TIP3    H1 3165   7.233   1.113   2.818 -0.9221 -1.6398 -0.6942
 1067TIP3    H2 3166   7.114   1.137   2.908 -0.9187 -0.4486 -0.9987
 1068TIP3   OH2 3167   6.914   4.963   2.393 -0.0052  0.6196  0.1422
 1068TIP3    H1 3168   7.006   4.971   2.370  0.5762 -0.0344  2.0588
 1068TIP3    H2 3169   6.907   5.002   2.480 -1.2705 -0.5256  0.5899
 1069TIP3   OH2 3170   3.575   6.316   3.010 -0.1385  0.0701  0.1430
 1069TIP3    H1 3171   3.486   6.332   3.042 -0.4779  0.4278 -0.9198
 1069TIP3    H2 3172   3.567   6.325   2.915  1.1916  0.8267  0.0880
 1070TIP3   OH2 3173   1.824   4.947   5.777 -0.6393  0.1086  0.8737
 1070TIP3    H1 3174   1.821   4.874   5.839 -2.5566  0.0290  0.7616
 1070TIP3    H2 3175   1.779   5.018   5.823 -0.8974  0.4626  0.0760
 1071TIP3   OH2 3176   1.221   0.616   4.174 -0.0215  0.1021 -0.6830
 1071TIP3    H1 3177   1.276   0.689   4.146 -1.5120  1.0802 -1.2321
 1071TIP3    H2 3178   1.147   0.617   4.113 -0.5501 -1.2857 -0.1133
 1072TIP3   OH2 3179   5.148   2.325   3.196 -0.2423  0.2196 -0.2254
 1072TIP3    H1 3180   5.067   2.285   3.229 -1.1239  1.1828 -1.1556
 1072TIP3    H2 3181   5.119   2.384   3.127  0.7491  3.7586  2.0798
 1073TIP3   OH2 3182   2.758   6.285   2.560  0.7043  0.0447  0.3366
 1073TIP3    H1 3183   2.718   6.202   2.586 -0.3318  0.5752  0.5340
 1073TIP3    H2 3184   2.683   6.345   2.550  1.5035  1.3252  1.5714
 1074TIP3   OH2 3185   6.326   6.072   4.171 -0.4782 -0.2229 -0.1370
 1074TIP3    H1 3186   6.420   6.088   4.180 -0.4252 -0.0638 -0.9697
 1074TIP3    H2 3187   6.285   6.151   4.205 -0.2956 -0.0067 -0.4193
 1075TIP3   OH2 3188   2.457   3.854   3.670  0.0630 -0.5430 -0.4142
 1075TIP3    H1 3189   2.482   3.891   3.586  1.8747 -0.1981  0.2313
 1075TIP3    H2 3190   2.477   3.761   3.662 -1.1399 -0.7839 -0.8302
 1076TIP3   OH2 3191   6.794   5.266   4.107 -0.7890 -0.0030  0.0105
 1076TIP3    H1 3192   6.727   5.199   4.110 -1.1452  0.3980  2.0973
 1076TIP3    H2 3193   6.873   5.223   4.140 -0.9855  0.5355  1.2223
 1077TIP3   OH2 3194   2.823   3.217   1.456 -0.4302  0.0258  0.1642
 1077TIP3    H1 3195   2.761   3.149   1.483 -0.2763  0.0868  0.6757
 1077TIP3    H2 3196   2.768   3.285   1.416 -1.0371  1.2705  2.8808
 1078TIP3   OH2 3197   3.207   5.966   1.408  0.3575  0.1040 -0.1089
 1078TIP3    H1 3198   3.141   6.034   1.395  1.2457  0.9355 -0.5058
 1078TIP3    H2 3199   3.286   6.015   1.434  1.5835 -0.5343 -2.3325
 1079TIP3   OH2 3200   1.259   0.912   3.450  0.2131 -0.0293 -0.4210
 1079TIP3    H1 3201   1.242   1.002   3.478 -1.0507 -0.9725  2.2306
 1079TIP3    H2 3202   1.352   0.912   3.427 -0.0629  2.2188 -1.9073
 1080TIP3   OH2 3203   1.193   5.852   3.938 -0.1662 -0.1140 -0.5483
 1080TIP3    H1 3204   1.132   5.782   3.964 -1.5951  1.6563  1.2049
 1080TIP3    H2 3205   1.279   5.817   3.960 -0.7955 -1.4856 -0.0884
 1081TIP3   OH2 3206   4.203   5.844   4.606 -0.0303 -0.2826 -0.0080
 1081TIP3    H1 3207   4.276   5.811   4.553 -0.9473 -0.8985 -0.9197
 1081TIP3    H2 3208   4.239   5.921   4.650  0.7992  0.2317 -1.4832
 1082TIP3   OH2 3209   6.907   0.144   1.349 -0.5327 -0.0883  0.3807
 1082TIP3    H1 3210   6.891   0.052   1.374 -0.5184 -0.7118 -1.7296
 1082TIP3    H2 3211   6.944   0.184   1.428  0.3085 -2.1365  1.0948
 1083TIP3   OH2 3212   5.937   1.113   1.283 -0.5396  0.3943  0.0013
 1083TIP3    H1 3213   5.864   1.172   1.300 -0.4683  0.4147  0.2528
 1083TIP3    H2 3214   5.929   1.045   1.350 -0.4431  0.2900 -0.0925
 1084TIP3   OH2 3215   2.206   5.042   1.658 -0.0906 -0.3300  0.1104
 1084TIP3    H1 3216   2.213   4.991   1.578 -0.3087  0.2008 -0.2496
 1084TIP3    H2 3217   2.290   5.088   1.664  0.7357 -1.8523  1.2349
 1085TIP3   OH2 3218   3.428   5.874   4.759  0.0920  0.3528  0.3672
 1085TIP3    H1 3219   3.490   5.846   4.692  0.0588 -1.6849  1.1145
 1085TIP3    H2 3220   3.353   5.909   4.709  0.0626 -1.1167 -0.6915
 1086TIP3   OH2 3221   4.601   0.465   5.619 -0.2558  0.5823  0.2008
 1086TIP3    H1 3222   4.555   0.549   5.623 -0.4768  0.5606 -1.2742
 1086TIP3    H2 3223   4.574   0.419   5.698  0.1493  2.0233  1.2312
 1087TIP3   OH2 3224   6.426   0.593   3.570 -0.1261 -0.1782 -0.3329
 1087TIP3    H1 3225   6.430   0.552   3.484  1.0510 -2.1614  0.5990
 1087TIP3    H2 3226   6.442   0.686   3.554 -1.4088 -0.2537 -2.3729
 1088TIP3   OH2 3227   2.827   1.027   1.467 -0.2728 -0.3820 -0.2561
 1088TIP3    H1 3228   2.765   0.958   1.442 -0.1680 -0.5468 -0.0678
 1088TIP3    H2 3229   2.902   1.013   1.409 -0.0410 -0.7471  0.1307
 1089TIP3   OH2 3230   2.501   0.109   4.304 -0.1669  0.4569  0.2844
 1089TIP3    H1 3231   2.579   0.054   4.312 -1.0302 -1.0943 -1.2471
 1089TIP3    H2 3232   2.509   0.149   4.217 -0.2197  1.6868  0.8385
 1090TIP3   OH2 3233   5.309   3.971   4.611 -0.7833 -0.1471  0.0872
 1090TIP3    H1 3234   5.295   3.996   4.702 -1.0894  0.3530 -0.0928
 1090TIP3    H2 3235   5.402   3.949   4.606 -0.9351 -1.0024  0.7087
 1091TIP3   OH2 3236   1.360   5.460   3.376  0.8903 -0.0978 -0.2708
 1091TIP3    H1 3237   1.370   5.453   3.281  0.4616  2.8458 -0.6093
 1091TIP3    H2 3238   1.343   5.553   3.392 -0.0507 -0.6671  2.6088
 1092TIP3   OH2 3239   6.351   0.015   0.923 -0.0711  0.5426  0.5357
 1092TIP3    H1 3240   6.338   0.042   1.014  0.5561  1.8340  0.2670
 1092TIP3    H2 3241   6.391   0.091   0.881  0.2173 -0.2498 -0.6804
 1093TIP3   OH2 3242   0.567   3.313   0.656 -0.0671  0.2908 -0.1590
 1093TIP3    H1 3243   0.537   3.382   0.596 -0.5806 -0.2631 -0.5532
 1093TIP3    H2 3244   0.539   3.343   0.742 -1.1322  0.1382 -0.4374
 1094TIP3   OH2 3245   5.922   3.276   2.072 -0.0918  0.2976 -0.1151
 1094TIP3    H1 3246   5.841   3.231   2.048  0.4460 -0.4288 -0.5802
 1094TIP3    H2 3247   5.914   3.289   2.167 -1.3056  1.3580 -0.3471
 1095TIP3   OH2 3248   6.886   3.054   5.242  0.9048  0.5646  0.2682
 1095TIP3    H1 3249   6.862   3.018   5.328 -1.3552 -0.3685 -0.6666
 1095TIP3    H2 3250   6.840   3.138   5.238  1.3276  0.7921  0.1008
 1096TIP3   OH2 3251   5.723   2.448   4.286  0.1698 -0.4810 -0.0652
 1096TIP3    H1 3252   5.813   2.436   4.318  0.0819  0.2025  0.4661
 1096TIP3    H2 3253   5.692   2.525   4.333 -0.2723  0.0365 -1.1908
 1097TIP3   OH2 3254   6.088   0.248   5.328 -0.0690 -0.7484  0.6297
 1097TIP3    H1 3255   6.052   0.329   5.292 -2.9413 -1.7559  0.9139
 1097TIP3    H2 3256   6.081   0.258   5.423 -0.7087 -1.4010  0.6624
 1098TIP3   OH2 3257   3.507   3.480   3.472 -0.4495 -0.4348 -0.3501
 1098TIP3    H1 3258   3.484   3.555   3.528 -1.4518 -0.0966 -1.1771
 1098TIP3    H2 3259   3.518   3.519   3.385 -0.4732 -1.1875 -0.6912
 1099TIP3   OH2 3260   2.603   1.664   0.175 -0.3259 -0.1190  0.2768
 1099TIP3    H1 3261   2.569   1.730   0.234  0.9143  2.5183 -1.7471
 1099TIP3    H2 3262   2.541   1.662   0.102  0.8297  0.5804 -0.7709
 1100TIP3   OH2 3263   1.031   1.350   1.312 -0.0086 -0.0509 -0.8439
 1100TIP3    H1 3264   1.002   1.348   1.403  2.8276  0.0130  0.1665
 1100TIP3    H2 3265   0.997   1.268   1.275 -1.0679 -0.1676  0.2904
 1101TIP3   OH2 3266   2.035   6.489   0.691 -0.2096  0.6717  0.4355
 1101TIP3    H1 3267   1.953   6.470   0.644  0.3040  1.1173 -0.6918
 1101TIP3    H2 3268   2.006   6.525   0.775 -1.1763  0.5464  0.1775
 1102TIP3   OH2 3269   6.466   2.043   1.232  0.0623 -0.5132 -0.0433
 1102TIP3    H1 3270   6.398   2.109   1.244 -1.0793 -1.7974  1.0375
 1102TIP3    H2 3271   6.486   2.012   1.321  0.9298 -1.2607 -0.4723
 1103TIP3   OH2 3272   4.758   3.745   2.053  0.0539  0.6281  0.1077
 1103TIP3    H1 3273   4.804   3.820   2.015  0.4655  0.2472 -0.1585
 1103TIP3    H2 3274   4.828   3.687   2.085 -0.2670  0.5222  0.6375
 1104TIP3   OH2 3275   2.935   5.895   1.631 -0.5439  1.0745  0.4270
 1104TIP3    H1 3276   2.874   5.942   1.688 -2.8390 -0.0211 -0.9456
 1104TIP3    H2 3277   2.968   5.961   1.571 -0.7766  1.6190  0.8941
 1105TIP3   OH2 3278   2.144   6.195   4.926  0.0184  0.0443  0.0687
 1105TIP3    H1 3279   2.139   6.280   4.881  0.1543  0.1401  0.2364
 1105TIP3    H2 3280   2.218   6.151   4.885  0.1715  0.1505  0.2311
 1106TIP3   OH2 3281   5.725   0.062   1.205  0.1788 -0.5340  0.2941
 1106TIP3    H1 3282   5.684   0.049   1.119 -0.1933 -0.7314  0.4989
 1106TIP3    H2 3283   5.727   0.156   1.217 -1.0354 -0.5493  0.6741
 1107TIP3   OH2 3284   6.200   1.422   3.623  0.4109  0.1174  0.0367
 1107TIP3    H1 3285   6.198   1.494   3.559 -0.5192  0.9072  0.9211
 1107TIP3    H2 3286   6.108   1.398   3.635  0.5741 -0.0370  1.0497
 1108TIP3   OH2 3287   1.823   4.953   1.442  0.2169 -0.5129 -0.1938
 1108TIP3    H1 3288   1.881   5.023   1.412  0.5835 -1.1992 -1.1414
 1108TIP3    H2 3289   1.742   4.998   1.465  0.9862  0.4214  0.8370
 1109TIP3   OH2 3290   0.440   2.701   4.582 -0.2658  0.1609  0.0532
 1109TIP3    H1 3291   0.468   2.671   4.668  0.3374  0.3840 -0.0611
 1109TIP3    H2 3292   0.364   2.646   4.561 -0.3029 -0.0212  0.6412
 1110TIP3   OH2 3293   4.894   6.050   2.288  0.3624 -0.1272 -0.4975
 1110TIP3    H1 3294   4.872   6.084   2.201  1.4562  0.6860 -0.4739
 1110TIP3    H2 3295   4.911   5.957   2.274  0.1335 -0.0879 -1.0671
 1111TIP3   OH2 3296   4.237   4.776   0.279  0.5352  0.1935 -0.3172
 1111TIP3    H1 3297   4.300   4.711   0.249  0.1043 -0.7863  0.8450
 1111TIP3    H2 3298   4.291   4.843   0.322  1.1246  1.4245 -2.7703
 1112TIP3   OH2 3299   0.804   5.223   2.087 -0.3074  0.4452 -0.3648
 1112TIP3    H1 3300   0.710   5.208   2.083 -0.4529  1.0880  0.3910
 1112TIP3    H2 3301   0.816   5.311   2.051  0.1116  0.0307 -1.2734
 1113TIP3   OH2 3302   1.667   2.283   3.433  0.3915  0.0343  0.1934
 1113TIP3    H1 3303   1.735   2.235   3.386 -0.8192 -0.7462 -0.8600
 1113TIP3    H2 3304   1.626   2.217   3.490  1.2510  0.7639  1.7290
 1114TIP3   OH2 3305   2.444   6.132   5.638 -0.3496 -0.5621  0.4280
 1114TIP3    H1 3306   2.483   6.220   5.644 -0.1613 -0.6088 -0.0525
 1114TIP3    H2 3307   2.515   6.073   5.664 -0.0883 -0.6475 -0.4536
 1115TIP3   OH2 3308   2.585   1.004   3.129 -0.5749  0.1892  0.0378
 1115TIP3    H1 3309   2.623   0.989   3.043  0.2021 -1.0060  0.5660
 1115TIP3    H2 3310   2.656   1.045   3.179 -0.0904 -1.6024  0.8864
 1116TIP3   OH2 3311   1.575   6.227   5.400 -0.1848 -0.3162  0.0412
 1116TIP3    H1 3312   1.589   6.224   5.495  0.7899  1.5629 -0.0018
 1116TIP3    H2 3313   1.646   6.173   5.364  0.7453  0.6826  0.3187
 1117TIP3   OH2 3314   2.641   1.748   3.793 -0.4380 -0.2156  0.6442
 1117TIP3    H1 3315   2.625   1.734   3.700  1.6091 -0.4939  0.2913
 1117TIP3    H2 3316   2.710   1.686   3.815  0.6536  1.3505  1.8301
 1118TIP3   OH2 3317   0.638   3.290   4.404 -0.2629 -0.2156  0.8162
 1118TIP3    H1 3318   0.550   3.261   4.381  0.2157 -0.4424 -0.8436
 1118TIP3    H2 3319   0.632   3.386   4.404  0.2898  0.0062 -3.2542
 1119TIP3   OH2 3320   3.423   6.294   1.763  0.5602  0.2099 -0.7942
 1119TIP3    H1 3321   3.386   6.371   1.806  1.9874  0.7676 -0.5125
 1119TIP3    H2 3322   3.497   6.328   1.713  0.4504 -0.8052 -1.6755
 1120TIP3   OH2 3323   1.593   1.927   3.809 -0.9988 -0.3181  0.5408
 1120TIP3    H1 3324   1.554   1.839   3.804 -0.2633 -0.5998 -0.9086
 1120TIP3    H2 3325   1.595   1.957   3.718  1.6273 -0.1205  0.5775
 1121TIP3   OH2 3326   6.433   4.370   2.102  0.5278  0.1956 -0.8040
 1121TIP3    H1 3327   6.367   4.321   2.053 -0.1838  0.0144  0.3070
 1121TIP3    H2 3328   6.396   4.457   2.113  0.3237  0.0063  0.0855
 1122TIP3   OH2 3329   6.986   6.015   2.050  0.3059 -0.0663  0.0096
 1122TIP3    H1 3330   7.066   5.997   2.001  1.0106  0.9593  0.7378
 1122TIP3    H2 3331   6.922   6.038   1.983  0.9255  0.1743 -0.5108
 1123TIP3   OH2 3332   2.490   6.596   1.343  0.5810  0.1217 -0.5630
 1123TIP3    H1 3333   2.428   6.657   1.302  0.6117 -0.8633 -2.1442
 1123TIP3    H2 3334   2.457   6.585   1.432  0.3213  2.0724 -0.3680
 1124TIP3   OH2 3335   3.969   1.136   1.113 -0.1813  0.4988 -0.2438
 1124TIP3    H1 3336   3.960   1.220   1.158 -1.1127 -0.1290  0.8045
 1124TIP3    H2 3337   3.904   1.079   1.156  0.9014 -0.9472 -0.4474
 1125TIP3   OH2 3338   3.214   5.118   1.465 -0.4047 -0.1743 -0.2679
 1125TIP3    H1 3339   3.277   5.092   1.398 -0.1081  0.0098 -0.0600
 1125TIP3    H2 3340   3.265   5.123   1.545 -0.3487  1.5023 -0.3739
 1126TIP3   OH2 3341   0.674   3.323   2.859  0.3618  0.0965 -0.3712
 1126TIP3    H1 3342   0.709   3.406   2.894 -1.0322  0.1476  1.0162
 1126TIP3    H2 3343   0.717   3.256   2.912  0.1122  0.0289 -0.2577
 1127TIP3   OH2 3344   6.477   4.848   1.603 -0.4948  0.3843 -0.2824
 1127TIP3    H1 3345   6.392   4.803   1.599 -0.7590  0.9424 -1.1430
 1127TIP3    H2 3346   6.523   4.804   1.674 -1.3034 -0.2794 -0.1450
 1128TIP3   OH2 3347   4.563   1.631   2.385 -0.0450 -0.3103  0.2034
 1128TIP3    H1 3348   4.482   1.659   2.341  0.5726  0.1555 -0.6584
 1128TIP3    H2 3349   4.621   1.707   2.379  0.1405 -0.3114  1.6596
 1129TIP3   OH2 3350   0.448   1.158   0.621  0.6837  0.3289  0.1694
 1129TIP3    H1 3351   0.413   1.238   0.582  0.0058  1.1723  2.3482
 1129TIP3    H2 3352   0.493   1.188   0.700  0.9915 -1.3856  0.6775
 1130TIP3   OH2 3353   3.422   1.323   0.964 -0.3517 -0.2076 -0.3840
 1130TIP3    H1 3354   3.402   1.417   0.961 -0.7624 -0.2961 -2.6669
 1130TIP3    H2 3355   3.517   1.318   0.953  0.0199 -0.0412  2.1944
 1131TIP3   OH2 3356   2.143   3.294   3.372 -0.0646  0.0718 -0.5514
 1131TIP3    H1 3357   2.149   3.246   3.454  2.1991  0.0752 -0.6680
 1131TIP3    H2 3358   2.129   3.385   3.398 -1.0460 -0.1585 -0.2414
 1132TIP3   OH2 3359   1.093   1.493   2.982  0.2096 -0.5300 -0.5802
 1132TIP3    H1 3360   1.135   1.538   3.055  0.1251 -0.6373 -0.4657
 1132TIP3    H2 3361   1.164   1.478   2.919  0.6056 -1.7969  0.1286
 1133TIP3   OH2 3362   5.079   4.096   1.852 -0.2007 -0.3167  0.2469
 1133TIP3    H1 3363   5.076   4.188   1.826 -2.3973  0.1042  1.7003
 1133TIP3    H2 3364   5.091   4.048   1.770  1.7028  1.2526 -0.4580
 1134TIP3   OH2 3365   4.128   1.610   5.696 -0.0225  0.4203 -0.4472
 1134TIP3    H1 3366   4.040   1.574   5.707 -0.6745  2.2210  0.5830
 1134TIP3    H2 3367   4.133   1.632   5.603  0.1919 -1.6849 -0.9890
 1135TIP3   OH2 3368   4.819   4.331   4.791  0.2677 -0.2386 -0.1967
 1135TIP3    H1 3369   4.743   4.308   4.845  0.1770 -1.5129 -0.8241
 1135TIP3    H2 3370   4.887   4.355   4.854 -0.9921  2.2339  0.3600
 1136TIP3   OH2 3371   5.679   0.690   2.627  0.5538  0.1524 -0.1319
 1136TIP3    H1 3372   5.773   0.707   2.627  0.7949 -1.0979  0.3542
 1136TIP3    H2 3373   5.669   0.605   2.583 -0.2289 -0.2856  0.8560
 1137TIP3   OH2 3374   1.144   1.919   2.500 -0.1134 -0.6248 -0.0586
 1137TIP3    H1 3375   1.193   1.920   2.582 -0.9554  1.8900  0.5066
 1137TIP3    H2 3376   1.063   1.967   2.521 -0.4818 -0.2080 -2.2745
 1138TIP3   OH2 3377   0.240   0.314   3.657 -0.1783  0.4100  0.0482
 1138TIP3    H1 3378   0.328   0.280   3.673 -0.1107 -0.1004 -1.3110
 1138TIP3    H2 3379   0.188   0.236   3.637 -0.9653  0.7018  0.8789
 1139TIP3   OH2 3380   2.960   4.682   2.571 -0.3210 -0.1430 -0.4336
 1139TIP3    H1 3381   2.938   4.724   2.653 -0.4815 -0.7676 -0.1525
 1139TIP3    H2 3382   3.050   4.650   2.583 -0.4145 -0.4056 -0.4335
 1140TIP3   OH2 3383   2.970   5.415   2.197  0.6153 -0.5548 -0.0794
 1140TIP3    H1 3384   3.035   5.459   2.252  0.5142  0.3754 -0.6812
 1140TIP3    H2 3385   3.009   5.416   2.110  0.3379 -1.1214 -0.2071
 1141TIP3   OH2 3386   3.590   6.514   5.675 -0.0368 -0.0868 -0.2393
 1141TIP3    H1 3387   3.546   6.444   5.724  0.3235 -1.7535 -2.1665
 1141TIP3    H2 3388   3.678   6.516   5.710  0.1651 -1.1392 -0.6483
 1142TIP3   OH2 3389   0.463   4.016   1.616 -0.0940  0.0746 -0.2757
 1142TIP3    H1 3390   0.508   3.949   1.565 -0.7112 -0.4410 -0.1471
 1142TIP3    H2 3391   0.508   4.098   1.593  2.1851 -0.6309  1.2469
 1143TIP3   OH2 3392   4.354   2.399   2.275  0.5103 -0.1484 -0.0214
 1143TIP3    H1 3393   4.309   2.364   2.198  1.8641 -0.7415 -0.5715
 1143TIP3    H2 3394   4.442   2.362   2.271  0.7815  0.2522  1.5236
 1144TIP3   OH2 3395   3.698   6.640   5.310 -0.4378  0.1111 -0.1293
 1144TIP3    H1 3396   3.781   6.605   5.343 -1.0770 -0.5010  0.8503
 1144TIP3    H2 3397   3.661   6.689   5.383 -0.5621  1.0980 -0.8266
 1145TIP3   OH2 3398   5.241   5.283   1.139  0.1909  0.1772 -1.3302
 1145TIP3    H1 3399   5.192   5.364   1.121  0.7257  0.5778 -1.0080
 1145TIP3    H2 3400   5.206   5.252   1.223  0.4060  0.4035 -1.1550
 1146TIP3   OH2 3401   5.421   5.705   5.596 -0.0318 -0.1628  0.1514
 1146TIP3    H1 3402   5.471   5.742   5.669  1.4752 -0.6868 -0.5679
 1146TIP3    H2 3403   5.485   5.654   5.547 -0.9704  0.2627 -1.6015
 1147TIP3   OH2 3404   1.925   2.137   4.462 -0.3693  0.2012 -0.2650
 1147TIP3    H1 3405   1.865   2.156   4.389 -1.2734 -0.0425  0.3966
 1147TIP3    H2 3406   1.920   2.215   4.517 -1.4276 -0.4987  0.6755
 1148TIP3   OH2 3407   6.512   2.955   5.388 -0.4085  0.0961  0.6579
 1148TIP3    H1 3408   6.458   2.877   5.396 -0.6401 -0.1812 -2.4431
 1148TIP3    H2 3409   6.452   3.027   5.412 -1.2644 -0.4149  0.1052
 1149TIP3   OH2 3410   6.094   0.774   1.738 -0.1209 -0.0594 -0.0731
 1149TIP3    H1 3411   6.078   0.868   1.739 -0.5195 -0.0915 -1.3068
 1149TIP3    H2 3412   6.183   0.764   1.770 -0.1636  0.7200  0.2932
 1150TIP3   OH2 3413   3.906   5.862   1.385  0.2865 -0.8019 -0.1357
 1150TIP3    H1 3414   3.863   5.913   1.316 -0.5269  0.8668  1.4897
 1150TIP3    H2 3415   3.984   5.825   1.344 -0.0786  0.2732 -1.8845
 1151TIP3   OH2 3416   5.706   2.802   0.967 -0.0308  0.0455 -0.2333
 1151TIP3    H1 3417   5.647   2.733   0.936 -1.9276 -0.0359  3.0397
 1151TIP3    H2 3418   5.786   2.756   0.991  0.2704 -0.3329 -1.8597
 1152TIP3   OH2 3419   2.018   0.193   1.703 -0.1325  0.1028 -0.7059
 1152TIP3    H1 3420   2.054   0.235   1.625  0.5425 -0.8841 -0.9530
 1152TIP3    H2 3421   1.927   0.174   1.680  0.2170 -0.7132 -1.4952
 1153TIP3   OH2 3422   3.426   0.817   1.951 -0.4110 -0.0385 -0.8055
 1153TIP3    H1 3423   3.408   0.895   2.004 -2.3010  0.0386 -1.4728
 1153TIP3    H2 3424   3.395   0.840   1.864 -2.2770 -1.9548 -0.7314
 1154TIP3   OH2 3425   3.307   3.039   2.306  0.1874  0.5696 -0.5660
 1154TIP3    H1 3426   3.385   3.061   2.255  1.0691  1.6237  1.1502
 1154TIP3    H2 3427   3.268   3.124   2.327  0.2013  0.2191  1.0086
 1155TIP3   OH2 3428   0.528   4.846   5.072  0.1533  0.0182  0.6224
 1155TIP3    H1 3429   0.485   4.761   5.084 -2.3656  0.9378 -1.1204
 1155TIP3    H2 3430   0.607   4.826   5.023 -0.4068 -1.3467  0.2256
 1156TIP3   OH2 3431   2.562   1.165   4.856 -0.1028  0.1295  0.3584
 1156TIP3    H1 3432   2.495   1.221   4.818 -0.0691  1.6009  2.3075
 1156TIP3    H2 3433   2.523   1.132   4.937  0.4802 -1.4178  0.0520
 1157TIP3   OH2 3434   6.098   5.717   0.024  0.0431 -0.8589 -0.2913
 1157TIP3    H1 3435   6.009   5.753   0.027  1.0050  1.7251 -0.5505
 1157TIP3    H2 3436   6.087   5.629  -0.013 -2.6328 -1.5752  1.9116
 1158TIP3   OH2 3437   6.190   5.993   1.712 -0.3279 -0.2891 -0.4825
 1158TIP3    H1 3438   6.218   6.083   1.729  1.1061 -0.9760  1.1291
 1158TIP3    H2 3439   6.231   5.970   1.629  1.3937 -0.2259  0.3141
 1159TIP3   OH2 3440   0.995   0.676   2.438 -0.2644 -0.3948 -0.3996
 1159TIP3    H1 3441   0.913   0.726   2.435 -0.2335 -0.3010  0.1106
 1159TIP3    H2 3442   0.968   0.585   2.432 -0.3339 -0.3271 -1.1932
 1160TIP3   OH2 3443   6.407   4.163   5.744 -0.3456 -0.4083 -0.0356
 1160TIP3    H1 3444   6.474   4.116   5.694 -1.8572 -0.4201 -2.1766
 1160TIP3    H2 3445   6.381   4.236   5.687 -1.5915  0.0430  1.0600
 1161TIP3   OH2 3446   2.424   1.166   5.604  0.2478  0.0612 -0.0084
 1161TIP3    H1 3447   2.464   1.079   5.613  2.1133  0.7616 -1.0046
 1161TIP3    H2 3448   2.334   1.148   5.576  0.2861 -1.5518  0.7637
 1162TIP3   OH2 3449   0.387   6.171   1.071  0.7939 -0.7658 -0.2273
 1162TIP3    H1 3450   0.460   6.182   1.010  1.4485  1.4013  0.8046
 1162TIP3    H2 3451   0.309   6.175   1.017  1.4017 -1.1301 -1.1521
 1163TIP3   OH2 3452   5.340   4.421   3.761 -0.1747 -0.3301 -0.2146
 1163TIP3    H1 3453   5.342   4.516   3.765  0.4490 -0.2920 -1.1695
 1163TIP3    H2 3454   5.413   4.394   3.817 -0.2036 -0.2385 -0.1325
 1164TIP3   OH2 3455   0.055   6.751   3.247 -0.3809  0.7376  0.4871
 1164TIP3    H1 3456   0.064   6.741   3.152  0.8459 -0.0142  0.6600
 1164TIP3    H2 3457   0.064   6.845   3.262  1.1939  0.7122 -0.0180
 1165TIP3   OH2 3458   2.435   2.545   0.004 -0.2047 -0.1625  0.2150
 1165TIP3    H1 3459   2.352   2.559   0.048 -0.5154 -1.6118  0.1404
 1165TIP3    H2 3460   2.501   2.584   0.062 -0.8239 -0.0177  0.8256
 1166TIP3   OH2 3461   4.607   4.719   4.298  0.5554 -1.0136 -0.3142
 1166TIP3    H1 3462   4.563   4.782   4.241  0.8491 -0.8159 -0.3245
 1166TIP3    H2 3463   4.677   4.769   4.339 -0.5782 -0.7323  1.4001
 1167TIP3   OH2 3464   0.850   4.871   0.781  0.1993  0.1010  0.3047
 1167TIP3    H1 3465   0.944   4.883   0.787  0.2996 -0.5195  0.0526
 1167TIP3    H2 3466   0.839   4.808   0.710 -0.5954  3.2411 -2.6809
 1168TIP3   OH2 3467   3.279   5.020   1.931 -0.5006  0.2888  0.4131
 1168TIP3    H1 3468   3.277   5.064   1.846 -0.4725  0.2362  0.3851
 1168TIP3    H2 3469   3.202   4.963   1.930 -0.3025  0.0224  0.2807
 1169TIP3   OH2 3470   5.359   3.339   4.949 -0.1339  0.0473  0.1649
 1169TIP3    H1 3471   5.318   3.392   4.881 -0.5405  0.4883  0.7440
 1169TIP3    H2 3472   5.299   3.345   5.023 -0.6989 -2.0085 -0.0555
 1170TIP3   OH2 3473   6.769   3.963   3.544 -0.7685 -0.7172  0.1391
 1170TIP3    H1 3474   6.837   3.977   3.610 -0.1499  1.2537 -0.8334
 1170TIP3    H2 3475   6.804   3.893   3.489  0.2991 -0.0666 -0.0570
 1171TIP3   OH2 3476   1.017   1.503   2.003  0.2897  0.0726  0.2531
 1171TIP3    H1 3477   0.937   1.471   1.962  0.3662 -0.4705  0.5267
 1171TIP3    H2 3478   1.074   1.426   2.008 -0.1751 -0.1724  2.4908
 1172TIP3   OH2 3479   2.447   4.243   3.803  0.7036  0.3183 -0.1715
 1172TIP3    H1 3480   2.525   4.233   3.748  2.6387  3.1035  1.7629
 1172TIP3    H2 3481   2.406   4.324   3.771  0.8919  1.0138  1.2454
 1173TIP3   OH2 3482   5.035   2.664   0.142 -0.1277  0.1041  0.0108
 1173TIP3    H1 3483   5.064   2.750   0.172  0.7201 -0.3907  0.6677
 1173TIP3    H2 3484   4.970   2.637   0.208 -0.0848  0.0668  0.0381
 1174TIP3   OH2 3485   4.117   6.642   0.408  0.7464 -0.0060  0.3197
 1174TIP3    H1 3486   4.184   6.596   0.357 -0.1024 -2.1149  0.9835
 1174TIP3    H2 3487   4.158   6.657   0.493  0.5462 -0.8732  0.5747
 1175TIP3   OH2 3488   1.998   3.102   4.581 -0.3178 -0.1830 -0.4868
 1175TIP3    H1 3489   1.977   3.094   4.489  1.4067 -0.8165 -0.8671
 1175TIP3    H2 3490   2.018   3.013   4.610 -2.7761 -0.3317  1.0594
 1176TIP3   OH2 3491   0.524   3.230   3.381  0.2006 -0.5764  0.0615
 1176TIP3    H1 3492   0.521   3.231   3.285 -1.0653  1.1031  0.0702
 1176TIP3    H2 3493   0.467   3.158   3.406  1.2577 -1.6229 -0.4223
 1177TIP3   OH2 3494   0.887   3.716   2.016  0.1277 -0.0460 -0.4718
 1177TIP3    H1 3495   0.885   3.802   2.057 -0.1090 -0.6185  0.7950
 1177TIP3    H2 3496   0.976   3.706   1.984  0.8832 -0.2605  1.5263
 1178TIP3   OH2 3497   3.397   6.322   2.662  0.0047 -0.4830 -0.2739
 1178TIP3    H1 3498   3.334   6.262   2.621  0.2888  0.1558 -1.7159
 1178TIP3    H2 3499   3.418   6.385   2.593  0.8167  0.4165  0.7633
 1179TIP3   OH2 3500   4.000   6.094   2.476  0.0417 -0.5207 -0.1794
 1179TIP3    H1 3501   4.017   6.167   2.417  1.1821 -0.7734 -0.1766
 1179TIP3    H2 3502   3.923   6.121   2.526  0.1982  0.4961 -0.4737
 1180TIP3   OH2 3503   4.568   5.949   3.346 -0.2245 -0.0930 -0.3018
 1180TIP3    H1 3504   4.501   5.885   3.369  0.4644 -0.8128 -0.2527
 1180TIP3    H2 3505   4.617   5.907   3.275 -0.1413  0.6342 -0.6774
 1181TIP3   OH2 3506   2.006   2.766   3.407  0.4148 -0.5085  0.3852
 1181TIP3    H1 3507   1.978   2.841   3.354  0.0601  0.5671  2.0214
 1181TIP3    H2 3508   2.087   2.795   3.448  0.3932 -1.1182  0.8660
 1182TIP3   OH2 3509   3.095   4.497   4.998  0.1752  0.0883 -0.2383
 1182TIP3    H1 3510   3.039   4.453   5.062 -1.2877  0.5541 -1.1337
 1182TIP3    H2 3511   3.119   4.429   4.935  0.5805 -0.0977  0.1112
 1183TIP3   OH2 3512   3.833   5.858   4.388  0.2435  0.5767 -0.2584
 1183TIP3    H1 3513   3.835   5.912   4.309 -0.2428 -0.8728 -1.3178
 1183TIP3    H2 3514   3.749   5.811   4.382 -0.1612  1.0005  1.5332
 1184TIP3   OH2 3515   3.313   0.058   4.032 -0.4333  0.5227 -0.1068
 1184TIP3    H1 3516   3.370   0.134   4.021  2.8858 -1.8155 -0.5596
 1184TIP3    H2 3517   3.319   0.036   4.125  2.4594 -1.7116 -0.6699
 1185TIP3   OH2 3518   2.420   0.525   3.503 -0.3987 -0.2729  0.2063
 1185TIP3    H1 3519   2.350   0.470   3.470  1.1813 -0.8596 -2.4089
 1185TIP3    H2 3520   2.389   0.614   3.491 -0.3855 -0.5074 -1.8060
 1186TIP3   OH2 3521   0.120   4.593   4.163  0.1790 -0.6186  0.0416
 1186TIP3    H1 3522   0.076   4.508   4.163 -0.7728 -0.1596 -0.7532
 1186TIP3    H2 3523   0.168   4.595   4.080 -1.3727  0.3379 -0.9018
 1187TIP3   OH2 3524   5.089   0.886   3.484 -0.7483 -0.4602 -0.2017
 1187TIP3    H1 3525   5.103   0.980   3.472 -1.1059 -0.1814  1.3665
 1187TIP3    H2 3526   5.167   0.845   3.445  0.0244  0.5577  0.2119
 1188TIP3   OH2 3527   0.831   5.943   4.847  0.1836  0.6039 -0.0339
 1188TIP3    H1 3528   0.770   5.900   4.907  0.3108  0.7971  0.2361
 1188TIP3    H2 3529   0.788   6.026   4.824  0.7094  1.1333  0.8233
 1189TIP3   OH2 3530   5.237   2.114   3.054 -0.2094  0.0745  0.2079
 1189TIP3    H1 3531   5.200   2.174   3.118  0.6333 -0.1963  0.9673
 1189TIP3    H2 3532   5.331   2.132   3.055 -0.2771  0.7938 -1.7270
 1190TIP3   OH2 3533   6.813   3.134   2.493 -0.2390 -0.2607 -0.4255
 1190TIP3    H1 3534   6.889   3.192   2.483 -0.7459  0.2092 -1.8481
 1190TIP3    H2 3535   6.746   3.189   2.533 -0.4810 -0.0702 -1.0834
 1191TIP3   OH2 3536   3.001   4.309   3.490  0.3242  0.3782  0.3745
 1191TIP3    H1 3537   3.067   4.269   3.546  0.8471  2.2436  1.1546
 1191TIP3    H2 3538   3.003   4.402   3.512 -1.2134  0.7867 -0.9765
 1192TIP3   OH2 3539   3.580   3.390   4.439 -0.4748  0.6308  0.1106
 1192TIP3    H1 3540   3.555   3.324   4.374 -0.5178  0.2011  0.5603
 1192TIP3    H2 3541   3.604   3.340   4.517 -2.0290  1.1873  0.9893
 1193TIP3   OH2 3542   3.731   1.443   4.050  0.5427 -0.3806  0.5510
 1193TIP3    H1 3543   3.760   1.524   4.009  1.7997 -0.3792  1.4142
 1193TIP3    H2 3544   3.804   1.382   4.038  0.5464 -0.6724  1.9155
 1194TIP3   OH2 3545   4.591   1.146   1.803 -0.2266  0.5206  0.0813
 1194TIP3    H1 3546   4.633   1.079   1.750 -1.7774 -0.3969 -0.0663
 1194TIP3    H2 3547   4.500   1.146   1.773 -0.9241  0.6433  2.0585
 1195TIP3   OH2 3548   3.662   1.799   4.558  0.1657  0.2478 -0.2332
 1195TIP3    H1 3549   3.574   1.806   4.595  0.4216 -0.5239  0.5563
 1195TIP3    H2 3550   3.647   1.783   4.465 -0.5059  1.1254 -0.2952
 1196TIP3   OH2 3551   2.919   6.191   5.751  0.1106  0.2851 -0.8187
 1196TIP3    H1 3552   2.974   6.250   5.700 -2.0504  2.2011 -1.0610
 1196TIP3    H2 3553   2.944   6.208   5.842 -0.6109  1.7579 -0.8728
 1197TIP3   OH2 3554   6.602   4.795   2.448  0.0161  0.3852  0.4163
 1197TIP3    H1 3555   6.629   4.825   2.361  0.2834  2.9918  1.3072
 1197TIP3    H2 3556   6.563   4.709   2.433 -0.3944  0.9658 -2.3569
 1198TIP3   OH2 3557   3.945   3.052   3.312  0.5264  0.4675 -0.1736
 1198TIP3    H1 3558   3.898   3.028   3.232 -0.3057  0.6993  0.2349
 1198TIP3    H2 3559   3.913   3.139   3.334 -1.4150 -0.6603  1.9307
 1199TIP3   OH2 3560   0.699   3.888   2.763 -0.0423 -0.4015  0.2215
 1199TIP3    H1 3561   0.769   3.862   2.702  0.8323  1.4412  0.3788
 1199TIP3    H2 3562   0.628   3.827   2.743  0.9834 -1.2459 -1.1357
 1200TIP3   OH2 3563   7.119   6.733   2.072  0.3772  0.4930  0.3505
 1200TIP3    H1 3564   7.029   6.704   2.057  0.5169 -0.2656  0.9406
 1200TIP3    H2 3565   7.138   6.790   1.997 -0.3800  0.1645 -0.1056
 1201TIP3   OH2 3566   5.190   5.382   2.786  0.1447  0.0600  0.2005
 1201TIP3    H1 3567   5.205   5.441   2.712  2.2947  0.2808  0.7585
 1201TIP3    H2 3568   5.235   5.301   2.761  0.3008 -0.0982  0.9866
 1202TIP3   OH2 3569   4.398   4.135   4.593 -0.0451  0.7276 -0.1437
 1202TIP3    H1 3570   4.350   4.155   4.673 -0.3230 -0.4617 -0.0059
 1202TIP3    H2 3571   4.464   4.205   4.587 -1.8271  2.4869 -0.3996
 1203TIP3   OH2 3572   6.284   0.063   1.427  0.2928  0.1812 -0.4625
 1203TIP3    H1 3573   6.192   0.060   1.453 -0.3159 -1.1772 -2.5287
 1203TIP3    H2 3574   6.312  -0.028   1.428  1.0859  0.3977 -1.5921
 1204TIP3   OH2 3575   4.120   5.052   4.891  0.4777 -0.6658  0.1967
 1204TIP3    H1 3576   4.135   5.071   4.798  1.6709  1.3002  0.7378
 1204TIP3    H2 3577   4.034   5.090   4.910  1.0946  0.7315  0.3191
 1205TIP3   OH2 3578   7.142   2.726   0.702  0.6139  0.6865 -0.5707
 1205TIP3    H1 3579   7.118   2.641   0.667 -0.6214  0.6076  0.3752
 1205TIP3    H2 3580   7.093   2.789   0.649 -0.7509  0.6042  0.5262
 1206TIP3   OH2 3581   4.225   2.582   0.802  0.4694 -0.1929 -0.0226
 1206TIP3    H1 3582   4.241   2.641   0.875 -0.3121 -0.2309  0.1949
 1206TIP3    H2 3583   4.305   2.530   0.795  1.0108  0.6197  0.0326
 1207TIP3   OH2 3584   4.080   6.313   2.302  0.2086  0.1895  0.0874
 1207TIP3    H1 3585   4.127   6.387   2.339  0.2683  0.2386 -0.0873
 1207TIP3    H2 3586   4.131   6.287   2.225  0.3962 -0.2754  0.3699
 1208TIP3   OH2 3587   3.351   2.257   5.664  0.2335 -0.3277 -0.2052
 1208TIP3    H1 3588   3.414   2.304   5.611 -1.4126  1.7295 -0.4665
 1208TIP3    H2 3589   3.345   2.307   5.746 -3.0096  1.3259 -1.2586
 1209TIP3   OH2 3590   0.917   6.532   5.510 -0.5055 -0.5031 -0.1567
 1209TIP3    H1 3591   0.830   6.540   5.471 -0.7468 -0.6578  0.3327
 1209TIP3    H2 3592   0.966   6.607   5.477 -1.3313  0.5071  0.8156
 1210TIP3   OH2 3593   2.422   4.226   4.599  0.2999  0.0121 -0.3248
 1210TIP3    H1 3594   2.440   4.238   4.692 -0.3226  1.2247 -0.3452
 1210TIP3    H2 3595   2.463   4.301   4.557  1.6297 -1.1452 -1.1920
 1211TIP3   OH2 3596   0.441   3.180   5.331  0.0093 -0.0915 -0.2376
 1211TIP3    H1 3597   0.447   3.175   5.426 -1.8371 -1.8400 -0.1441
 1211TIP3    H2 3598   0.510   3.121   5.299  1.8841  1.9315 -0.0926
 1212TIP3   OH2 3599   1.995   5.758   0.766 -0.3302  0.0609  0.4583
 1212TIP3    H1 3600   2.000   5.779   0.673 -1.2263 -0.3188  0.3127
 1212TIP3    H2 3601   2.049   5.679   0.777 -0.7144 -0.2469  0.1465
 1213TIP3   OH2 3602   3.598   1.482   5.048 -0.0284 -0.2364 -0.1946
 1213TIP3    H1 3603   3.530   1.525   4.996 -2.7016 -1.5442  1.9402
 1213TIP3    H2 3604   3.561   1.396   5.069  0.6615  0.2533  3.9631
 1214TIP3   OH2 3605   6.475   2.600   4.084  0.5903  0.0676  0.1994
 1214TIP3    H1 3606   6.535   2.557   4.023 -0.5363 -0.9215 -0.2522
 1214TIP3    H2 3607   6.452   2.683   4.041  0.8595 -0.0009 -0.0787
 1215TIP3   OH2 3608   2.280   5.669   1.860 -0.9505 -0.1362 -0.0453
 1215TIP3    H1 3609   2.274   5.575   1.877  2.0188 -0.3626  0.3277
 1215TIP3    H2 3610   2.321   5.705   1.938  0.0733  1.0694 -1.0879
 1216TIP3   OH2 3611   2.549   3.621   2.476  0.5931  0.1308  0.7029
 1216TIP3    H1 3612   2.645   3.617   2.479  0.6489  0.0211 -0.8003
 1216TIP3    H2 3613   2.526   3.588   2.389 -0.7041  2.2381  0.1873
 1217TIP3   OH2 3614   6.717   1.712   4.823  0.2277  0.1762 -0.0489
 1217TIP3    H1 3615   6.779   1.785   4.828  0.3391  0.1312 -0.6944
 1217TIP3    H2 3616   6.701   1.689   4.915  3.3180 -1.5954  0.1912
 1218TIP3   OH2 3617   5.366   6.018   3.915 -0.2355 -0.1983 -0.5618
 1218TIP3    H1 3618   5.444   5.963   3.906 -0.4762 -0.5714 -0.4028
 1218TIP3    H2 3619   5.328   5.991   3.998  0.4314  1.2428  0.2345
 1219TIP3   OH2 3620   3.924   2.794   1.177 -0.0129 -0.2665  0.0046
 1219TIP3    H1 3621   3.889   2.797   1.266 -1.7427 -0.2843 -0.6318
 1219TIP3    H2 3622   3.988   2.864   1.173 -0.9573  0.6656  0.8572
 1220TIP3   OH2 3623   0.501   3.679   4.610  0.1966  0.0778  0.5277
 1220TIP3    H1 3624   0.417   3.719   4.585  0.2102 -1.2025 -1.8842
 1220TIP3    H2 3625   0.555   3.752   4.639 -1.6883  0.9469  2.0318
 1221TIP3   OH2 3626   5.522   2.703   3.403 -0.3013 -0.1286 -0.4421
 1221TIP3    H1 3627   5.452   2.638   3.402 -0.5989  0.1871 -0.1156
 1221TIP3    H2 3628   5.585   2.670   3.339  0.0306 -1.2678  0.4213
 1222TIP3   OH2 3629   5.983   4.870   2.429  0.2799 -1.0027  0.0098
 1222TIP3    H1 3630   5.960   4.947   2.481  1.5350  0.8114 -1.9928
 1222TIP3    H2 3631   6.042   4.820   2.486  1.7844  1.0298  0.3421
 1223TIP3   OH2 3632   2.258   5.623   1.491  0.0278  0.2387 -0.1503
 1223TIP3    H1 3633   2.333   5.569   1.516 -0.7687 -0.3703  0.9733
 1223TIP3    H2 3634   2.297   5.695   1.441  1.2898 -0.4098 -0.1561
 1224TIP3   OH2 3635   5.531   6.398   2.675  0.3859  0.1623  0.5019
 1224TIP3    H1 3636   5.471   6.357   2.613 -0.2948 -0.9197  1.8186
 1224TIP3    H2 3637   5.507   6.360   2.760  0.8707  2.0438  1.5332
 1225TIP3   OH2 3638   6.722   5.148   3.264  0.0222  0.0994  0.4904
 1225TIP3    H1 3639   6.682   5.067   3.295 -0.3904  0.3667  0.6648
 1225TIP3    H2 3640   6.809   5.149   3.304  0.7473 -1.1352 -0.9330
 1226TIP3   OH2 3641   2.334   6.403   4.424 -0.3299 -0.2748  0.4715
 1226TIP3    H1 3642   2.429   6.410   4.432 -0.3598  0.8942  0.0465
 1226TIP3    H2 3643   2.301   6.484   4.463 -1.0670 -0.0499 -0.5868
 1227TIP3   OH2 3644   4.048   0.369   3.828 -0.0441 -0.3446 -0.2596
 1227TIP3    H1 3645   4.057   0.436   3.759 -0.8011  0.5522  0.4815
 1227TIP3    H2 3646   3.987   0.305   3.791 -1.2651  0.6607 -0.0681
 1228TIP3   OH2 3647   5.480   2.920   0.460 -0.1588 -0.0121  0.6602
 1228TIP3    H1 3648   5.530   2.860   0.516  0.9681  1.6785  1.5575
 1228TIP3    H2 3649   5.532   2.927   0.380 -0.6903 -0.7802  0.2256
 1229TIP3   OH2 3650   2.622   3.895   3.952  0.2639 -0.1803 -0.2835
 1229TIP3    H1 3651   2.643   3.988   3.958 -1.1032  0.2663 -1.5602
 1229TIP3    H2 3652   2.586   3.885   3.864  2.5273 -2.3990 -1.0816
 1230TIP3   OH2 3653   5.372   1.347   0.315 -0.1910  0.3256  0.1377
 1230TIP3    H1 3654   5.443   1.336   0.252  0.7530  2.5472  0.7126
 1230TIP3    H2 3655   5.310   1.278   0.294  2.1265 -1.7319 -0.3644
 1231TIP3   OH2 3656   5.014   2.272   2.312 -0.4484 -0.1955  0.2679
 1231TIP3    H1 3657   5.054   2.329   2.377 -1.7302  0.8430  0.1897
 1231TIP3    H2 3658   4.922   2.297   2.312 -0.5813 -0.5648 -1.5272
 1232TIP3   OH2 3659   3.523   6.536   0.535 -0.0453  0.0782 -0.2179
 1232TIP3    H1 3660   3.562   6.619   0.507 -0.3084 -0.0741 -1.0688
 1232TIP3    H2 3661   3.587   6.469   0.508 -1.0951 -0.2239 -2.1406
 1233TIP3   OH2 3662   1.708   1.935   1.737 -0.2085  0.1653  0.7340
 1233TIP3    H1 3663   1.802   1.942   1.752  0.2552 -1.4180 -1.0754
 1233TIP3    H2 3664   1.674   1.887   1.813  0.5873 -0.0554  0.9548
 1234TIP3   OH2 3665   4.491   6.527   2.473  0.1431  0.1275  0.3303
 1234TIP3    H1 3666   4.532   6.441   2.476 -4.1090 -2.1882  1.8470
 1234TIP3    H2 3667   4.505   6.563   2.561  0.3624  0.1565  0.2843
 1235TIP3   OH2 3668   0.305   3.287   3.912 -0.3881 -0.0280  0.3526
 1235TIP3    H1 3669   0.224   3.257   3.954  0.1080  1.2267  2.2918
 1235TIP3    H2 3670   0.305   3.382   3.925  1.0791  0.0734 -0.2193
 1236TIP3   OH2 3671   6.656   3.671   3.199 -0.3557  0.8751  0.6176
 1236TIP3    H1 3672   6.596   3.680   3.272 -0.3173  0.4266  0.7052
 1236TIP3    H2 3673   6.600   3.674   3.121 -0.4891  0.4626  0.6983
 1237TIP3   OH2 3674   2.765   6.443   3.699  0.2655 -0.6947 -0.7884
 1237TIP3    H1 3675   2.721   6.526   3.683 -0.4139 -0.6441  1.0138
 1237TIP3    H2 3676   2.706   6.377   3.662  0.4084 -0.4299 -1.4958
 1238TIP3   OH2 3677   1.839   2.893   1.832  0.6857  0.4339  0.5294
 1238TIP3    H1 3678   1.921   2.941   1.844 -0.1715  2.2890 -0.5573
 1238TIP3    H2 3679   1.770   2.959   1.845 -0.5282  0.1741 -3.1353
 1239TIP3   OH2 3680   1.494   0.309   0.731 -0.4971 -0.8696 -0.4842
 1239TIP3    H1 3681   1.460   0.229   0.692 -1.2054 -0.1364 -1.4465
 1239TIP3    H2 3682   1.546   0.349   0.661  0.0831 -0.6239  0.0762
 1240TIP3   OH2 3683   2.217   2.449   3.418 -0.3164 -0.0502 -0.4405
 1240TIP3    H1 3684   2.152   2.500   3.465 -1.2827 -1.7254  0.1265
 1240TIP3    H2 3685   2.174   2.424   3.336 -0.1743 -0.6250 -0.3495
 1241TIP3   OH2 3686   2.191   0.092   0.840  0.4602 -0.2120  0.2992
 1241TIP3    H1 3687   2.101   0.068   0.817  0.4253  0.3172 -0.1534
 1241TIP3    H2 3688   2.187   0.186   0.856  0.6863 -0.3980  1.5642
 1242TIP3   OH2 3689   5.738   3.306   3.377  0.1452  0.2487  0.0287
 1242TIP3    H1 3690   5.696   3.257   3.307 -0.5664  0.2510  0.4447
 1242TIP3    H2 3691   5.830   3.313   3.350  0.4589 -1.9805  0.3254
 1243TIP3   OH2 3692   5.402   2.611   4.198 -0.8849 -0.3714 -0.1411
 1243TIP3    H1 3693   5.455   2.556   4.141  1.9420  1.6160  0.3588
 1243TIP3    H2 3694   5.403   2.698   4.157 -2.3083  0.1601  0.8290
 1244TIP3   OH2 3695   5.660   1.408   0.457 -0.1284  0.1672 -0.8436
 1244TIP3    H1 3696   5.661   1.340   0.389  1.2830  0.1762 -0.8727
 1244TIP3    H2 3697   5.600   1.376   0.523  0.8747 -1.3807 -0.6320
 1245TIP3   OH2 3698   5.297   4.717   2.632  0.8314  0.1402  0.0754
 1245TIP3    H1 3699   5.303   4.739   2.539  0.0349 -0.8059 -0.2167
 1245TIP3    H2 3700   5.387   4.699   2.658  0.9221 -0.8021 -0.8407
 1246TIP3   OH2 3701   4.316   5.954   3.530  0.3055 -0.6239  0.5213
 1246TIP3    H1 3702   4.226   5.939   3.558 -0.1854  0.6547 -0.2756
 1246TIP3    H2 3703   4.311   6.028   3.470  2.2291  1.4675  2.6988
 1247TIP3   OH2 3704   2.977   1.524   5.219  0.4248 -0.6467 -0.6020
 1247TIP3    H1 3705   2.984   1.508   5.313 -2.6074 -1.7132 -0.4697
 1247TIP3    H2 3706   2.987   1.437   5.179  0.0791 -0.4367 -1.1610
 1248TIP3   OH2 3707   2.223   5.654   2.266 -0.1393 -0.5175 -0.2632
 1248TIP3    H1 3708   2.220   5.631   2.359 -2.1453  0.9212  0.0761
 1248TIP3    H2 3709   2.169   5.588   2.223 -1.0619  0.1208 -0.0921
 1249TIP3   OH2 3710   0.852   4.172   2.599  0.1986  0.3501  0.2178
 1249TIP3    H1 3711   0.871   4.199   2.509 -0.1611  0.9890  0.3252
 1249TIP3    H2 3712   0.938   4.156   2.638  0.3328 -0.4413 -0.3885
 1250TIP3   OH2 3713   6.579   0.129   4.717  0.3144 -0.2683  0.3454
 1250TIP3    H1 3714   6.539   0.183   4.785  0.6317  0.2081  0.1613
 1250TIP3    H2 3715   6.673   0.144   4.727  0.5423 -2.0801  1.3666
 1251TIP3   OH2 3716   1.032   2.980   3.817 -0.1917  0.3964 -0.1803
 1251TIP3    H1 3717   0.996   2.921   3.883 -1.0199 -1.3187 -2.0554
 1251TIP3    H2 3718   1.043   3.063   3.863  0.4110 -1.0015  2.4118
 1252TIP3   OH2 3719   2.881   2.231   2.579 -0.0187 -0.1974 -0.6146
 1252TIP3    H1 3720   2.847   2.155   2.532 -1.1498  0.0664 -0.2340
 1252TIP3    H2 3721   2.948   2.195   2.638 -1.1100 -1.0281  0.1556
 1253TIP3   OH2 3722   4.024   1.003   5.639 -0.5089 -0.1745  0.6393
 1253TIP3    H1 3723   4.077   0.972   5.565 -0.7337 -0.0104  0.4087
 1253TIP3    H2 3724   3.994   1.090   5.612 -1.4970 -0.5632  0.4583
 1254TIP3   OH2 3725   3.756   4.629   1.280 -0.0557 -0.0184  0.5001
 1254TIP3    H1 3726   3.812   4.690   1.327 -0.5104 -0.8324  2.1676
 1254TIP3    H2 3727   3.760   4.548   1.331 -2.0388 -0.3706  0.1959
 1255TIP3   OH2 3728   4.094   4.607   5.381 -0.7398 -0.2597  0.0943
 1255TIP3    H1 3729   4.140   4.679   5.338  0.9458 -2.3046 -1.7526
 1255TIP3    H2 3730   4.164   4.551   5.416 -1.9005 -1.9520 -0.1683
 1256TIP3   OH2 3731   0.995   1.420   4.643 -0.2026  0.0702 -0.2164
 1256TIP3    H1 3732   1.077   1.426   4.692 -0.2937  0.1949 -0.0797
 1256TIP3    H2 3733   0.947   1.499   4.667 -0.8779 -0.5885  0.6384
 1257TIP3   OH2 3734   0.084   1.843   2.936  0.2201 -0.0635 -0.5033
 1257TIP3    H1 3735   0.050   1.770   2.885 -0.8812 -0.0366  0.1725
 1257TIP3    H2 3736   0.050   1.921   2.893 -2.0158 -0.0677  1.0898
 1258TIP3   OH2 3737   3.067   2.574   1.355  0.0558  0.3715 -0.3656
 1258TIP3    H1 3738   3.022   2.564   1.439 -0.6860 -0.5899 -0.8556
 1258TIP3    H2 3739   3.159   2.586   1.378  0.3752 -2.9121  0.5725
 1259TIP3   OH2 3740   5.003   4.771   3.720  0.2873 -0.0492 -0.1514
 1259TIP3    H1 3741   5.030   4.706   3.784  1.5791  0.2296 -0.3887
 1259TIP3    H2 3742   4.983   4.720   3.641 -0.8829 -0.3491  0.3199
 1260TIP3   OH2 3743   4.012   4.617   0.179 -0.6006  0.2135 -0.4475
 1260TIP3    H1 3744   4.073   4.688   0.203  2.0590 -1.3015 -2.1436
 1260TIP3    H2 3745   3.981   4.641   0.092  0.9691 -0.9731 -1.3997
 1261TIP3   OH2 3746   5.435   6.507   1.035 -0.4114  1.0467  0.3869
 1261TIP3    H1 3747   5.446   6.412   1.044 -0.5857  0.8177 -1.4808
 1261TIP3    H2 3748   5.397   6.519   0.948  1.3362  2.9427 -0.1992
 1262TIP3   OH2 3749   2.962   3.899   0.085 -0.1347  0.1729  0.1113
 1262TIP3    H1 3750   3.025   3.857   0.144  0.8776  0.8323 -0.4732
 1262TIP3    H2 3751   2.993   3.879  -0.003  0.0976  1.6947 -0.1836
 1263TIP3   OH2 3752   6.901   4.372   4.357  0.2158  0.0057 -0.2380
 1263TIP3    H1 3753   6.968   4.436   4.382  0.3128 -0.5172  0.9131
 1263TIP3    H2 3754   6.901   4.308   4.428 -0.2006 -1.0345 -1.1383
 1264TIP3   OH2 3755   3.226   4.378   0.034  0.4504  0.0188 -0.1319
 1264TIP3    H1 3756   3.253   4.403  -0.055  0.2448  2.8550  0.5445
 1264TIP3    H2 3757   3.193   4.458   0.073  0.2275 -1.2411  2.4395
 1265TIP3   OH2 3758   0.682   5.777   2.737  0.3780  0.0772 -0.1076
 1265TIP3    H1 3759   0.655   5.863   2.706 -0.7951 -0.0550  0.4794
 1265TIP3    H2 3760   0.649   5.716   2.671  0.0082 -0.0187  0.1617
 1266TIP3   OH2 3761   3.869   5.643   2.139 -0.3856 -0.0732 -0.2284
 1266TIP3    H1 3762   3.851   5.689   2.057 -1.8567 -0.0841  0.0765
 1266TIP3    H2 3763   3.893   5.712   2.200  1.6853 -0.1429 -0.8704
 1267TIP3   OH2 3764   4.550   5.647   4.247 -0.3548  0.0022  0.1420
 1267TIP3    H1 3765   4.479   5.589   4.220 -0.8959  1.3084 -1.4078
 1267TIP3    H2 3766   4.629   5.594   4.236 -1.0335 -1.5553  2.1509
 1268TIP3   OH2 3767   5.972   6.371   1.787  0.0750  0.5909 -0.1347
 1268TIP3    H1 3768   5.970   6.350   1.880  1.1287 -1.0120 -0.4436
 1268TIP3    H2 3769   5.924   6.301   1.745  1.1635  0.2919 -0.9422
 1269TIP3   OH2 3770   2.767   2.307   1.992  0.3712 -0.1520  0.1700
 1269TIP3    H1 3771   2.753   2.264   2.076 -1.6027  2.6412  1.4229
 1269TIP3    H2 3772   2.832   2.374   2.010  2.9338 -2.0013 -1.5933
 1270TIP3   OH2 3773   2.985   6.761   4.311  0.1766 -1.0396 -0.4916
 1270TIP3    H1 3774   3.003   6.854   4.302 -0.6092 -0.7996  0.3387
 1270TIP3    H2 3775   3.060   6.718   4.270  0.9682 -0.0543 -0.1100
 1271TIP3   OH2 3776   0.635   5.648   0.817  0.3310  0.0584  0.1337
 1271TIP3    H1 3777   0.549   5.612   0.837  0.0852  1.4547  1.9162
 1271TIP3    H2 3778   0.694   5.607   0.880  0.5893  0.5649  0.2277
 1272TIP3   OH2 3779   2.406   2.549   5.872 -0.1046  0.0861 -0.0323
 1272TIP3    H1 3780   2.323   2.514   5.839 -0.0670  0.5883 -0.6754
 1272TIP3    H2 3781   2.439   2.480   5.930 -0.0391 -0.9637 -1.2590
 1273TIP3   OH2 3782   2.607   0.588   4.841 -0.3416  0.0727 -0.1072
 1273TIP3    H1 3783   2.640   0.676   4.824  1.1349 -0.1968  1.2029
 1273TIP3    H2 3784   2.598   0.549   4.754  0.8054  0.8698 -0.6045
 1274TIP3   OH2 3785   2.800   5.039   3.188 -0.2038 -0.0379 -0.1449
 1274TIP3    H1 3786   2.706   5.025   3.175 -0.0428 -1.5531  0.1512
 1274TIP3    H2 3787   2.831   4.959   3.231  0.9353  1.0844  1.2375
 1275TIP3   OH2 3788   0.569   0.715   3.057 -0.5763  0.2166  0.2218
 1275TIP3    H1 3789   0.533   0.649   3.117 -0.7400  0.2723  0.1841
 1275TIP3    H2 3790   0.657   0.682   3.036 -0.1106  0.7249  1.3112
 1276TIP3   OH2 3791   1.393   4.088   0.670 -0.1408  0.0296  0.2603
 1276TIP3    H1 3792   1.344   4.155   0.718 -0.3340  1.3966 -1.6955
 1276TIP3    H2 3793   1.327   4.042   0.619  0.3111  0.5420 -0.8476
 1277TIP3   OH2 3794   2.193   5.819   5.866  0.3340 -0.4291  0.4419
 1277TIP3    H1 3795   2.126   5.791   5.804  0.5499 -0.1084  0.0589
 1277TIP3    H2 3796   2.273   5.825   5.814  0.4509  0.1400  0.6816
 1278TIP3   OH2 3797   6.317   6.252   0.598  0.2252  0.2735 -0.0155
 1278TIP3    H1 3798   6.379   6.296   0.540  0.7787 -1.5530 -0.8755
 1278TIP3    H2 3799   6.262   6.323   0.633  1.4416  1.6875 -0.8546
 1279TIP3   OH2 3800   1.550   2.180   4.970  0.3286 -0.1322 -0.2239
 1279TIP3    H1 3801   1.621   2.221   5.020  1.0248  2.4605 -3.0672
 1279TIP3    H2 3802   1.591   2.105   4.928  0.5570 -0.4322  0.5122
 1280TIP3   OH2 3803   0.803   1.487   5.488 -0.1401  0.0631  0.6346
 1280TIP3    H1 3804   0.715   1.519   5.463  0.8000  1.1297 -1.6408
 1280TIP3    H2 3805   0.835   1.552   5.550  0.3617  1.6931 -1.2460
 1281TIP3   OH2 3806   0.557   2.323   4.624 -0.1996  0.0294  0.2910
 1281TIP3    H1 3807   0.489   2.372   4.579  1.2011 -0.7323 -2.9481
 1281TIP3    H2 3808   0.629   2.386   4.636  0.5411 -0.4739 -1.3165
 1282TIP3   OH2 3809   2.870   6.353   0.021 -0.0367 -0.0725 -0.4522
 1282TIP3    H1 3810   2.787   6.322   0.058 -1.0785 -1.6282 -3.6526
 1282TIP3    H2 3811   2.927   6.276   0.022  0.6299  0.4166 -0.2201
 1283TIP3   OH2 3812   6.254   3.918   4.715 -1.0341  0.0274 -0.5609
 1283TIP3    H1 3813   6.236   3.842   4.660  1.2998 -0.7918 -0.3309
 1283TIP3    H2 3814   6.287   3.985   4.655  0.1983 -0.3902 -0.3883
 1284TIP3   OH2 3815   4.653   4.432   2.729  0.7374 -0.3059 -0.2552
 1284TIP3    H1 3816   4.619   4.520   2.714  0.9576 -0.4165 -1.5441
 1284TIP3    H2 3817   4.593   4.393   2.793  2.0073  1.5609  2.2403
 1285TIP3   OH2 3818   6.139   2.313   2.306 -0.5022  0.1825 -0.1211
 1285TIP3    H1 3819   6.050   2.278   2.311 -0.3424 -0.7547 -2.4814
 1285TIP3    H2 3820   6.128   2.408   2.311 -1.4076  0.0321  1.5085
 1286TIP3   OH2 3821   6.352   6.717   4.277  0.2091 -0.2443 -0.6753
 1286TIP3    H1 3822   6.273   6.758   4.311  0.8309  1.2586 -0.9957
 1286TIP3    H2 3823   6.403   6.695   4.356 -1.1532 -2.6697 -0.3661
 1287TIP3   OH2 3824   1.568   6.393   5.182 -0.2905  0.1442 -0.3636
 1287TIP3    H1 3825   1.533   6.465   5.235 -0.5559  0.4842 -0.9906
 1287TIP3    H2 3826   1.600   6.329   5.246  0.8254  1.2372  0.2132
 1288TIP3   OH2 3827   7.035   4.363   1.124 -0.5580  0.0470 -0.2051
 1288TIP3    H1 3828   6.973   4.322   1.184 -0.6954  0.0122 -0.3711
 1288TIP3    H2 3829   7.033   4.308   1.046  0.0870 -0.2604 -0.0060
 1289TIP3   OH2 3830   0.568   6.747   1.437  0.0705  0.4453 -0.4167
 1289TIP3    H1 3831   0.473   6.754   1.442 -0.0633  0.2426 -1.9950
 1289TIP3    H2 3832   0.601   6.808   1.504 -1.1564  0.4102  0.2341
 1290TIP3   OH2 3833   1.830   6.691   2.501 -0.4424 -0.2075  0.0585
 1290TIP3    H1 3834   1.851   6.784   2.508  0.4880 -0.2989 -1.1672
 1290TIP3    H2 3835   1.810   6.677   2.409 -3.3958 -0.6999  0.6880
 1291TIP3   OH2 3836   0.354   1.396   0.494  0.1084  0.1709  0.1588
 1291TIP3    H1 3837   0.261   1.416   0.487  0.2323  0.2871 -1.4779
 1291TIP3    H2 3838   0.386   1.399   0.404  1.3054 -1.7969  0.4729
 1292TIP3   OH2 3839   3.283   3.547   3.783 -0.3368 -0.6179 -0.0617
 1292TIP3    H1 3840   3.237   3.590   3.711 -0.2475  0.1414  0.3187
 1292TIP3    H2 3841   3.371   3.584   3.780 -0.5732  0.0886  0.9518
 1293TIP3   OH2 3842   6.735   4.008   0.877 -0.4121 -0.0179 -0.0106
 1293TIP3    H1 3843   6.721   4.080   0.816 -0.0219 -0.4962 -0.6869
 1293TIP3    H2 3844   6.744   3.931   0.821 -0.1425 -0.4834  0.6583
 1294TIP3   OH2 3845   2.097   0.232   5.240 -0.1313 -0.1699 -0.1537
 1294TIP3    H1 3846   2.148   0.151   5.234 -0.5532 -0.3714 -1.2034
 1294TIP3    H2 3847   2.145   0.296   5.188 -1.5603 -0.7161 -2.2722
 1295TIP3   OH2 3848   0.188   6.262   1.793 -0.1576  0.1462  0.6442
 1295TIP3    H1 3849   0.248   6.334   1.773  1.9849 -1.8185 -0.4800
 1295TIP3    H2 3850   0.146   6.242   1.710 -0.5938 -0.0672  0.9092
 1296TIP3   OH2 3851   3.296   1.807   5.765  0.3453  0.4779 -0.3994
 1296TIP3    H1 3852   3.255   1.879   5.717  0.6939  1.1213  0.2328
 1296TIP3    H2 3853   3.383   1.798   5.726 -0.2886 -0.7363 -1.5906
 1297TIP3   OH2 3854   6.349   1.976   1.665 -0.0243  0.2619 -0.1647
 1297TIP3    H1 3855   6.328   1.977   1.758  0.6558 -0.8598  0.0217
 1297TIP3    H2 3856   6.424   2.035   1.657  0.3187 -0.1252  0.1188
 1298TIP3   OH2 3857   0.494   5.840   1.304  0.6397  0.3420 -0.4951
 1298TIP3    H1 3858   0.437   5.850   1.227  0.6567  1.3204 -0.3993
 1298TIP3    H2 3859   0.503   5.929   1.338  1.8109  0.1219 -0.2036
 1299TIP3   OH2 3860   6.027   1.260   5.163  0.1081 -0.0117  0.1064
 1299TIP3    H1 3861   6.095   1.305   5.111 -1.0721 -0.4178 -1.9154
 1299TIP3    H2 3862   6.059   1.171   5.172 -0.0554 -0.1648 -0.7160
 1300TIP3   OH2 3863   1.388   4.048   3.044  0.4306 -0.4410 -0.5475
 1300TIP3    H1 3864   1.334   3.971   3.059 -0.4134  0.2787  0.1794
 1300TIP3    H2 3865   1.416   4.075   3.131  1.4191 -0.4093 -0.8646
 1301TIP3   OH2 3866   3.138   1.784   0.894 -0.1998  0.7600  0.0496
 1301TIP3    H1 3867   3.137   1.838   0.973  0.1352 -0.2702  0.7888
 1301TIP3    H2 3868   3.224   1.802   0.854  0.1657  0.3316  0.6238
 1302TIP3   OH2 3869   0.244   2.584   1.754  0.4149 -0.1061  0.1258
 1302TIP3    H1 3870   0.241   2.621   1.842  0.4656  1.6633 -0.5725
 1302TIP3    H2 3871   0.152   2.574   1.729  0.3868 -1.3796  0.6490
 1303TIP3   OH2 3872   1.694   1.616   2.420 -0.0511 -0.5314  0.3836
 1303TIP3    H1 3873   1.616   1.580   2.462 -0.7230 -0.3358 -0.6803
 1303TIP3    H2 3874   1.708   1.699   2.465 -1.0677 -0.0793 -0.1089
 1304TIP3   OH2 3875   0.240   4.953   4.034  0.3252  0.0335  0.0197
 1304TIP3    H1 3876   0.254   5.019   3.966  2.4841  1.1829  1.4565
 1304TIP3    H2 3877   0.310   4.969   4.098 -1.2722 -1.3194  2.2612
 1305TIP3   OH2 3878   0.961   1.106   1.217  0.5731  0.3871  0.1508
 1305TIP3    H1 3879   0.940   1.121   1.125 -1.6043 -0.4728  0.4662
 1305TIP3    H2 3880   0.878   1.111   1.263  1.2301 -1.5518  1.7456
 1306TIP3   OH2 3881   2.539   2.888   4.089 -0.4974  0.4481  0.2713
 1306TIP3    H1 3882   2.499   2.899   4.175  0.3872  0.8722  0.6493
 1306TIP3    H2 3883   2.533   2.974   4.049  1.1546  0.8857  0.8592
 1307TIP3   OH2 3884   3.894   6.473   0.360  0.4719  0.4411  0.7183
 1307TIP3    H1 3885   3.967   6.533   0.349 -0.6498  1.6099 -0.7950
 1307TIP3    H2 3886   3.881   6.468   0.455  2.6183  0.0056  1.0280
 1308TIP3   OH2 3887   5.400   1.990   0.036 -0.0580  0.9000 -0.0523
 1308TIP3    H1 3888   5.416   2.071  -0.013  0.3522  0.5207 -0.5614
 1308TIP3    H2 3889   5.487   1.961   0.063  0.1258 -0.7765 -2.1825
 1309TIP3   OH2 3890   0.437   3.588   0.604 -0.3150  0.6543 -0.0342
 1309TIP3    H1 3891   0.367   3.525   0.587 -0.8638  1.3870 -0.6096
 1309TIP3    H2 3892   0.440   3.642   0.525  0.9085  0.6400 -0.0141
 1310TIP3   OH2 3893   1.171   2.499   5.207 -0.3348  0.6438 -0.6389
 1310TIP3    H1 3894   1.192   2.443   5.133 -2.8852 -0.2167 -0.7936
 1310TIP3    H2 3895   1.166   2.440   5.282  1.4185  1.3923  0.1395
 1311TIP3   OH2 3896   4.846   0.207   2.645  0.0066  0.3204  0.3158
 1311TIP3    H1 3897   4.921   0.202   2.586 -0.3459 -2.7788 -0.0022
 1311TIP3    H2 3898   4.771   0.221   2.587  0.0796  1.3456  0.4495
 1312TIP3   OH2 3899   3.501   5.590   4.554 -0.1605 -0.2804  0.3835
 1312TIP3    H1 3900   3.580   5.601   4.606 -0.2968  1.4200  0.2720
 1312TIP3    H2 3901   3.521   5.632   4.470 -0.8743 -0.6399  0.0198
 1313TIP3   OH2 3902   6.033   6.181   3.037  0.0216 -0.1754  0.4841
 1313TIP3    H1 3903   5.955   6.152   3.085 -0.2320  2.2889  1.7615
 1313TIP3    H2 3904   6.094   6.207   3.106  1.6950 -1.3060 -0.5157
 1314TIP3   OH2 3905   7.027   5.551   4.951  0.0687 -0.1424 -0.0708
 1314TIP3    H1 3906   7.011   5.457   4.954  0.9121 -0.3164 -0.7165
 1314TIP3    H2 3907   6.947   5.590   4.987 -1.2766 -1.0039 -1.9231
 1315TIP3   OH2 3908   0.578   2.475   2.039  0.2885 -0.3131  0.6936
 1315TIP3    H1 3909   0.584   2.543   2.106 -0.1691 -1.2361  1.7018
 1315TIP3    H2 3910   0.668   2.463   2.008  0.1422  2.0891 -0.9236
 1316TIP3   OH2 3911   5.228   0.605   5.304 -0.1147  0.3184  0.0168
 1316TIP3    H1 3912   5.178   0.533   5.342 -0.3000  1.4446  2.0168
 1316TIP3    H2 3913   5.163   0.665   5.270 -0.2666  1.8505  2.7418
 1317TIP3   OH2 3914   4.081   3.289   1.276  0.0881  0.2207  0.1638
 1317TIP3    H1 3915   3.998   3.272   1.322 -0.2108 -0.0350 -0.4636
 1317TIP3    H2 3916   4.121   3.360   1.326  0.0801 -0.4830  1.2151
 1318TIP3   OH2 3917   6.988   5.253   3.801 -0.0107 -0.1243 -0.7187
 1318TIP3    H1 3918   6.968   5.340   3.766  0.8946  0.4062  0.0213
 1318TIP3    H2 3919   7.039   5.270   3.880 -0.3085 -1.3275 -0.2400
 1319TIP3   OH2 3920   3.594   0.045   3.724 -0.0436 -0.0133  0.1579
 1319TIP3    H1 3921   3.520   0.050   3.663  0.1714 -1.8368 -0.3030
 1319TIP3    H2 3922   3.559  -0.002   3.800 -0.4974  2.7763  1.8342
 1320TIP3   OH2 3923   3.140   1.343   0.273 -0.4672  0.3492  0.0624
 1320TIP3    H1 3924   3.231   1.323   0.291  0.2737  0.0732 -3.2925
 1320TIP3    H2 3925   3.112   1.276   0.210 -2.7543  0.8508  0.4494
 1321TIP3   OH2 3926   5.904   0.839   0.441 -0.0818  0.4509 -0.0892
 1321TIP3    H1 3927   5.954   0.843   0.360 -0.8900 -2.6469 -0.8667
 1321TIP3    H2 3928   5.831   0.779   0.422 -0.9220  0.4702  2.5958
 1322TIP3   OH2 3929   4.751   2.193   1.231 -0.5048 -0.5381 -0.2608
 1322TIP3    H1 3930   4.749   2.274   1.282 -0.2370 -1.1371  0.7440
 1322TIP3    H2 3931   4.838   2.193   1.191 -0.9839  0.2925 -1.3470
 1323TIP3   OH2 3932   2.673   0.864   3.791 -0.1097  0.0726  0.3871
 1323TIP3    H1 3933   2.717   0.947   3.812 -0.2201  0.6417 -1.4450
 1323TIP3    H2 3934   2.742   0.798   3.794  0.5024  0.6476 -0.5556
 1324TIP3   OH2 3935   6.325   4.479   0.874  0.0595 -0.0706 -0.5112
 1324TIP3    H1 3936   6.268   4.421   0.823 -0.7828 -0.7320  1.1363
 1324TIP3    H2 3937   6.315   4.450   0.964  0.7740  1.6871  0.1785
 1325TIP3   OH2 3938   3.767   1.090   2.402 -0.3891 -0.1340  0.4541
 1325TIP3    H1 3939   3.792   0.998   2.394 -1.4851 -0.3483 -0.7813
 1325TIP3    H2 3940   3.821   1.123   2.474  0.1093 -1.7025  0.8395
 1326TIP3   OH2 3941   3.704   4.960   2.297 -0.3767 -0.0141 -0.7295
 1326TIP3    H1 3942   3.790   4.918   2.292 -0.5833 -0.3265 -2.5743
 1326TIP3    H2 3943   3.700   5.014   2.218 -1.5008  0.7672 -0.1635
 1327TIP3   OH2 3944   7.068   2.412   0.677  0.3067  0.4080 -0.4532
 1327TIP3    H1 3945   7.139   2.432   0.616  0.7560 -1.9688 -0.8198
 1327TIP3    H2 3946   7.113   2.393   0.760  0.2077 -1.3942 -0.7619
 1328TIP3   OH2 3947   0.567   5.216   2.385  0.4660 -0.1773 -0.3361
 1328TIP3    H1 3948   0.599   5.304   2.406 -0.0816  0.0688 -0.5270
 1328TIP3    H2 3949   0.636   5.158   2.418  0.5179  0.2890  0.4100
 1329TIP3   OH2 3950   1.446   3.148   3.738 -0.1567 -0.0449 -0.1889
 1329TIP3    H1 3951   1.373   3.203   3.764  0.1361  0.9271 -1.3702
 1329TIP3    H2 3952   1.414   3.058   3.749 -0.5919  0.3079  1.8710
 1330TIP3   OH2 3953   4.677   3.193   0.700 -0.1411 -0.2197  0.4855
 1330TIP3    H1 3954   4.730   3.272   0.705 -0.4888  0.0499 -0.0891
 1330TIP3    H2 3955   4.602   3.210   0.757 -0.4793  0.0718 -0.0402
 1331TIP3   OH2 3956   3.547   4.952   1.646  0.3032 -0.0666  0.3725
 1331TIP3    H1 3957   3.472   4.915   1.601 -1.2551  2.9454  0.2165
 1331TIP3    H2 3958   3.623   4.920   1.598 -1.0197 -1.0206 -1.1685
 1332TIP3   OH2 3959   6.445   6.217   1.243 -0.5398 -0.1539 -0.2578
 1332TIP3    H1 3960   6.446   6.122   1.237 -0.8622 -0.1081 -1.2090
 1332TIP3    H2 3961   6.534   6.244   1.218 -0.5619 -0.1857 -0.3709
 1333TIP3   OH2 3962   5.041   0.719   2.351  0.0817 -0.7666  0.2667
 1333TIP3    H1 3963   4.998   0.657   2.410 -1.1860  0.7404  1.0002
 1333TIP3    H2 3964   4.969   0.772   2.317  1.0516 -0.1996 -0.9460
 1334TIP3   OH2 3965   1.659   5.101   0.357  0.3416  0.0575  0.1444
 1334TIP3    H1 3966   1.701   5.186   0.340 -1.8891  0.9446 -1.3920
 1334TIP3    H2 3967   1.684   5.047   0.282  0.0919  0.0517  0.0642
 1335TIP3   OH2 3968   3.509   3.068   1.742  0.4203 -0.0288 -0.1023
 1335TIP3    H1 3969   3.434   3.063   1.683  1.4745 -0.4715 -1.4702
 1335TIP3    H2 3970   3.492   3.145   1.797 -1.0865 -0.2165 -0.2779
 1336TIP3   OH2 3971   5.435   2.227   3.442  0.8520 -0.1688  0.4805
 1336TIP3    H1 3972   5.481   2.160   3.391  0.4886 -1.6886  2.0386
 1336TIP3    H2 3973   5.494   2.245   3.516  0.6810  0.8259  0.3842
 1337TIP3   OH2 3974   0.420   2.988   3.440  0.0246  0.1036 -0.4264
 1337TIP3    H1 3975   0.496   2.951   3.484  0.9743  1.3249 -0.9807
 1337TIP3    H2 3976   0.423   2.952   3.351 -0.5093 -0.4610 -0.2247
 1338TIP3   OH2 3977   7.052   0.442   2.380  0.4677  0.0257  0.7316
 1338TIP3    H1 3978   7.115   0.433   2.451  0.7381 -1.1705  0.3566
 1338TIP3    H2 3979   7.105   0.452   2.301  0.2560 -1.9385  0.2822
 1339TIP3   OH2 3980   2.735   5.609   5.685 -0.2078  0.2329 -0.0971
 1339TIP3    H1 3981   2.782   5.685   5.721 -2.0458  1.3957 -0.0039
 1339TIP3    H2 3982   2.724   5.630   5.593  0.6264 -0.6765 -0.4158
 1340TIP3   OH2 3983   2.570   6.388   3.269  1.0529 -0.8006  0.1470
 1340TIP3    H1 3984   2.484   6.429   3.258  2.0891  0.8019 -3.7910
 1340TIP3    H2 3985   2.616   6.446   3.329  0.1452 -0.3758  0.4602
 1341TIP3   OH2 3986   7.161   2.938   1.761 -0.2435  0.0704 -0.2933
 1341TIP3    H1 3987   7.179   2.977   1.675 -1.8550  0.0324 -0.6855
 1341TIP3    H2 3988   7.080   2.888   1.747 -0.4670 -0.0213  1.2365
 1342TIP3   OH2 3989   4.932   2.146   3.266 -0.4084 -0.0907  0.4405
 1342TIP3    H1 3990   4.883   2.163   3.185 -2.9598 -2.4053  1.3316
 1342TIP3    H2 3991   4.965   2.056   3.255  1.3720  0.4451  1.0279
 1343TIP3   OH2 3992   2.341   3.706   2.278  0.4882 -0.7610  0.0416
 1343TIP3    H1 3993   2.410   3.727   2.215  1.6816 -2.2546  0.7862
 1343TIP3    H2 3994   2.381   3.720   2.364  0.4022 -2.9868  0.5164
 1344TIP3   OH2 3995   0.007   2.559   4.145 -0.3887 -0.1727  0.3933
 1344TIP3    H1 3996   0.068   2.536   4.075 -1.7640 -0.3402 -0.8164
 1344TIP3    H2 3997  -0.007   2.653   4.136 -2.5471 -0.5783 -1.3203
 1345TIP3   OH2 3998   5.232   4.133   4.417 -0.2845  0.2121  0.3358
 1345TIP3    H1 3999   5.254   4.061   4.476 -1.8724  0.6843  1.5614
 1345TIP3    H2 4000   5.298   4.200   4.435  0.9204 -0.7103 -0.4776
 1346TIP3   OH2 4001   2.660   5.873   5.051 -0.0117  0.1244 -0.6538
 1346TIP3    H1 4002   2.645   5.918   4.968 -1.6148  1.0333  0.0722
 1346TIP3    H2 4003   2.647   5.940   5.118  1.1129 -0.6201  0.3551
 1347TIP3   OH2 4004   0.916   6.426   5.244  0.1557 -0.1398 -0.0177
 1347TIP3    H1 4005   0.832   6.382   5.255 -0.1530  0.7383  1.5128
 1347TIP3    H2 4006   0.946   6.443   5.334  1.4488  0.5081 -0.5479
 1348TIP3   OH2 4007   2.808   2.331   1.220  0.1129 -0.4099 -0.5523
 1348TIP3    H1 4008   2.847   2.368   1.141  0.5351 -1.1266 -0.6832
 1348TIP3    H2 4009   2.880   2.326   1.283 -0.2258  0.1804 -0.1061
 1349TIP3   OH2 4010   0.666   3.407   0.270 -0.0231  0.0042  0.5942
 1349TIP3    H1 4011   0.648   3.428   0.178 -1.0201 -0.5994  0.6384
 1349TIP3    H2 4012   0.579   3.401   0.311  0.3820 -0.4754  1.4052
 1350TIP3   OH2 4013   7.006   6.360   2.401 -0.5512 -0.0635 -0.0768
 1350TIP3    H1 4014   6.983   6.271   2.377 -0.5960  0.2819 -1.3708
 1350TIP3    H2 4015   6.970   6.414   2.331 -1.6109  1.0961  1.2893
 1351TIP3   OH2 4016   5.491   4.292   0.170  0.2846  0.6244  0.5566
 1351TIP3    H1 4017   5.529   4.209   0.199  1.1148  0.0439 -1.9762
 1351TIP3    H2 4018   5.513   4.354   0.240  2.2902 -0.6352  1.1199
 1352TIP3   OH2 4019   2.850   2.285   3.746  0.4545 -0.4148  0.1190
 1352TIP3    H1 4020   2.930   2.300   3.696  1.2077 -0.0960  1.3764
 1352TIP3    H2 4021   2.779   2.306   3.685  1.3637  0.9653 -0.5030
 1353TIP3   OH2 4022   4.225   4.772   4.214  0.1563  0.0912 -0.1834
 1353TIP3    H1 4023   4.266   4.690   4.241 -0.7229 -0.1769  0.3858
 1353TIP3    H2 4024   4.149   4.745   4.163 -0.3361  0.5348  0.3002
 1354TIP3   OH2 4025   2.695   6.678   1.169 -0.1794 -0.5569  0.8154
 1354TIP3    H1 4026   2.616   6.638   1.205 -0.6740  0.3991  0.8202
 1354TIP3    H2 4027   2.676   6.771   1.167 -0.1464 -0.5186 -1.8219
 1355TIP3   OH2 4028   4.736   1.631   1.076 -0.3644  0.5016 -0.6759
 1355TIP3    H1 4029   4.708   1.687   1.003 -1.3436  0.7370 -0.1449
 1355TIP3    H2 4030   4.822   1.599   1.050 -0.8352  0.2896 -2.0967
 1356TIP3   OH2 4031   0.058   6.145   4.264  0.0378  0.3126 -0.1081
 1356TIP3    H1 4032   0.057   6.230   4.307  2.0224 -0.5385  1.8487
 1356TIP3    H2 4033   0.040   6.082   4.334  4.6247 -1.2436  0.0229
 1357TIP3   OH2 4034   6.606   3.020   1.631  0.0013  0.0461 -0.5544
 1357TIP3    H1 4035   6.516   3.052   1.618  0.6284  1.5632 -1.5215
 1357TIP3    H2 4036   6.659   3.077   1.575  1.5185 -1.1418 -0.3828
 1358TIP3   OH2 4037   0.996   2.067   1.579  0.0695 -0.1328 -0.1375
 1358TIP3    H1 4038   1.034   1.980   1.569 -1.3229 -0.6876 -1.0235
 1358TIP3    H2 4039   0.938   2.076   1.503  0.2227  1.5902 -0.0853
 1359TIP3   OH2 4040   2.633   0.043   1.102 -0.0236  0.0640 -0.3241
 1359TIP3    H1 4041   2.589   0.102   1.041 -0.7051 -0.0314  0.0669
 1359TIP3    H2 4042   2.608  -0.044   1.073  0.4850 -0.0131 -0.5297
 1360TIP3   OH2 4043   0.604   1.749   5.694 -0.0806  0.1893 -0.2856
 1360TIP3    H1 4044   0.513   1.752   5.666  0.1695 -1.5314 -1.4109
 1360TIP3    H2 4045   0.655   1.767   5.616  0.5693  1.7337  0.4571
 1361TIP3   OH2 4046   1.285   0.538   1.350 -0.7268  0.6468 -0.0725
 1361TIP3    H1 4047   1.305   0.471   1.415 -0.4879  1.4871  0.7501
 1361TIP3    H2 4048   1.270   0.617   1.401 -2.9053  0.8338 -0.8679
 1362TIP3   OH2 4049   7.185   4.142   3.894 -0.0462 -0.6812 -0.4836
 1362TIP3    H1 4050   7.225   4.177   3.814 -0.4267 -1.3155 -0.9627
 1362TIP3    H2 4051   7.096   4.117   3.867 -0.2721 -0.6517  0.2093
 1363TIP3   OH2 4052   5.598   3.559   2.442 -0.7691  0.3798 -0.2395
 1363TIP3    H1 4053   5.622   3.623   2.508  0.1596  0.2084 -0.3878
 1363TIP3    H2 4054   5.522   3.514   2.478 -1.3719  1.4926 -0.0976
 1364TIP3   OH2 4055   2.129   6.783   3.194  0.3405  0.2402 -0.6253
 1364TIP3    H1 4056   2.166   6.751   3.112  0.9955  0.4259 -0.4188
 1364TIP3    H2 4057   2.206   6.798   3.250 -0.0033  1.2910 -0.4114
 1365TIP3   OH2 4058   0.787   3.125   0.710 -0.6559  0.1947 -0.1645
 1365TIP3    H1 4059   0.773   3.096   0.800 -0.8499  0.1647 -0.2046
 1365TIP3    H2 4060   0.700   3.132   0.673 -0.5275 -1.3280 -0.8262
 1366TIP3   OH2 4061   3.666   6.400   3.373 -0.1230 -0.0111  0.3895
 1366TIP3    H1 4062   3.613   6.344   3.316 -0.8650  0.0565  1.0019
 1366TIP3    H2 4063   3.748   6.411   3.325 -1.2062  1.1612 -1.3199
 1367TIP3   OH2 4064   5.153   6.228   1.709 -0.4375  0.1643 -0.2817
 1367TIP3    H1 4065   5.110   6.151   1.673  0.3051 -0.0301 -0.7721
 1367TIP3    H2 4066   5.081   6.282   1.743 -1.1874  0.3257 -2.0001
 1368TIP3   OH2 4067   1.342   5.752   4.637 -0.4326 -0.2045  0.3333
 1368TIP3    H1 4068   1.311   5.840   4.655 -2.0895 -0.4486 -0.9580
 1368TIP3    H2 4069   1.435   5.753   4.658 -0.8265  1.2631  2.2554
 1369TIP3   OH2 4070   4.382   4.031   2.957 -0.7053 -0.6664  0.5721
 1369TIP3    H1 4071   4.427   4.043   3.040  1.2276  0.6347 -0.5841
 1369TIP3    H2 4072   4.411   3.945   2.926 -0.0261 -0.3895  0.4342
 1370TIP3   OH2 4073   6.387   2.324   2.139 -0.3402 -0.3030 -0.2770
 1370TIP3    H1 4074   6.435   2.407   2.141  0.7544 -0.9239  0.5762
 1370TIP3    H2 4075   6.305   2.342   2.183 -0.4975  0.5516 -0.9060
 1371TIP3   OH2 4076   6.228   5.180   0.370  0.5418 -0.1994 -0.0024
 1371TIP3    H1 4077   6.319   5.156   0.386  0.3907 -0.8776 -0.1561
 1371TIP3    H2 4078   6.204   5.132   0.291  0.7283  1.7013 -1.2745
 1372TIP3   OH2 4079   0.488   3.556   0.889  0.0284 -0.6191 -0.1397
 1372TIP3    H1 4080   0.526   3.468   0.892 -0.7981 -0.9593  1.0548
 1372TIP3    H2 4081   0.410   3.546   0.834  1.4225  0.0193 -2.3611
 1373TIP3   OH2 4082   3.440   5.791   3.820 -0.3163  0.1750 -0.2977
 1373TIP3    H1 4083   3.408   5.735   3.749  0.9483 -1.9630  0.7507
 1373TIP3    H2 4084   3.522   5.828   3.787 -0.3584  0.1721 -0.4058
 1374TIP3   OH2 4085   4.260   3.005   3.242  0.0367 -0.1971  0.0118
 1374TIP3    H1 4086   4.321   2.941   3.279 -1.9206 -3.1246 -1.3987
 1374TIP3    H2 4087   4.195   3.019   3.310  1.0397  1.2170  0.7171
 1375TIP3   OH2 4088   4.089   0.334   5.599  0.6239 -0.0386 -0.1317
 1375TIP3    H1 4089   4.037   0.254   5.611 -0.7382  0.6810 -0.8958
 1375TIP3    H2 4090   4.123   0.327   5.510  2.8144 -0.9940  0.7030
 1376TIP3   OH2 4091   3.508   0.843   2.421  0.1036  0.3242  0.5949
 1376TIP3    H1 4092   3.492   0.807   2.509  0.1064 -3.6556 -0.8293
 1376TIP3    H2 4093   3.603   0.843   2.413  0.0821 -0.6854  0.1612
 1377TIP3   OH2 4094   5.517   3.569   5.493  0.1553  0.4149 -0.3926
 1377TIP3    H1 4095   5.498   3.570   5.587 -0.0693 -2.0047 -0.3517
 1377TIP3    H2 4096   5.522   3.477   5.471  2.1399  0.9193 -2.4090
 1378TIP3   OH2 4097   5.780   3.596   4.913  0.2524  0.5081  0.0666
 1378TIP3    H1 4098   5.700   3.594   4.966 -0.8359 -0.6656 -1.5333
 1378TIP3    H2 4099   5.800   3.504   4.895  0.8893  0.8600 -1.1282
 1379TIP3   OH2 4100   6.960   2.768   1.693 -0.3142 -0.1741  0.4764
 1379TIP3    H1 4101   6.920   2.726   1.616 -1.9407 -0.1499  1.2595
 1379TIP3    H2 4102   6.885   2.796   1.746  0.6703  3.0181  0.3913
 1380TIP3   OH2 4103   5.888   2.596   1.701 -0.2510 -0.0287 -0.1269
 1380TIP3    H1 4104   5.907   2.531   1.632  1.3096 -0.3166  0.5214
 1380TIP3    H2 4105   5.859   2.543   1.775 -0.5612  0.1577 -0.1166
 1381TIP3   OH2 4106   2.253   2.420   2.525 -0.0445  0.3528 -0.1136
 1381TIP3    H1 4107   2.230   2.393   2.614  0.4784  1.0518  0.2471
 1381TIP3    H2 4108   2.169   2.438   2.483 -0.4390 -1.9878 -0.4508
 1382TIP3   OH2 4109   1.612   1.036   2.897 -0.1442 -0.1189 -0.5181
 1382TIP3    H1 4110   1.554   1.017   2.971 -0.5592 -0.6946 -0.9928
 1382TIP3    H2 4111   1.555   1.036   2.820  0.2421  0.7411 -0.8183
 1383TIP3   OH2 4112   6.656   3.013   1.082  0.0904 -0.1977 -0.5835
 1383TIP3    H1 4113   6.667   3.095   1.130  0.6720 -0.7703  0.2843
 1383TIP3    H2 4114   6.566   3.018   1.048 -0.5538 -0.0162  1.0446
 1384TIP3   OH2 4115   5.481   0.236   4.361  0.3402  0.0643  0.5850
 1384TIP3    H1 4116   5.440   0.316   4.329 -0.0949  0.6767  2.5761
 1384TIP3    H2 4117   5.575   0.252   4.353  0.2513  0.6091  0.6258
 1385TIP3   OH2 4118   0.531   0.333   2.548  0.8123 -0.2072  0.3727
 1385TIP3    H1 4119   0.514   0.423   2.573 -1.2174 -0.6320  0.6914
 1385TIP3    H2 4120   0.537   0.285   2.631  0.8382 -0.5353  0.1837
 1386TIP3   OH2 4121   4.235   0.938   4.487  0.4879 -0.0782  0.3540
 1386TIP3    H1 4122   4.233   0.915   4.394 -0.5639  0.3783  0.2568
 1386TIP3    H2 4123   4.313   0.992   4.496 -0.5307  1.6736 -0.7197
 1387TIP3   OH2 4124   4.309   2.646   1.863 -0.4053  0.1831  0.1064
 1387TIP3    H1 4125   4.317   2.676   1.954  0.0043 -0.4034  0.2689
 1387TIP3    H2 4126   4.215   2.635   1.849 -0.3838 -1.1999  0.9472
 1388TIP3   OH2 4127   5.091   5.724   2.849  0.0402  0.0485 -0.6901
 1388TIP3    H1 4128   5.114   5.716   2.941  1.0120 -1.3074 -1.0004
 1388TIP3    H2 4129   5.169   5.762   2.808  0.0754 -0.4396 -1.0981
 1389TIP3   OH2 4130   1.575   2.175   1.416 -0.1506 -0.2980 -0.3935
 1389TIP3    H1 4131   1.619   2.246   1.461 -1.1751  0.1253 -0.0281
 1389TIP3    H2 4132   1.611   2.175   1.327 -1.3070  1.7668 -0.9207
 1390TIP3   OH2 4133   5.093   2.465   2.509  0.6820  0.2686  0.2031
 1390TIP3    H1 4134   5.032   2.494   2.576 -0.8837  1.3232 -1.5827
 1390TIP3    H2 4135   5.109   2.543   2.456 -0.6017 -1.1533 -2.4734
 1391TIP3   OH2 4136   4.438   4.953   4.663 -0.0413 -0.0068  0.5380
 1391TIP3    H1 4137   4.490   5.031   4.644  1.1757 -1.3193 -2.1485
 1391TIP3    H2 4138   4.497   4.897   4.714  1.4638 -1.4760 -2.4714
 1392TIP3   OH2 4139   0.125   0.700   0.509  0.1903  0.2481  0.3348
 1392TIP3    H1 4140   0.040   0.656   0.517  0.2684  0.3615  2.3335
 1392TIP3    H2 4141   0.132   0.722   0.417 -0.8119 -2.0280 -0.3696
 1393TIP3   OH2 4142   5.030   4.476   1.284 -0.0839  0.1259 -0.5327
 1393TIP3    H1 4143   4.966   4.404   1.279 -0.5035  0.3132  1.3392
 1393TIP3    H2 4144   5.000   4.539   1.218 -1.1752 -0.3145 -0.4909
 1394TIP3   OH2 4145   2.534   1.861   5.778 -0.3419  0.2855  0.1713
 1394TIP3    H1 4146   2.629   1.871   5.767 -0.6068  1.3586 -1.5830
 1394TIP3    H2 4147   2.516   1.771   5.748  0.0101  0.4469 -0.5613
 1395TIP3   OH2 4148   6.177   1.353   1.170 -0.2639 -0.2196  0.3000
 1395TIP3    H1 4149   6.220   1.286   1.117 -1.1750 -1.1682  0.7234
 1395TIP3    H2 4150   6.219   1.435   1.144 -0.3219 -0.7200 -1.5132
 1396TIP3   OH2 4151   2.513   6.533   5.281  0.0792 -0.5282 -0.1717
 1396TIP3    H1 4152   2.573   6.607   5.288  0.9691 -1.2451 -0.0872
 1396TIP3    H2 4153   2.426   6.573   5.287  0.5463  0.4446  0.4241
 1397TIP3   OH2 4154   3.742   0.680   4.871 -0.2514 -0.2418  0.0538
 1397TIP3    H1 4155   3.796   0.643   4.801  0.4223 -1.2069  1.0526
 1397TIP3    H2 4156   3.764   0.773   4.872  0.3261 -0.3675 -0.4977
 1398TIP3   OH2 4157   0.913   3.181   4.894 -0.5526  0.0956 -0.7123
 1398TIP3    H1 4158   0.986   3.184   4.831  0.3278 -1.8783  0.0967
 1398TIP3    H2 4159   0.845   3.130   4.849  0.3509 -1.9424  0.0848
 1399TIP3   OH2 4160   6.254   0.728   5.649 -0.4304 -0.1916 -0.1874
 1399TIP3    H1 4161   6.167   0.767   5.660  0.2857  1.3283  0.2295
 1399TIP3    H2 4162   6.279   0.700   5.737  0.3434  1.2346  0.0653
 1400TIP3   OH2 4163   4.996   2.601   5.421  0.3264 -0.1644  0.5412
 1400TIP3    H1 4164   4.909   2.631   5.445 -0.1325 -0.5247 -0.6163
 1400TIP3    H2 4165   4.995   2.507   5.441  1.1041  0.1678  2.3117
 1401TIP3   OH2 4166   6.973   2.121   2.699 -0.1597  0.3107  0.0682
 1401TIP3    H1 4167   6.945   2.030   2.709 -1.3643  0.6304 -0.2810
 1401TIP3    H2 4168   7.060   2.115   2.659 -0.2455 -0.6800  0.0082
 1402TIP3   OH2 4169   1.211   3.114   0.647  0.4337 -0.5441  0.4190
 1402TIP3    H1 4170   1.163   3.185   0.689 -1.3046 -0.7226 -1.1580
 1402TIP3    H2 4171   1.298   3.118   0.686 -0.5046  0.4999  2.5729
 1403TIP3   OH2 4172   1.333   3.150   1.589  0.0626 -0.2260 -0.6074
 1403TIP3    H1 4173   1.369   3.092   1.656  0.3127  0.7046  0.0852
 1403TIP3    H2 4174   1.405   3.167   1.529 -0.4029 -1.7918 -1.6573
 1404TIP3   OH2 4175   3.414   2.924   0.333 -0.2401 -0.4340 -0.2337
 1404TIP3    H1 4176   3.360   2.862   0.284  0.1063 -0.1495 -0.9832
 1404TIP3    H2 4177   3.476   2.958   0.269 -0.1383  0.3571  0.2737
 1405TIP3   OH2 4178   5.139   2.989   5.377 -0.2464 -0.2824 -0.3139
 1405TIP3    H1 4179   5.225   2.990   5.334 -0.6500 -0.1798 -1.1353
 1405TIP3    H2 4180   5.088   2.926   5.326 -0.3742 -1.0733  0.7509
 1406TIP3   OH2 4181   2.268   6.445   2.811  0.5545  0.1407 -0.5229
 1406TIP3    H1 4182   2.322   6.448   2.732 -0.1630  3.2119 -1.0264
 1406TIP3    H2 4183   2.296   6.366   2.856  2.0147 -0.9535 -3.1277
 1407TIP3   OH2 4184   6.401   5.177   2.974  0.7625  0.4912  0.4606
 1407TIP3    H1 4185   6.401   5.253   3.032 -1.4863  0.7166  0.2368
 1407TIP3    H2 4186   6.376   5.103   3.030  2.4902 -0.0450  0.5796
 1408TIP3   OH2 4187   2.874   3.677   1.546  0.1813 -0.3062 -0.3416
 1408TIP3    H1 4188   2.876   3.714   1.458 -2.3608  0.2416 -0.2541
 1408TIP3    H2 4189   2.803   3.724   1.590  1.4645 -0.4807  2.0662
 1409TIP3   OH2 4190   1.157   1.109   4.528 -0.4232  0.4058  0.3372
 1409TIP3    H1 4191   1.231   1.169   4.535 -0.0080 -0.0153 -0.3373
 1409TIP3    H2 4192   1.157   1.061   4.611  1.3234 -1.0140 -0.4126
 1410TIP3   OH2 4193   3.770   4.894   2.776 -0.4625 -0.2590  0.1615
 1410TIP3    H1 4194   3.855   4.851   2.777 -0.8941 -1.1457 -0.0975
 1410TIP3    H2 4195   3.726   4.859   2.698 -0.9354  0.4397  0.1043
 1411TIP3   OH2 4196   4.520   2.004   2.318 -0.2546 -0.6371 -0.1740
 1411TIP3    H1 4197   4.477   1.930   2.276  0.1304  0.2793 -2.2862
 1411TIP3    H2 4198   4.583   1.964   2.378 -0.0754 -2.0083 -1.2330
 1412TIP3   OH2 4199   0.977   4.406   4.805 -0.2435 -0.1011 -0.5189
 1412TIP3    H1 4200   1.052   4.422   4.747  1.1499  0.4255  1.3422
 1412TIP3    H2 4201   1.010   4.427   4.893 -2.3726 -0.5687  0.4407
 1413TIP3   OH2 4202   7.113   1.032   4.891  0.0831 -0.2248 -0.2671
 1413TIP3    H1 4203   7.113   0.964   4.824 -1.0613  0.1170 -0.6482
 1413TIP3    H2 4204   7.135   1.112   4.845  1.9994 -0.3942  0.2868
 1414TIP3   OH2 4205   4.991   3.179   1.668  0.4680  0.3033  0.1759
 1414TIP3    H1 4206   5.033   3.149   1.749 -1.9218  0.7781  1.6925
 1414TIP3    H2 4207   4.899   3.156   1.679 -0.0673  1.1651 -2.0668
 1415TIP3   OH2 4208   1.420   1.794   2.424 -0.1800 -0.2561  0.5049
 1415TIP3    H1 4209   1.343   1.740   2.443 -1.8900  2.0914  0.7270
 1415TIP3    H2 4210   1.405   1.827   2.335  0.2401  0.7080  0.7756
 1416TIP3   OH2 4211   0.399   5.296   1.907  0.1004  0.2879  0.5388
 1416TIP3    H1 4212   0.320   5.303   1.855 -0.9270 -1.3510  1.7672
 1416TIP3    H2 4213   0.466   5.268   1.844 -1.0989 -1.6438  0.0234
 1417TIP3   OH2 4214   4.886   6.265   5.070 -0.6019  0.6238  0.3459
 1417TIP3    H1 4215   4.933   6.212   5.006  0.0094 -1.6921  2.5533
 1417TIP3    H2 4216   4.954   6.316   5.114 -0.5078 -0.3654  1.4024
 1418TIP3   OH2 4217   3.009   4.476   1.483  0.0086  0.4422 -0.1433
 1418TIP3    H1 4218   2.927   4.522   1.467  0.4113  0.3908 -3.0502
 1418TIP3    H2 4219   3.028   4.433   1.399  1.4528 -2.0929  1.3808
 1419TIP3   OH2 4220   2.520   0.058   1.869  0.1648  0.0751 -0.0561
 1419TIP3    H1 4221   2.433   0.097   1.868  0.5238  0.9832  1.2279
 1419TIP3    H2 4222   2.522   0.002   1.791 -0.6994  1.8986 -1.4761
 1420TIP3   OH2 4223   0.724   3.662   0.784 -0.0598  0.5178  0.0351
 1420TIP3    H1 4224   0.639   3.632   0.815  0.2843 -1.8333 -1.0000
 1420TIP3    H2 4225   0.710   3.686   0.692  0.7009 -2.0093 -0.8359
 1421TIP3   OH2 4226   1.265   3.061   4.014  0.1330  1.1241  0.3256
 1421TIP3    H1 4227   1.345   3.085   4.061 -0.6816  1.2032  1.7143
 1421TIP3    H2 4228   1.227   3.145   3.987 -0.9554  1.3028  2.2228
 1422TIP3   OH2 4229   1.914   0.923   3.645 -0.3263  0.0078  0.5125
 1422TIP3    H1 4230   1.895   0.830   3.661  0.2173 -0.4962 -1.4853
 1422TIP3    H2 4231   1.976   0.947   3.714  1.0564 -1.6875 -0.0788
 1423TIP3   OH2 4232   3.132   3.035   5.843 -0.0960 -0.1639 -0.5810
 1423TIP3    H1 4233   3.092   3.029   5.756 -0.3725 -0.0731 -0.4612
 1423TIP3    H2 4234   3.148   2.944   5.869 -1.6285 -0.2888  0.0120
 1424TIP3   OH2 4235   5.904   1.039   0.079 -0.0373  0.1500 -0.2037
 1424TIP3    H1 4236   5.964   1.110   0.056  1.7371 -1.5366 -1.1072
 1424TIP3    H2 4237   5.959   0.975   0.125 -0.8523 -1.8679 -1.8524
 1425TIP3   OH2 4238   2.855   5.297   5.286  0.0145  0.4296  0.4132
 1425TIP3    H1 4239   2.806   5.274   5.207  0.7647  1.1861 -0.2813
 1425TIP3    H2 4240   2.868   5.213   5.331 -1.1303  0.0954  0.1668
 1426TIP3   OH2 4241   4.074   5.998   1.584  0.3299  0.3768 -0.3235
 1426TIP3    H1 4242   4.129   5.931   1.625 -0.4730  0.3554  0.7615
 1426TIP3    H2 4243   4.016   5.949   1.525  0.4613  0.2328 -0.3333
 1427TIP3   OH2 4244   2.893   4.688   5.471 -0.0683 -0.6207  0.0129
 1427TIP3    H1 4245   2.874   4.596   5.487  0.2829 -0.6944  0.0114
 1427TIP3    H2 4246   2.934   4.718   5.552  0.8543 -0.7544 -0.3954
 1428TIP3   OH2 4247   7.045   3.618   0.580  0.6125  0.2826 -0.4240
 1428TIP3    H1 4248   7.001   3.670   0.513  2.2415  1.9710 -0.2950
 1428TIP3    H2 4249   7.060   3.533   0.540 -0.0473  0.6629 -1.5218
 1429TIP3   OH2 4250   1.060   2.246   1.974 -0.2778  0.1978  0.3659
 1429TIP3    H1 4251   0.998   2.195   1.922 -1.9102 -0.0348  2.3880
 1429TIP3    H2 4252   1.111   2.295   1.910  0.3137 -2.7466 -1.6143
 1430TIP3   OH2 4253   1.829   4.700   0.682 -0.0300  0.2412  0.7441
 1430TIP3    H1 4254   1.815   4.719   0.590  0.0038  1.4403  0.9659
 1430TIP3    H2 4255   1.924   4.697   0.692  0.1431 -4.4789 -0.0967
 1431TIP3   OH2 4256   3.636   6.370   4.358 -0.0974  0.3559  0.0081
 1431TIP3    H1 4257   3.686   6.439   4.401  1.0133 -0.7662  0.6182
 1431TIP3    H2 4258   3.649   6.293   4.415 -2.6154  0.0296  0.2219
 1432TIP3   OH2 4259   6.214   3.403   4.271 -0.1996  0.6375  0.2095
 1432TIP3    H1 4260   6.245   3.331   4.326 -1.6257  0.7976  1.2609
 1432TIP3    H2 4261   6.185   3.360   4.190 -1.6157 -0.0843  1.0667
 1433TIP3   OH2 4262   5.966   0.767   4.705 -0.4990 -0.4958 -0.3521
 1433TIP3    H1 4263   5.982   0.767   4.799  0.5202  0.8761 -0.4983
 1433TIP3    H2 4264   5.902   0.697   4.691 -1.3438 -0.1381  1.4725
 1434TIP3   OH2 4265   3.364   6.039   3.431  0.2526  0.2215  0.2113
 1434TIP3    H1 4266   3.398   6.111   3.484  0.4068  1.4658 -1.4986
 1434TIP3    H2 4267   3.272   6.032   3.456  0.7193 -0.4042  1.8751
 1435TIP3   OH2 4268   0.734   5.614   4.844 -0.1650 -0.4285 -0.2933
 1435TIP3    H1 4269   0.730   5.529   4.887  0.2377 -0.3784 -0.1602
 1435TIP3    H2 4270   0.703   5.676   4.911  0.4733 -0.3490 -0.0700
 1436TIP3   OH2 4271   0.339   4.171   4.044  0.3169  0.4090  0.2125
 1436TIP3    H1 4272   0.322   4.218   3.962  1.9446 -2.7109 -2.1519
 1436TIP3    H2 4273   0.404   4.224   4.090 -0.5320  2.1709 -0.5209
 1437TIP3   OH2 4274   4.624   3.662   4.155  0.1615 -0.1407  0.3587
 1437TIP3    H1 4275   4.551   3.630   4.102  1.4836 -0.4362 -1.3799
 1437TIP3    H2 4276   4.633   3.598   4.226 -1.0785 -0.2406  0.4350
 1438TIP3   OH2 4277   6.546   2.538   2.142 -0.2050  0.0507 -0.4265
 1438TIP3    H1 4278   6.500   2.601   2.087 -0.5117 -1.1930 -1.6597
 1438TIP3    H2 4279   6.636   2.537   2.107 -1.0369 -2.7332 -2.8679
 1439TIP3   OH2 4280   6.360   4.959   5.842  1.1614  0.2988 -0.4402
 1439TIP3    H1 4281   6.301   5.034   5.840  0.0152 -0.5197  0.7624
 1439TIP3    H2 4282   6.446   4.996   5.863  0.0887  1.0876  3.4988
 1440TIP3   OH2 4283   5.561   4.880   5.556  0.2890 -0.2327 -0.2964
 1440TIP3    H1 4284   5.494   4.851   5.618 -1.1522  1.6851 -0.8509
 1440TIP3    H2 4285   5.627   4.923   5.611  1.2860 -2.3437  0.2805
 1441TIP3   OH2 4286   3.241   4.837   2.978 -0.1678 -0.0358  0.2577
 1441TIP3    H1 4287   3.182   4.765   2.960  0.1836 -0.3466  0.3314
 1441TIP3    H2 4288   3.233   4.894   2.901  0.6272 -0.8876 -0.4937
 1442TIP3   OH2 4289   5.807   4.484   4.671  0.1455 -0.3042  0.1082
 1442TIP3    H1 4290   5.878   4.477   4.735 -0.5226 -2.4205  0.6885
 1442TIP3    H2 4291   5.850   4.469   4.586  0.1085 -4.8885  0.6530
 1443TIP3   OH2 4292   2.234   3.010   4.973  0.0772  0.1727 -0.2612
 1443TIP3    H1 4293   2.299   2.939   4.971  0.6848  0.7409 -0.9334
 1443TIP3    H2 4294   2.251   3.054   5.057 -0.3640 -0.5171  0.2057
 1444TIP3   OH2 4295   6.265   2.603   5.299  0.4291  0.6961 -0.2592
 1444TIP3    H1 4296   6.279   2.622   5.206  0.7326 -1.3702 -0.6977
 1444TIP3    H2 4297   6.269   2.507   5.304 -1.1122  0.6818  1.6548
 1445TIP3   OH2 4298   2.250   6.410   5.206  0.2199  0.5589 -0.0595
 1445TIP3    H1 4299   2.259   6.333   5.149  3.8925 -0.7494  1.9496
 1445TIP3    H2 4300   2.263   6.485   5.148 -0.3510 -0.4541 -1.5652
 1446TIP3   OH2 4301   5.717   0.468   4.120 -0.1916 -0.2341  0.2437
 1446TIP3    H1 4302   5.793   0.460   4.177 -0.1884  1.6674  0.5621
 1446TIP3    H2 4303   5.753   0.495   4.035 -0.5338  1.1462  0.5277
 1447TIP3   OH2 4304   3.530   4.476   3.177 -0.1675 -0.4679 -0.1136
 1447TIP3    H1 4305   3.541   4.518   3.262  1.3106 -0.5265 -0.2546
 1447TIP3    H2 4306   3.502   4.546   3.119 -0.8430 -0.3564  0.3302
 1448TIP3   OH2 4307   1.218   5.799   4.302  0.3940  0.0817  0.3749
 1448TIP3    H1 4308   1.180   5.713   4.320 -0.0189 -0.3826 -2.2906
 1448TIP3    H2 4309   1.296   5.781   4.249  0.7005  1.3175  0.3597
 1449TIP3   OH2 4310   6.291   1.611   1.959 -0.1429 -0.2912 -0.0090
 1449TIP3    H1 4311   6.366   1.655   1.919 -0.3874  0.9991  0.8743
 1449TIP3    H2 4312   6.328   1.560   2.031  0.0483 -0.9421 -0.5532
 1450TIP3   OH2 4313   1.181   5.896   5.355  0.4976 -0.0285 -0.1101
 1450TIP3    H1 4314   1.186   5.802   5.373  1.7539 -0.0732 -0.5622
 1450TIP3    H2 4315   1.268   5.919   5.323  0.0357  1.1800 -0.5774
 1451TIP3   OH2 4316   4.160   5.745   2.657  0.2441 -0.6757 -0.1900
 1451TIP3    H1 4317   4.201   5.831   2.657 -3.2165  1.1269 -1.3666
 1451TIP3    H2 4318   4.199   5.700   2.581 -0.7974  1.4419 -2.0690
 1452TIP3   OH2 4319   5.246   2.488   1.944  0.1518 -0.0589  0.2854
 1452TIP3    H1 4320   5.154   2.479   1.970  0.4503 -1.3304  0.9845
 1452TIP3    H2 4321   5.295   2.485   2.027  0.8012  1.3059 -0.0185
 1453TIP3   OH2 4322   1.295   6.167   1.379 -0.8164 -0.3713 -0.3261
 1453TIP3    H1 4323   1.385   6.199   1.368 -1.3253  1.4390  0.3009
 1453TIP3    H2 4324   1.257   6.174   1.292 -0.5246 -0.5224 -0.4661
 1454TIP3   OH2 4325   0.706   3.131   0.430  0.1247  0.1522 -0.2696
 1454TIP3    H1 4326   0.761   3.145   0.352  0.0944 -0.0558 -0.3300
 1454TIP3    H2 4327   0.736   3.197   0.492  0.9012 -0.3770 -0.0601
 1455TIP3   OH2 4328   3.320   2.924   1.994 -0.0187 -0.2844  0.3921
 1455TIP3    H1 4329   3.365   2.998   2.036 -0.5595  0.1736  0.1816
 1455TIP3    H2 4330   3.274   2.963   1.920  1.6571 -1.2110 -1.2207
 1456TIP3   OH2 4331   3.851   4.300   5.553  0.0720 -0.4854  0.0200
 1456TIP3    H1 4332   3.855   4.207   5.531  1.2620 -0.3363 -0.4543
 1456TIP3    H2 4333   3.819   4.342   5.473 -0.1405 -0.4469  0.1249
 1457TIP3   OH2 4334   0.071   6.145   2.409 -0.0784  0.2429  0.2929
 1457TIP3    H1 4335  -0.021   6.167   2.420 -0.1836 -0.1462  0.2125
 1457TIP3    H2 4336   0.113   6.228   2.388 -0.5044  0.3299 -0.2390
 1458TIP3   OH2 4337   2.004   4.430   3.893  0.0332 -0.3598 -0.5702
 1458TIP3    H1 4338   2.073   4.457   3.953 -1.7636  1.2231  0.9170
 1458TIP3    H2 4339   1.957   4.361   3.940 -2.8110  2.4210  1.1324
 1459TIP3   OH2 4340   1.507   2.721   0.716 -0.6765 -0.5915  0.1544
 1459TIP3    H1 4341   1.470   2.633   0.712 -1.5791 -0.1995 -2.9967
 1459TIP3    H2 4342   1.444   2.776   0.669  0.1402  1.6682  1.5124
 1460TIP3   OH2 4343   1.954   1.277   0.306  0.2619 -0.4835 -0.0375
 1460TIP3    H1 4344   2.007   1.264   0.228  0.6716 -0.3451  0.2143
 1460TIP3    H2 4345   2.017   1.282   0.378  0.1193  1.9509  0.0134
 1461TIP3   OH2 4346   4.391   1.918   0.872  0.9187  0.0846  0.1747
 1461TIP3    H1 4347   4.371   1.994   0.817  1.3413  0.6227  0.7539
 1461TIP3    H2 4348   4.466   1.946   0.925 -1.1681  0.6585  3.0846
 1462TIP3   OH2 4349   6.314   5.983   2.272 -0.7182 -0.4663 -0.1560
 1462TIP3    H1 4350   6.397   5.958   2.314 -0.1549 -0.5250 -1.2692
 1462TIP3    H2 4351   6.251   5.919   2.305 -0.6365  0.3494  1.7211
 1463TIP3   OH2 4352   7.168   5.416   2.947 -0.4863  0.5624  0.2292
 1463TIP3    H1 4353   7.157   5.509   2.966 -0.1261  0.9453 -1.2382
 1463TIP3    H2 4354   7.164   5.373   3.032 -0.2186  1.9647  0.9896
 1464TIP3   OH2 4355   0.138   2.592   5.591  0.2376 -0.2309  0.4492
 1464TIP3    H1 4356   0.100   2.505   5.595 -1.4225  0.4713  3.7013
 1464TIP3    H2 4357   0.069   2.647   5.554  0.7950 -0.0539 -0.3574
 1465TIP3   OH2 4358   3.558   3.737   3.544 -0.3353  0.5950  0.2361
 1465TIP3    H1 4359   3.652   3.748   3.531 -0.3378 -0.1673 -0.5451
 1465TIP3    H2 4360   3.519   3.812   3.499 -0.0607  1.8229  1.9574
 1466TIP3   OH2 4361   6.201   2.795   1.134  0.2655  0.2528  0.1399
 1466TIP3    H1 4362   6.202   2.713   1.085 -1.0710  0.4331 -0.2435
 1466TIP3    H2 4363   6.185   2.768   1.225 -0.5553  0.0927 -0.0421
 1467TIP3   OH2 4364   0.941   4.285   4.226  0.3899 -0.7458  0.0905
 1467TIP3    H1 4365   1.012   4.257   4.284 -0.2352  1.0887  1.8460
 1467TIP3    H2 4366   0.861   4.258   4.271 -0.1335  1.3912  0.5632
 1468TIP3   OH2 4367   4.012   6.154   4.950 -0.5773 -0.1569 -0.3416
 1468TIP3    H1 4368   4.054   6.091   5.008 -0.9057 -0.1460 -0.0902
 1468TIP3    H2 4369   4.080   6.219   4.932  0.9080 -2.3048 -3.3496
 1469TIP3   OH2 4370   2.439   2.194   2.214  0.0294  0.7071  0.2562
 1469TIP3    H1 4371   2.468   2.151   2.294  2.1406 -0.0989 -0.8609
 1469TIP3    H2 4372   2.463   2.286   2.225 -0.9624  0.8854  1.0750
 1470TIP3   OH2 4373   3.208   0.553   4.197 -0.4563 -0.1193  0.6981
 1470TIP3    H1 4374   3.198   0.473   4.146  2.4842 -0.4044  0.3666
 1470TIP3    H2 4375   3.155   0.619   4.151 -0.4800 -1.1522 -0.8088
 1471TIP3   OH2 4376   2.830   0.210   1.456  0.4557  0.2243 -0.2860
 1471TIP3    H1 4377   2.822   0.217   1.551  0.6277 -0.5781 -0.2007
 1471TIP3    H2 4378   2.921   0.233   1.438  0.6506 -0.4232 -0.1595
 1472TIP3   OH2 4379   1.594   1.395   0.236 -0.0880 -0.3480  0.1879
 1472TIP3    H1 4380   1.574   1.305   0.260 -1.1228 -1.3795 -3.7947
 1472TIP3    H2 4381   1.672   1.389   0.181  0.9581  1.4871  1.3784
 1473TIP3   OH2 4382   4.157   6.741   1.828 -0.3444 -0.5841 -0.1623
 1473TIP3    H1 4383   4.110   6.701   1.901 -0.0028  0.0942  0.4322
 1473TIP3    H2 4384   4.131   6.833   1.829  0.1640 -0.4308 -0.4900
 1474TIP3   OH2 4385   7.170   3.030   0.655  0.2909 -0.0973 -0.4067
 1474TIP3    H1 4386   7.156   3.115   0.696  5.1647  0.5971  0.4841
 1474TIP3    H2 4387   7.159   2.967   0.726  1.4966  0.3652  0.2198
 1475TIP3   OH2 4388   7.060   5.721   5.292  0.3300 -0.2793  0.4748
 1475TIP3    H1 4389   6.967   5.700   5.299  0.0183  0.2106 -1.5374
 1475TIP3    H2 4390   7.075   5.787   5.360 -0.9890  0.2641  0.2676
 1476TIP3   OH2 4391   1.453   6.509   2.472 -0.3488 -0.1834 -0.0234
 1476TIP3    H1 4392   1.489   6.595   2.493  1.8880 -0.3541 -2.5484
 1476TIP3    H2 4393   1.388   6.526   2.404 -1.0485 -0.3865  0.5800
 1477TIP3   OH2 4394   6.342   5.760   1.310 -0.1490 -0.0624  0.0816
 1477TIP3    H1 4395   6.335   5.666   1.291  0.3363 -0.0189 -0.3357
 1477TIP3    H2 4396   6.418   5.788   1.261  0.1318  0.4106  0.7774
 1478TIP3   OH2 4397   1.909   1.949   4.705 -0.2219 -0.0355  0.3133
 1478TIP3    H1 4398   1.911   2.020   4.641 -1.7644  0.7645  1.0945
 1478TIP3    H2 4399   1.816   1.940   4.727  0.1504 -1.0843  1.5583
 1479TIP3   OH2 4400   5.140   0.189   4.897 -0.0731  0.0836 -0.2367
 1479TIP3    H1 4401   5.167   0.244   4.972  0.6976 -0.8360  0.1862
 1479TIP3    H2 4402   5.118   0.105   4.936  0.2650 -0.3863 -1.0417
 1480TIP3   OH2 4403   3.053   1.162   2.474 -0.2401 -0.9910 -0.1033
 1480TIP3    H1 4404   2.999   1.206   2.540 -0.5333 -1.4920 -0.0028
 1480TIP3    H2 4405   2.992   1.104   2.428  0.3097 -1.9956  0.3858
 1481TIP3   OH2 4406   5.479   3.477   3.482  0.2595  0.3972  0.4119
 1481TIP3    H1 4407   5.564   3.486   3.439 -0.3655 -0.4223 -1.0875
 1481TIP3    H2 4408   5.418   3.459   3.410 -1.3605  1.9421  1.3178
 1482TIP3   OH2 4409   6.225   3.146   3.720 -0.3723 -0.2960  0.3412
 1482TIP3    H1 4410   6.224   3.229   3.768 -0.0419 -0.5230  0.7569
 1482TIP3    H2 4411   6.312   3.110   3.737 -0.0218 -0.0972 -0.9485
 1483TIP3   OH2 4412   5.587   5.440   0.770 -0.3794  0.1101 -0.0987
 1483TIP3    H1 4413   5.519   5.381   0.802 -0.1357 -0.1678 -0.0919
 1483TIP3    H2 4414   5.559   5.464   0.681  0.0032 -0.7772 -0.4701
 1484TIP3   OH2 4415   4.708   0.046   4.973 -0.1153  0.1094  0.0646
 1484TIP3    H1 4416   4.770   0.106   5.015 -0.2308 -0.1403  0.6026
 1484TIP3    H2 4417   4.634   0.102   4.948  0.1269  0.3286 -0.1735
 1485TIP3   OH2 4418   4.220   3.971   0.224  0.3262 -0.0069  0.1194
 1485TIP3    H1 4419   4.249   3.890   0.265  0.9259 -0.5416 -1.2711
 1485TIP3    H2 4420   4.241   4.040   0.287  0.4724 -0.8495  1.0146
 1486TIP3   OH2 4421   0.599   0.730   0.754  1.1454  0.2666 -0.2145
 1486TIP3    H1 4422   0.633   0.640   0.764  0.3430 -0.1816 -1.3496
 1486TIP3    H2 4423   0.584   0.759   0.844 -0.3863 -1.4703  0.1539
 1487TIP3   OH2 4424   6.322   4.790   0.431 -0.3935  0.6660 -0.2657
 1487TIP3    H1 4425   6.271   4.751   0.360 -0.0184  0.3373 -0.3611
 1487TIP3    H2 4426   6.321   4.724   0.500 -0.6621  0.9380 -0.0078
 1488TIP3   OH2 4427   1.428   6.206   3.666 -0.1736  0.0057  0.6665
 1488TIP3    H1 4428   1.385   6.284   3.630 -0.5238  0.5412  2.1911
 1488TIP3    H2 4429   1.362   6.136   3.655 -0.6398  0.3685  1.1172
 1489TIP3   OH2 4430   6.637   1.842   2.700 -0.2909 -0.3606  0.4632
 1489TIP3    H1 4431   6.542   1.833   2.696 -0.6256  1.6306  2.1737
 1489TIP3    H2 4432   6.657   1.912   2.638  0.2620 -1.5820 -0.7958
 1490TIP3   OH2 4433   0.476   6.035   4.856  0.1082  0.5151  0.1958
 1490TIP3    H1 4434   0.560   6.075   4.835  0.6431  0.5958  2.2600
 1490TIP3    H2 4435   0.498   5.953   4.900 -0.8239  1.0315  1.7046
 1491TIP3   OH2 4436   3.482   6.431   1.516  0.0375 -0.2358 -0.5527
 1491TIP3    H1 4437   3.412   6.480   1.558  1.0847 -0.0100  1.0055
 1491TIP3    H2 4438   3.452   6.419   1.425 -1.2884  1.2013 -0.3422
 1492TIP3   OH2 4439   1.464   3.411   5.441  1.0688  0.2411 -0.0782
 1492TIP3    H1 4440   1.434   3.321   5.432  1.8999 -0.5541  3.5728
 1492TIP3    H2 4441   1.546   3.415   5.393  1.3404 -1.1536  0.2404
 1493TIP3   OH2 4442   2.791   4.539   3.858 -0.0716 -0.6023  0.5958
 1493TIP3    H1 4443   2.752   4.605   3.915  0.1080 -0.3550  0.4322
 1493TIP3    H2 4444   2.733   4.537   3.781  0.4374  0.0266  0.1894
 1494TIP3   OH2 4445   0.410   4.017   0.832  0.4852 -0.7089 -0.2570
 1494TIP3    H1 4446   0.479   3.994   0.771 -0.8711 -0.9621 -1.7697
 1494TIP3    H2 4447   0.339   3.955   0.813 -0.3424 -0.1485  0.8836
 1495TIP3   OH2 4448   0.226   1.228   3.318 -0.3625  0.0409  0.1146
 1495TIP3    H1 4449   0.320   1.247   3.314 -0.3827 -0.0270 -1.2825
 1495TIP3    H2 4450   0.198   1.262   3.403  0.6370  1.4630 -0.0909
 1496TIP3   OH2 4451   6.598   4.127   5.031 -0.0965  0.3646  0.7122
 1496TIP3    H1 4452   6.660   4.056   5.046 -1.5303 -0.6724  2.1382
 1496TIP3    H2 4453   6.522   4.084   4.992 -0.3025  1.4394 -0.1018
 1497TIP3   OH2 4454   5.929   5.387   0.767 -0.3333 -0.0289 -0.0983
 1497TIP3    H1 4455   5.896   5.337   0.693 -2.6308  0.0719  0.7895
 1497TIP3    H2 4456   5.854   5.396   0.826  0.7178  2.1228  1.0325
 1498TIP3   OH2 4457   3.004   1.695   4.973 -0.1215 -0.2211  0.2977
 1498TIP3    H1 4458   3.049   1.741   5.044 -0.0746  0.3119 -0.0744
 1498TIP3    H2 4459   2.969   1.616   5.015 -0.7021  0.4291  1.0827
 1499TIP3   OH2 4460   5.756   6.799   4.431 -0.1300 -0.1089 -0.3462
 1499TIP3    H1 4461   5.834   6.832   4.476 -0.1634  0.4566 -0.6934
 1499TIP3    H2 4462   5.745   6.710   4.464  0.0959  0.1470  0.4429
 1500TIP3   OH2 4463   1.217   0.818   2.239  0.0178 -0.4240 -0.1404
 1500TIP3    H1 4464   1.139   0.767   2.261  0.5017 -0.4149  1.7328
 1500TIP3    H2 4465   1.290   0.759   2.256  0.4754 -0.5137 -2.0978
 1501TIP3   OH2 4466   3.780   3.334   1.143  0.4547  0.3959  0.2939
 1501TIP3    H1 4467   3.872   3.311   1.131  0.3762 -1.2419  2.2831
 1501TIP3    H2 4468   3.769   3.340   1.238 -1.6846 -0.4171  0.1497
 1502TIP3   OH2 4469   0.674   5.918   0.832 -0.2892 -0.0901  0.0330
 1502TIP3    H1 4470   0.587   5.958   0.828 -0.2029  0.1145  0.1679
 1502TIP3    H2 4471   0.658   5.825   0.819 -0.5577 -0.0853  0.3046
 1503TIP3   OH2 4472   5.320   4.255   0.869  0.1736  0.4184  0.1262
 1503TIP3    H1 4473   5.353   4.263   0.779 -2.3672 -0.4140 -0.9943
 1503TIP3    H2 4474   5.235   4.300   0.866  0.2798  0.8357  2.2796
 1504TIP3   OH2 4475   4.958   3.995   1.297  0.2660 -0.0217 -0.1867
 1504TIP3    H1 4476   5.039   4.006   1.347  0.6356 -0.9855 -0.5521
 1504TIP3    H2 4477   4.891   3.977   1.363 -0.1382  2.9259  0.3401
 1505TIP3   OH2 4478   4.999   4.173   3.878  0.1128  0.5726  0.0971
 1505TIP3    H1 4479   5.065   4.111   3.846  0.9999  1.2138  0.6219
 1505TIP3    H2 4480   5.008   4.170   3.973 -0.3892  0.9132  0.1579
 1506TIP3   OH2 4481   1.166   0.886   0.989  0.3089 -0.8013  0.2236
 1506TIP3    H1 4482   1.122   0.803   0.969  2.1408 -1.7184 -0.3003
 1506TIP3    H2 4483   1.188   0.880   1.082 -0.3276 -0.5189  0.3915
 1507TIP3   OH2 4484   4.772   3.034   1.791 -0.6584  0.1765  0.6189
 1507TIP3    H1 4485   4.847   3.030   1.850 -1.3711 -1.6848  1.4944
 1507TIP3    H2 4486   4.716   2.961   1.819 -1.8872  0.3447 -1.2225
 1508TIP3   OH2 4487   6.638   4.167   3.893  0.4172 -0.0073 -0.5120
 1508TIP3    H1 4488   6.589   4.108   3.950 -0.7792  0.6414 -0.8242
 1508TIP3    H2 4489   6.727   4.165   3.927 -0.6076  1.9533  2.7882
 1509TIP3   OH2 4490   2.347   0.124   1.516  0.4482  0.0899  0.1022
 1509TIP3    H1 4491   2.269   0.075   1.490  0.3991  0.7273 -1.0219
 1509TIP3    H2 4492   2.390   0.146   1.433  2.0120 -0.5294  0.7104
 1510TIP3   OH2 4493   6.643   5.448   2.929 -0.4171 -0.6265 -0.1152
 1510TIP3    H1 4494   6.615   5.420   3.017 -2.2486  1.3173 -0.0118
 1510TIP3    H2 4495   6.634   5.369   2.875 -0.8180 -1.4406  1.1002
 1511TIP3   OH2 4496   2.740   5.677   4.142 -0.5427 -0.3108  0.0885
 1511TIP3    H1 4497   2.720   5.743   4.208  0.5818 -0.2325  0.3568
 1511TIP3    H2 4498   2.720   5.593   4.184  0.3371 -0.2723  0.6033
 1512TIP3   OH2 4499   1.944   1.091   4.663 -0.7565  0.1276 -0.1052
 1512TIP3    H1 4500   1.937   1.186   4.654 -0.8033 -0.0187 -1.9184
 1512TIP3    H2 4501   1.891   1.071   4.741  1.5627  1.8342  2.0894
 1513TIP3   OH2 4502   0.476   4.117   2.009 -0.1677 -0.2111  0.7256
 1513TIP3    H1 4503   0.518   4.050   2.062 -0.4632  0.6410  2.0918
 1513TIP3    H2 4504   0.471   4.193   2.067 -0.8875  0.6231 -0.3976
 1514TIP3   OH2 4505   4.024   3.405   1.606  0.0394 -0.2520 -0.6068
 1514TIP3    H1 4506   3.968   3.421   1.682  1.8432 -2.1703  1.2465
 1514TIP3    H2 4507   4.087   3.477   1.608  0.6953 -0.8325  0.3620
 1515TIP3   OH2 4508   5.908   4.249   4.278 -0.2763 -0.1781  0.1550
 1515TIP3    H1 4509   5.836   4.302   4.313 -0.6680 -0.5066 -0.1492
 1515TIP3    H2 4510   5.982   4.268   4.336 -0.5234  0.3955  0.2898
 1516TIP3   OH2 4511   3.903   3.807   1.392 -0.0078 -0.5485 -0.2540
 1516TIP3    H1 4512   3.974   3.768   1.341 -0.3319  1.4987 -2.4402
 1516TIP3    H2 4513   3.858   3.864   1.331 -0.8387  1.6023  2.1756
 1517TIP3   OH2 4514   4.912   0.249   4.720 -0.3270 -0.2484 -0.5477
 1517TIP3    H1 4515   4.881   0.158   4.720 -0.1578 -0.3069  0.1285
 1517TIP3    H2 4516   4.995   0.246   4.768 -0.3178  0.2669 -0.5307
 1518TIP3   OH2 4517   1.958   5.756   3.972 -0.8663 -0.3045  0.7521
 1518TIP3    H1 4518   1.968   5.831   3.913  1.3742 -1.4852 -0.5084
 1518TIP3    H2 4519   2.040   5.755   4.023 -0.2594 -2.5782 -0.1564
 1519TIP3   OH2 4520   1.450   4.388   0.131 -0.2371  0.4824 -0.2315
 1519TIP3    H1 4521   1.520   4.453   0.127 -0.2682  0.5215 -0.1493
 1519TIP3    H2 4522   1.373   4.433   0.095 -0.2466  0.4756 -0.2201
 1520TIP3   OH2 4523   3.309   1.152   1.693 -0.1751 -0.3925 -0.0245
 1520TIP3    H1 4524   3.252   1.221   1.727  0.6123 -0.2333  1.0403
 1520TIP3    H2 4525   3.359   1.195   1.624 -0.2460 -0.1039  0.0989
 1521TIP3   OH2 4526   4.272   4.336   2.038 -0.2389 -0.1465 -0.2061
 1521TIP3    H1 4527   4.330   4.407   2.063  0.6010 -1.2028  0.9159
 1521TIP3    H2 4528   4.184   4.372   2.050  0.1683  0.6261  0.5569
 1522TIP3   OH2 4529   0.935   6.696   1.847 -0.0303 -0.1624  0.0106
 1522TIP3    H1 4530   0.876   6.713   1.920  0.3564  0.0557  0.2686
 1522TIP3    H2 4531   0.953   6.782   1.810  1.8689  0.0288  1.2770
 1523TIP3   OH2 4532   7.132   4.791   5.720  0.0873  0.1843 -0.1376
 1523TIP3    H1 4533   7.048   4.833   5.735  0.1540  0.2878 -0.0496
 1523TIP3    H2 4534   7.134   4.717   5.780 -0.4578 -0.5580 -1.0057
 1524TIP3   OH2 4535   5.802   6.079   5.593  0.5197  0.5784 -0.1522
 1524TIP3    H1 4536   5.718   6.085   5.639  0.6314 -1.4394  0.4129
 1524TIP3    H2 4537   5.861   6.136   5.642  0.0906  0.0787  0.9706
 1525TIP3   OH2 4538   5.777   1.520   1.756 -0.6838 -0.2744  0.3004
 1525TIP3    H1 4539   5.787   1.599   1.703 -1.5025 -0.8862 -0.8155
 1525TIP3    H2 4540   5.862   1.475   1.748 -0.6847 -0.1911 -0.2081
 1526TIP3   OH2 4541   0.720   2.676   4.498  0.7725 -0.1623  0.3152
 1526TIP3    H1 4542   0.630   2.693   4.526 -0.0690 -0.5052 -2.0227
 1526TIP3    H2 4543   0.773   2.723   4.562 -1.0384  0.0011  1.7945
 1527TIP3   OH2 4544   2.267   3.902   5.221  0.0269 -0.3691 -0.3411
 1527TIP3    H1 4545   2.347   3.860   5.190 -0.0178 -1.2283  0.6362
 1527TIP3    H2 4546   2.259   3.873   5.312 -1.1338  0.0958 -0.2809
 1528TIP3   OH2 4547   6.090   1.976   4.104 -0.1966  0.0764  0.6395
 1528TIP3    H1 4548   6.137   1.993   4.022 -0.0170  1.3057  0.9879
 1528TIP3    H2 4549   6.045   1.892   4.088 -1.4517  1.0228 -1.3026
 1529TIP3   OH2 4550   2.680   4.567   3.599  0.1219  0.1273  0.0013
 1529TIP3    H1 4551   2.645   4.514   3.527  0.5454 -0.1655  0.0127
 1529TIP3    H2 4552   2.690   4.655   3.561  1.1271 -0.2122 -0.5416
 1530TIP3   OH2 4553   1.289   2.368   1.819 -0.6242 -0.5205 -0.2594
 1530TIP3    H1 4554   1.224   2.343   1.753 -0.3232 -0.4939 -0.5672
 1530TIP3    H2 4555   1.366   2.314   1.799  0.2463  1.0140 -1.2806
 1531TIP3   OH2 4556   6.730   4.902   0.740  0.0758  0.2773 -0.5606
 1531TIP3    H1 4557   6.767   4.972   0.793 -0.3085  0.8152 -0.9880
 1531TIP3    H2 4558   6.636   4.904   0.759  0.2305 -1.0351  0.4729
 1532TIP3   OH2 4559   0.751   4.267   2.024  0.3675  0.2615  0.0584
 1532TIP3    H1 4560   0.806   4.340   2.050 -0.3408  2.1537 -3.1710
 1532TIP3    H2 4561   0.672   4.275   2.077  0.7291  1.1997  0.4670
 1533TIP3   OH2 4562   6.317   3.344   2.397 -0.8681  0.7190 -0.4990
 1533TIP3    H1 4563   6.270   3.347   2.481  0.4588  1.1124  0.2708
 1533TIP3    H2 4564   6.399   3.392   2.415 -0.2786  0.2423 -1.8414
 1534TIP3   OH2 4565   4.229   3.482   4.607 -0.3719 -0.0408 -0.1653
 1534TIP3    H1 4566   4.307   3.520   4.647 -1.2275  1.5536  0.0970
 1534TIP3    H2 4567   4.206   3.543   4.537 -0.9179 -0.9287 -0.7842
 1535TIP3   OH2 4568   6.360   2.117   4.498  0.1710  0.1497  0.0422
 1535TIP3    H1 4569   6.327   2.207   4.498 -1.9744 -0.4736  2.9876
 1535TIP3    H2 4570   6.455   2.127   4.503  0.0651  2.2092 -0.7839
 1536TIP3   OH2 4571   1.699   6.457   1.181 -0.2529 -0.2456 -0.1625
 1536TIP3    H1 4572   1.691   6.520   1.109 -0.9583  1.5778  1.4147
 1536TIP3    H2 4573   1.672   6.506   1.258  2.8089 -1.3538  1.7992
 1537TIP3   OH2 4574   5.249   3.535   3.687  0.3473 -0.2008  0.3226
 1537TIP3    H1 4575   5.170   3.590   3.688 -0.6488 -1.5953  0.7930
 1537TIP3    H2 4576   5.295   3.562   3.607 -1.3988 -0.4243 -0.8143
 1538TIP3   OH2 4577   3.420   1.390   4.142  0.0233 -0.3774  0.0918
 1538TIP3    H1 4578   3.486   1.323   4.151 -0.8976 -1.2638  0.4031
 1538TIP3    H2 4579   3.410   1.401   4.047  1.3817  0.5703  0.0283
 1539TIP3   OH2 4580   5.917   6.191   5.025 -0.6781  0.3670 -0.2340
 1539TIP3    H1 4581   5.985   6.188   5.092 -1.3234  0.5020  0.4286
 1539TIP3    H2 4582   5.853   6.253   5.058 -0.7495  0.8440 -1.2283
 1540TIP3   OH2 4583   5.494   4.465   0.375 -0.3804 -0.3039  0.2464
 1540TIP3    H1 4584   5.544   4.546   0.375 -0.4234 -0.2463 -1.4155
 1540TIP3    H2 4585   5.403   4.492   0.385 -0.2096 -0.3452  2.2706
 1541TIP3   OH2 4586   5.292   1.058   2.431 -0.2314 -0.1338  0.2360
 1541TIP3    H1 4587   5.317   1.133   2.486  0.4153  0.9045 -1.4048
 1541TIP3    H2 4588   5.344   0.985   2.465  2.1630  1.0821 -0.5808
 1542TIP3   OH2 4589   7.030   5.127   4.229 -0.1680  0.6173 -0.1841
 1542TIP3    H1 4590   7.056   5.184   4.156  0.0926 -0.7035 -1.1741
 1542TIP3    H2 4591   7.084   5.049   4.218 -0.9328 -0.0691  0.7655
 1543TIP3   OH2 4592   0.252   0.591   0.713 -0.5824  0.5692  0.8607
 1543TIP3    H1 4593   0.249   0.646   0.791 -0.1863  1.8993 -0.0288
 1543TIP3    H2 4594   0.223   0.648   0.641 -1.0704 -0.6518  0.0315
 1544TIP3   OH2 4595   2.798   2.431   4.624 -0.1183 -0.1778 -0.3868
 1544TIP3    H1 4596   2.720   2.486   4.634 -1.3697 -1.7378 -1.1556
 1544TIP3    H2 4597   2.772   2.345   4.657  1.8774 -0.3121  1.0225
 1545TIP3   OH2 4598   0.644   5.103   4.602  0.2307 -0.0587  0.2170
 1545TIP3    H1 4599   0.661   5.185   4.555 -0.5358 -0.1201 -0.1828
 1545TIP3    H2 4600   0.725   5.086   4.650  0.5221  0.7574  0.0406
 1546TIP3   OH2 4601   1.664   5.592   3.314  0.2181  0.0804 -0.0506
 1546TIP3    H1 4602   1.730   5.567   3.378  1.2177  0.4488 -0.9066
 1546TIP3    H2 4603   1.605   5.516   3.310  2.2829 -1.6069 -1.4395
 1547TIP3   OH2 4604   1.684   5.713   4.892  0.6558 -0.2231  0.2383
 1547TIP3    H1 4605   1.641   5.751   4.815  0.0983 -0.7953  0.2622
 1547TIP3    H2 4606   1.611   5.688   4.949  1.0682  1.1549  1.4290
 1548TIP3   OH2 4607   4.028   4.716   4.019 -0.2023 -0.1710 -0.6762
 1548TIP3    H1 4608   3.960   4.783   4.020 -1.2862 -1.2274 -0.7851
 1548TIP3    H2 4609   4.022   4.677   3.932 -1.1815 -1.9315  0.1263
 1549TIP3   OH2 4610   1.685   2.353   5.429 -0.0711  0.9782 -0.0164
 1549TIP3    H1 4611   1.662   2.262   5.444 -0.4807  1.2564  1.1382
 1549TIP3    H2 4612   1.735   2.352   5.347  0.1680 -0.3059  0.1240
 1550TIP3   OH2 4613   0.455   5.066   5.509 -0.4205 -0.3727  0.0658
 1550TIP3    H1 4614   0.383   5.050   5.570 -1.0979  0.4373 -0.4822
 1550TIP3    H2 4615   0.487   5.154   5.532 -1.7204  0.6378 -1.6697
 1551TIP3   OH2 4616   5.592   0.857   1.551  0.1405 -0.0121  0.4023
 1551TIP3    H1 4617   5.550   0.906   1.621  1.0828  0.2355  0.8014
 1551TIP3    H2 4618   5.668   0.816   1.591  0.3122 -0.4294 -0.3183
 1552TIP3   OH2 4619   6.495   1.120   1.186  0.1855  0.2136  0.2173
 1552TIP3    H1 4620   6.441   1.176   1.242 -1.1470 -2.5779  1.9323
 1552TIP3    H2 4621   6.581   1.119   1.228  0.4383  1.5017 -0.2431
 1553TIP3   OH2 4622   6.917   5.419   1.997  0.5062  0.3810  0.4792
 1553TIP3    H1 4623   6.943   5.502   2.036 -0.6806  1.1649 -0.3342
 1553TIP3    H2 4624   6.827   5.404   2.027 -0.1185  0.5624 -1.1762
 1554TIP3   OH2 4625   1.444   1.342   3.936  0.3055 -0.7500  0.1344
 1554TIP3    H1 4626   1.460   1.436   3.928 -0.0293 -0.5075  1.9890
 1554TIP3    H2 4627   1.523   1.301   3.901  0.1667  0.1727 -1.3629
 1555TIP3   OH2 4628   3.618   6.102   5.700 -0.3519 -0.4875  0.1553
 1555TIP3    H1 4629   3.658   6.060   5.776  0.2237 -0.2226 -0.0002
 1555TIP3    H2 4630   3.688   6.107   5.636 -1.2118 -2.1405 -1.0019
 1556TIP3   OH2 4631   6.295   2.081   3.113 -0.0620  0.2298 -0.0193
 1556TIP3    H1 4632   6.233   2.148   3.142  0.0543 -0.1571  1.1891
 1556TIP3    H2 4633   6.381   2.121   3.124 -0.0415  0.3419 -0.5591
 1557TIP3   OH2 4634   3.168   1.748   2.476 -0.4468  0.2420  0.0070
 1557TIP3    H1 4635   3.121   1.742   2.559 -0.0967  0.9967  0.2729
 1557TIP3    H2 4636   3.132   1.678   2.422 -0.4553 -0.4562  0.9084
 1558TIP3   OH2 4637   1.709   1.018   1.473 -0.4210 -0.0249 -0.4072
 1558TIP3    H1 4638   1.798   1.029   1.441 -1.1658  4.4002 -1.5504
 1558TIP3    H2 4639   1.719   1.001   1.567  1.6703  2.4498 -0.0874
 1559TIP3   OH2 4640   1.593   1.873   1.473 -0.0044  0.1040  0.5572
 1559TIP3    H1 4641   1.615   1.868   1.566 -1.8960  1.5079  1.1534
 1559TIP3    H2 4642   1.614   1.964   1.449 -3.2568  1.0382  0.7582
 1560TIP3   OH2 4643   1.230   6.032   3.710  0.2010 -0.3914  0.2768
 1560TIP3    H1 4644   1.234   5.989   3.796 -0.7927 -1.1946 -0.0474
 1560TIP3    H2 4645   1.177   5.972   3.657  2.1125 -0.7081 -1.3723
 1561TIP3   OH2 4646   7.111   6.345   1.830 -0.6551 -0.0200 -0.4338
 1561TIP3    H1 4647   7.198   6.306   1.830 -0.9532 -0.8635  1.9825
 1561TIP3    H2 4648   7.096   6.369   1.922 -1.4261  3.7425 -1.3862
 1562TIP3   OH2 4649   6.133   3.439   1.410  0.3722 -0.3814  0.2314
 1562TIP3    H1 4650   6.120   3.487   1.328  0.0274 -1.8357 -0.6186
 1562TIP3    H2 4651   6.093   3.494   1.477  0.2019  0.6072 -0.6500
 1563TIP3   OH2 4652   6.330   4.518   5.479  0.2387 -0.0608 -0.7594
 1563TIP3    H1 4653   6.257   4.578   5.465 -0.3665 -0.2009  1.4256
 1563TIP3    H2 4654   6.339   4.514   5.574  2.8555 -0.3531 -0.9518
 1564TIP3   OH2 4655   6.243   3.247   2.921 -0.2273  0.5222 -0.1977
 1564TIP3    H1 4656   6.266   3.198   3.000  2.6454  0.8956 -0.6595
 1564TIP3    H2 4657   6.253   3.339   2.946  0.0582  0.6632 -0.8029
 1565TIP3   OH2 4658   2.002   5.104   1.325  0.1319  0.5697 -0.3212
 1565TIP3    H1 4659   2.070   5.169   1.342 -0.0129  0.3744  1.1360
 1565TIP3    H2 4660   2.036   5.051   1.253  0.9708  1.2394 -0.4284
 1566TIP3   OH2 4661   0.815   0.151   2.973 -0.0963 -0.2793 -0.2417
 1566TIP3    H1 4662   0.906   0.132   2.952  0.0335  0.7147 -0.6216
 1566TIP3    H2 4663   0.781   0.069   3.009  0.2024 -1.5015 -2.5504
 1567TIP3   OH2 4664   4.121   0.798   1.569  0.0183  0.3318 -0.0341
 1567TIP3    H1 4665   4.154   0.722   1.521  0.2139 -0.6360  1.5623
 1567TIP3    H2 4666   4.051   0.762   1.624 -1.4801  1.7456 -0.9185
 1568TIP3   OH2 4667   7.118   3.512   4.275 -0.0847  0.4698 -0.4183
 1568TIP3    H1 4668   7.175   3.558   4.213  0.1968  0.0955 -0.4436
 1568TIP3    H2 4669   7.059   3.579   4.308  1.6298  1.3338  1.1001
 1569TIP3   OH2 4670   5.398   1.586   1.174 -0.4480 -0.1179 -0.5744
 1569TIP3    H1 4671   5.355   1.523   1.231  0.6021 -0.5252 -0.1902
 1569TIP3    H2 4672   5.328   1.624   1.122 -1.3046 -0.4342  0.3203
 1570TIP3   OH2 4673   4.118   4.130   5.152 -0.0239  0.0704  0.7455
 1570TIP3    H1 4674   4.065   4.187   5.208  1.8973  1.6125  1.1295
 1570TIP3    H2 4675   4.155   4.065   5.213  0.2331  0.3264  0.8643
 1571TIP3   OH2 4676   7.001   4.954   2.906 -0.0928 -0.1350 -0.2137
 1571TIP3    H1 4677   6.938   5.019   2.937  0.8070  0.5440  0.2235
 1571TIP3    H2 4678   6.982   4.876   2.958  0.4362  0.5412  1.0385
 1572TIP3   OH2 4679   5.019   5.372   0.760  0.1396 -0.7717 -0.2446
 1572TIP3    H1 4680   4.942   5.417   0.726 -0.1200 -1.4247 -0.5236
 1572TIP3    H2 4681   4.985   5.311   0.826  0.1698 -2.4860 -1.7413
 1573TIP3   OH2 4682   1.329   4.533   0.752 -0.0715  0.1475  0.5865
 1573TIP3    H1 4683   1.357   4.490   0.672 -0.1790  1.4744 -0.1881
 1573TIP3    H2 4684   1.337   4.627   0.734 -1.0116  0.4971  1.7919
 1574TIP3   OH2 4685   5.173   2.916   3.407  0.0766 -0.3400 -0.2040
 1574TIP3    H1 4686   5.174   2.938   3.500  0.8053  0.8333 -0.4726
 1574TIP3    H2 4687   5.158   2.821   3.405 -0.7262 -0.2585  1.0720
 1575TIP3   OH2 4688   6.920   2.381   5.375  0.0492 -0.1043  0.1578
 1575TIP3    H1 4689   6.854   2.322   5.339  0.9907 -1.8967  1.2792
 1575TIP3    H2 4690   6.872   2.463   5.391 -1.2906 -0.5493 -1.3648
 1576TIP3   OH2 4691   4.194   2.873   0.444 -0.2583 -0.0705  0.5717
 1576TIP3    H1 4692   4.128   2.819   0.401 -1.1321 -1.3590  3.2863
 1576TIP3    H2 4693   4.172   2.962   0.419 -0.7390 -0.7072 -1.4897
 1577TIP3   OH2 4694   0.074   4.794   0.182  0.0665  0.0167 -1.1335
 1577TIP3    H1 4695   0.088   4.814   0.089 -2.3780  2.7752 -1.0571
 1577TIP3    H2 4696  -0.019   4.773   0.188  0.0928  0.3156  0.7530
 1578TIP3   OH2 4697   4.785   4.913   3.681  0.5363 -0.4726 -0.4134
 1578TIP3    H1 4698   4.785   5.008   3.668 -3.1530 -0.1421  0.6574
 1578TIP3    H2 4699   4.874   4.892   3.709  1.2317  2.8271  0.2782
 1579TIP3   OH2 4700   4.354   0.666   2.382 -0.5638 -0.2260  0.0028
 1579TIP3    H1 4701   4.441   0.677   2.344 -0.4596  0.3870  0.3940
 1579TIP3    H2 4702   4.313   0.597   2.330 -1.5227  2.5253 -3.2525
 1580TIP3   OH2 4703   4.522   6.195   2.025 -0.3724 -0.6186 -0.2565
 1580TIP3    H1 4704   4.556   6.252   1.957 -0.0923  0.1544  0.5142
 1580TIP3    H2 4705   4.559   6.229   2.107 -0.3267 -1.8021  0.2421
 1581TIP3   OH2 4706   2.826   4.441   5.535 -0.5851  0.4842 -0.4268
 1581TIP3    H1 4707   2.777   4.407   5.609 -1.1836 -0.1573 -1.1030
 1581TIP3    H2 4708   2.909   4.394   5.537 -0.5560  0.5539 -0.0894
 1582TIP3   OH2 4709   4.740   4.146   5.648  0.4069  0.5818  0.0485
 1582TIP3    H1 4710   4.769   4.055   5.655 -2.1256 -0.2868  0.5603
 1582TIP3    H2 4711   4.762   4.184   5.733 -1.2284 -0.5066  1.0223
 1583TIP3   OH2 4712   5.218   4.020   0.234  0.3775 -0.6419  0.0386
 1583TIP3    H1 4713   5.226   4.010   0.139 -2.2274 -0.2952 -0.2917
 1583TIP3    H2 4714   5.159   3.949   0.260 -0.2208  0.2165  1.1158
 1584TIP3   OH2 4715   6.399   5.333   1.988 -0.1450  0.3405  0.2409
 1584TIP3    H1 4716   6.462   5.269   1.954  0.4086  0.6697  0.6208
 1584TIP3    H2 4717   6.442   5.418   1.974 -0.0443  0.5046  1.4447
 1585TIP3   OH2 4718   2.635   4.294   3.098  0.0571  0.5490  0.2863
 1585TIP3    H1 4719   2.640   4.332   3.010  0.2289  0.2842  0.1789
 1585TIP3    H2 4720   2.550   4.250   3.099  0.1428  0.3778  0.1788
 1586TIP3   OH2 4721   5.154   6.600   0.173 -0.3156  0.1702 -0.2537
 1586TIP3    H1 4722   5.072   6.589   0.222 -1.2793 -0.9651 -1.9701
 1586TIP3    H2 4723   5.143   6.543   0.096  3.0675 -1.9563  0.6049
 1587TIP3   OH2 4724   1.292   4.620   5.416 -0.2729 -0.1717 -0.3166
 1587TIP3    H1 4725   1.321   4.703   5.378  0.5535  0.0761  0.8010
 1587TIP3    H2 4726   1.266   4.642   5.506 -1.2769 -0.9068 -0.4036
 1588TIP3   OH2 4727   6.585   5.139   0.198 -0.2607 -0.3382 -1.0140
 1588TIP3    H1 4728   6.609   5.051   0.224 -3.2877 -0.9310  0.2308
 1588TIP3    H2 4729   6.637   5.196   0.253 -0.1430 -1.4251  0.0277
 1589TIP3   OH2 4730   5.932   3.747   4.482  0.3418 -0.3419 -0.0640
 1589TIP3    H1 4731   5.920   3.831   4.437  2.0443 -0.6822 -1.2555
 1589TIP3    H2 4732   5.856   3.740   4.540 -0.5573  1.3762 -0.9425
 1590TIP3   OH2 4733   0.164   0.528   2.383  0.2230  0.7094  0.2064
 1590TIP3    H1 4734   0.205   0.444   2.359 -1.4150  0.0495 -0.3820
 1590TIP3    H2 4735   0.104   0.547   2.311  0.1758  2.1419  0.5994
 1591TIP3   OH2 4736   2.467   4.609   1.744  0.4474 -0.2088 -0.0387
 1591TIP3    H1 4737   2.510   4.625   1.828 -1.4017 -0.0872  0.9446
 1591TIP3    H2 4738   2.486   4.517   1.723  1.9707  0.1171 -0.1485
 1592TIP3   OH2 4739   7.206   4.396   3.244  0.1739  0.3280 -0.0130
 1592TIP3    H1 4740   7.228   4.311   3.283  0.5696  0.1177 -0.6815
 1592TIP3    H2 4741   7.164   4.444   3.315  0.2141 -0.3169  0.4617
 1593TIP3   OH2 4742   5.412   0.679   1.127  0.6259  0.1448 -0.5514
 1593TIP3    H1 4743   5.395   0.770   1.155 -3.4518 -0.8876  1.1491
 1593TIP3    H2 4744   5.359   0.668   1.048 -0.0291 -1.0508  0.0260
 1594TIP3   OH2 4745   4.577   5.622   2.464 -0.2415 -0.2937 -0.2751
 1594TIP3    H1 4746   4.626   5.542   2.484 -1.5756 -1.1403 -0.2509
 1594TIP3    H2 4747   4.639   5.692   2.478  0.7988 -1.2960  0.3086
 1595TIP3   OH2 4748   1.067   6.102   4.868 -0.7042  0.3401  0.0266
 1595TIP3    H1 4749   1.079   6.093   4.963  1.6413 -2.4629 -0.3688
 1595TIP3    H2 4750   0.995   6.042   4.847  0.1996 -0.7351 -0.1303
 1596TIP3   OH2 4751   0.582   2.320   1.081  0.3280 -0.2440 -0.2031
 1596TIP3    H1 4752   0.537   2.399   1.108  1.5115  0.4977 -0.3206
 1596TIP3    H2 4753   0.512   2.259   1.056 -0.5948  0.7498 -0.0979
 1597TIP3   OH2 4754   1.191   4.101   1.758 -0.6345 -0.2062 -0.0962
 1597TIP3    H1 4755   1.216   4.104   1.851  0.5185  0.1411 -0.3986
 1597TIP3    H2 4756   1.202   4.192   1.728 -1.4568 -0.2225 -0.4622
 1598TIP3   OH2 4757   5.166   6.093   5.507 -0.2478  0.2646  0.2008
 1598TIP3    H1 4758   5.205   6.160   5.563  1.8509 -0.2197 -0.5911
 1598TIP3    H2 4759   5.184   6.010   5.552  1.0590 -0.0909 -0.8912
 1599TIP3   OH2 4760   6.229   3.356   2.655 -0.3513 -0.5012  0.0761
 1599TIP3    H1 4761   6.245   3.442   2.695 -1.8644  0.3090 -0.9635
 1599TIP3    H2 4762   6.233   3.294   2.728  1.9399  0.2554  0.6771
 1600TIP3   OH2 4763   4.025   4.041   4.885  0.2128  0.4703 -0.2741
 1600TIP3    H1 4764   4.034   4.086   4.969  1.1230 -0.7726  0.3204
 1600TIP3    H2 4765   3.940   3.998   4.889 -0.3125  1.4517 -0.5298
 1601TIP3   OH2 4766   3.396   0.982   0.179 -0.5987  0.4882  0.3041
 1601TIP3    H1 4767   3.334   0.964   0.250 -2.1801 -2.5211 -1.6243
 1601TIP3    H2 4768   3.345   1.033   0.116  0.0367  1.0767  0.2571
 1602TIP3   OH2 4769   0.422   0.285   1.643 -0.1171  0.2991 -0.5991
 1602TIP3    H1 4770   0.329   0.286   1.668 -0.1165 -0.2250 -0.5531
 1602TIP3    H2 4771   0.434   0.200   1.601  0.5539 -0.0316  0.2292
 1603TIP3   OH2 4772   0.232   5.549   2.651 -0.1809 -0.1655 -0.1225
 1603TIP3    H1 4773   0.261   5.570   2.562  0.6396 -0.4305  0.0742
 1603TIP3    H2 4774   0.248   5.628   2.701  0.7123 -0.4728  0.0990
 1604TIP3   OH2 4775   6.076   3.325   1.092 -0.2022  0.3872  0.1117
 1604TIP3    H1 4776   6.000   3.293   1.043 -0.9015  1.9756  0.0991
 1604TIP3    H2 4777   6.076   3.273   1.172 -1.4367  0.4805  0.1968
 1605TIP3   OH2 4778   4.991   1.525   3.021 -0.3143  0.0099  0.2948
 1605TIP3    H1 4779   5.032   1.569   2.946  0.6730 -1.0067  0.2140
 1605TIP3    H2 4780   4.940   1.594   3.064  0.6826  1.0840 -0.1805
 1606TIP3   OH2 4781   2.864   6.766   0.422 -0.3107  0.6638  0.1672
 1606TIP3    H1 4782   2.792   6.818   0.457  0.9873  1.7013  1.3919
 1606TIP3    H2 4783   2.864   6.686   0.475 -0.6394  0.5662  0.0315
 1607TIP3   OH2 4784   1.790   4.411   3.734 -0.0999  0.5731  0.3104
 1607TIP3    H1 4785   1.853   4.390   3.666 -0.7916  1.3946 -0.6137
 1607TIP3    H2 4786   1.843   4.428   3.812  0.6097 -2.9870  0.7890
 1608TIP3   OH2 4787   5.472   6.248   1.139 -0.6979 -0.0152  0.2288
 1608TIP3    H1 4788   5.414   6.196   1.194 -0.8260 -0.9039 -0.7087
 1608TIP3    H2 4789   5.501   6.188   1.070 -2.1137  1.5144 -1.8427
 1609TIP3   OH2 4790   0.204   1.461   2.481 -0.5028  0.1155  0.2976
 1609TIP3    H1 4791   0.150   1.459   2.560  0.2360 -1.6278  0.8168
 1609TIP3    H2 4792   0.202   1.370   2.449  3.7259 -0.6604  1.5287
 1610TIP3   OH2 4793   0.217   4.142   1.512  0.3736 -0.1829  0.2332
 1610TIP3    H1 4794   0.309   4.117   1.506  0.8114  1.0898  1.1361
 1610TIP3    H2 4795   0.172   4.085   1.450  1.6425 -1.3975  0.4013
 1611TIP3   OH2 4796   6.070   0.973   0.647 -0.2377 -0.1011 -0.2020
 1611TIP3    H1 4797   6.055   1.067   0.640 -1.3420 -0.2497  0.0120
 1611TIP3    H2 4798   6.028   0.936   0.569 -1.0175 -0.5359  0.4106
 1612TIP3   OH2 4799   3.402   6.278   5.033  0.0127  0.7066  0.4402
 1612TIP3    H1 4800   3.480   6.225   5.018 -0.9555 -1.1184  1.3545
 1612TIP3    H2 4801   3.424   6.331   5.109  0.4253  0.3205  0.5986
 1613TIP3   OH2 4802   4.588   4.812   2.639 -0.0493 -0.5275 -0.2508
 1613TIP3    H1 4803   4.522   4.749   2.611  0.6385 -1.3110 -0.1419
 1613TIP3    H2 4804   4.540   4.894   2.652 -0.9868 -1.0861 -0.1832
 1614TIP3   OH2 4805   6.089   0.599   3.696  0.0080 -0.4054  0.4094
 1614TIP3    H1 4806   6.081   0.687   3.733 -1.7408  0.0407 -0.8683
 1614TIP3    H2 4807   6.146   0.610   3.619 -2.0458  0.1700 -1.1307
 1615TIP3   OH2 4808   4.575   5.425   0.187  0.4824  0.3194  0.3664
 1615TIP3    H1 4809   4.624   5.347   0.212  0.9558  0.1712 -0.9333
 1615TIP3    H2 4810   4.621   5.459   0.110 -2.0567 -0.5034 -1.6747
 1616TIP3   OH2 4811   6.110   3.507   5.058  0.3600  0.3324 -0.1661
 1616TIP3    H1 4812   6.156   3.423   5.056 -1.0282 -0.6078 -4.4117
 1616TIP3    H2 4813   6.058   3.505   5.138  1.1593 -2.4294  0.3795
 1617TIP3   OH2 4814   3.195   4.877   4.488 -0.0630 -0.1078 -0.3697
 1617TIP3    H1 4815   3.230   4.865   4.576  0.2995 -0.0588 -0.5094
 1617TIP3    H2 4816   3.102   4.854   4.497 -0.4117  1.4846  0.3838
 1618TIP3   OH2 4817   6.603   4.950   2.656  0.7384  0.1597  0.7140
 1618TIP3    H1 4818   6.520   4.909   2.679  1.0150 -0.5866  0.4041
 1618TIP3    H2 4819   6.626   4.914   2.570  0.4202  1.8429 -0.1348
 1619TIP3   OH2 4820   4.420   0.371   1.012 -0.7997  0.0663 -0.0859
 1619TIP3    H1 4821   4.473   0.450   1.000 -0.8324 -0.1191 -1.6669
 1619TIP3    H2 4822   4.460   0.327   1.087 -1.1316  1.8467  1.1946
 1620TIP3   OH2 4823   3.535   2.850   4.789  0.3686 -0.4324  0.0714
 1620TIP3    H1 4824   3.472   2.912   4.827  0.6051  1.0812 -1.8264
 1620TIP3    H2 4825   3.512   2.766   4.827 -0.9324  0.5671  1.6364
 1621TIP3   OH2 4826   1.320   1.292   0.589  0.5296  0.4582 -0.4083
 1621TIP3    H1 4827   1.305   1.252   0.504  2.2687 -2.7109  0.6192
 1621TIP3    H2 4828   1.294   1.225   0.652 -0.6337  2.6694  1.6366
 1622TIP3   OH2 4829   6.812   3.321   2.190 -0.0114 -0.5559 -0.2994
 1622TIP3    H1 4830   6.885   3.337   2.130 -1.4290  0.2192 -1.8984
 1622TIP3    H2 4831   6.853   3.288   2.270  2.4200  3.1238  0.1965
 1623TIP3   OH2 4832   6.731   5.330   0.921 -0.3790 -0.1728  0.2469
 1623TIP3    H1 4833   6.758   5.239   0.936 -1.8492 -0.9464 -1.3685
 1623TIP3    H2 4834   6.706   5.363   1.007 -1.6619 -1.9515  0.5968
 1624TIP3   OH2 4835   0.108   1.729   0.495  0.0281  0.0474 -0.2040
 1624TIP3    H1 4836   0.129   1.726   0.588  0.6280  1.2217 -0.2835
 1624TIP3    H2 4837   0.077   1.641   0.474  0.8378 -0.5135  0.8806
 1625TIP3   OH2 4838   2.669   6.331   4.350  0.2755 -0.2197  0.3328
 1625TIP3    H1 4839   2.674   6.420   4.385  0.7139 -0.3365  0.5836
 1625TIP3    H2 4840   2.669   6.342   4.255  0.5351  0.0427  0.3619
 1626TIP3   OH2 4841   0.585   2.688   0.210 -1.1824  0.2629  0.5268
 1626TIP3    H1 4842   0.502   2.644   0.230 -0.0061 -1.5475  1.7622
 1626TIP3    H2 4843   0.630   2.627   0.151 -0.3474  0.7771  0.6274
 1627TIP3   OH2 4844   4.245   0.678   2.630 -0.0290  0.1847  0.4254
 1627TIP3    H1 4845   4.268   0.765   2.662  0.1282  0.4493 -0.3616
 1627TIP3    H2 4846   4.289   0.672   2.545  0.1554 -0.7564  0.5812
 1628TIP3   OH2 4847   4.454   3.467   4.352  0.2487 -0.5705 -0.0159
 1628TIP3    H1 4848   4.388   3.535   4.363 -0.7139 -1.1970 -1.6228
 1628TIP3    H2 4849   4.485   3.450   4.441  0.2200  1.6355  0.4758
 1629TIP3   OH2 4850   6.666   2.476   2.898 -0.3758  0.0692 -0.5426
 1629TIP3    H1 4851   6.588   2.497   2.846 -1.1126 -1.8286 -0.2895
 1629TIP3    H2 4852   6.730   2.448   2.833  0.0487  1.3887 -0.7275
 1630TIP3   OH2 4853   3.661   1.575   2.310 -0.0606 -0.5696 -0.1878
 1630TIP3    H1 4854   3.656   1.479   2.305 -2.3563 -0.5148  0.0115
 1630TIP3    H2 4855   3.588   1.606   2.256 -1.4154  0.9209  2.2844
 1631TIP3   OH2 4856   1.196   0.316   4.188 -1.0367  0.4384 -0.2640
 1631TIP3    H1 4857   1.247   0.311   4.270 -1.9850 -0.8550  0.2864
 1631TIP3    H2 4858   1.107   0.335   4.216 -1.0615  1.7367 -1.1538
 1632TIP3   OH2 4859   4.017   5.198   0.854 -0.2001  0.4248 -0.0364
 1632TIP3    H1 4860   4.015   5.147   0.773  1.6015  1.4664 -0.8096
 1632TIP3    H2 4861   3.925   5.205   0.881 -0.5727 -2.5912 -0.2425
 1633TIP3   OH2 4862   0.120   0.851   3.831  0.2592  0.4759  0.6548
 1633TIP3    H1 4863   0.201   0.878   3.788  0.2684 -0.7586 -0.1684
 1633TIP3    H2 4864   0.051   0.880   3.771  0.1578  0.5682  0.8183
 1634TIP3   OH2 4865   6.751   2.819   2.826 -0.2094 -0.5654  0.1933
 1634TIP3    H1 4866   6.736   2.732   2.864  0.5684 -0.5231  0.6204
 1634TIP3    H2 4867   6.670   2.867   2.842 -0.1905 -0.8139  1.0758
 1635TIP3   OH2 4868   2.605   3.055   4.648  0.7016  0.2963 -0.0786
 1635TIP3    H1 4869   2.610   3.150   4.638  0.0509  0.3511  0.0889
 1635TIP3    H2 4870   2.513   3.038   4.666  1.0783 -0.2185  1.4494
 1636TIP3   OH2 4871   0.588   1.798   0.809  0.3174 -0.2239 -0.1528
 1636TIP3    H1 4872   0.532   1.784   0.733 -1.0403 -1.9821  1.0875
 1636TIP3    H2 4873   0.528   1.803   0.883  1.6971 -0.6105  1.0431
 1637TIP3   OH2 4874   5.143   6.314   3.264  0.2388  0.0360  0.6864
 1637TIP3    H1 4875   5.202   6.241   3.244 -0.6537 -0.0503 -1.9405
 1637TIP3    H2 4876   5.095   6.285   3.342  3.5158  0.1159  2.9648
 1638TIP3   OH2 4877   3.431   6.685   4.988  0.1622 -0.8194 -0.2685
 1638TIP3    H1 4878   3.442   6.605   4.936 -0.2524 -1.5359  0.7102
 1638TIP3    H2 4879   3.392   6.655   5.069 -0.3954  0.4509 -0.0457
 1639TIP3   OH2 4880   1.291   2.853   5.069 -0.1636 -0.0533 -0.8374
 1639TIP3    H1 4881   1.362   2.821   5.124 -0.4629  0.8668  0.1436
 1639TIP3    H2 4882   1.211   2.825   5.115 -0.4262  1.5678 -0.2354
 1640TIP3   OH2 4883   4.822   2.689   4.341 -0.3866  0.2013  0.0553
 1640TIP3    H1 4884   4.771   2.652   4.269  0.5398 -1.2082  0.0868
 1640TIP3    H2 4885   4.835   2.781   4.316 -0.7095 -0.0790 -1.2158
 1641TIP3   OH2 4886   4.978   0.355   3.287  0.0470  0.3399 -0.2392
 1641TIP3    H1 4887   4.930   0.290   3.236 -1.0234 -0.3086  1.5056
 1641TIP3    H2 4888   5.017   0.412   3.222 -1.7518 -0.0777 -1.7780
 1642TIP3   OH2 4889   1.534   4.813   1.102 -0.5745  0.5456  0.7273
 1642TIP3    H1 4890   1.546   4.744   1.166 -0.5186 -0.2204 -0.0962
 1642TIP3    H2 4891   1.597   4.795   1.033 -0.3463  1.5953  0.6357
 1643TIP3   OH2 4892   5.389   5.912   1.078  0.7379  0.2366  0.0131
 1643TIP3    H1 4893   5.479   5.879   1.076  1.1958  1.1555  2.3366
 1643TIP3    H2 4894   5.344   5.854   1.139 -0.1095  0.1661 -0.6634
 1644TIP3   OH2 4895   4.678   2.228   3.492  0.2279 -0.5812  0.0048
 1644TIP3    H1 4896   4.619   2.231   3.417 -0.2228 -0.5096  0.3603
 1644TIP3    H2 4897   4.733   2.306   3.483 -0.5069 -0.0143  0.2964
 1645TIP3   OH2 4898   5.982   6.416   5.574 -0.8893  0.1449 -0.3767
 1645TIP3    H1 4899   6.009   6.491   5.627 -2.1309 -0.3022  0.9479
 1645TIP3    H2 4900   6.064   6.381   5.539 -0.2477  1.8335 -0.6834
 1646TIP3   OH2 4901   1.841   0.234   3.415  0.0036 -0.0889  0.8156
 1646TIP3    H1 4902   1.927   0.202   3.443 -0.0368  0.1674  1.2344
 1646TIP3    H2 4903   1.855   0.327   3.396  0.1229 -0.3403 -0.4134
 1647TIP3   OH2 4904   0.382   5.784   0.648  0.7715 -0.3332 -0.2460
 1647TIP3    H1 4905   0.324   5.828   0.585  0.8858 -0.7175 -0.6265
 1647TIP3    H2 4906   0.419   5.855   0.700  1.0712  0.0382 -0.9495
 1648TIP3   OH2 4907   2.570   6.649   2.418  0.3499  0.3285 -0.5789
 1648TIP3    H1 4908   2.498   6.706   2.394 -1.2695 -0.8252  1.2748
 1648TIP3    H2 4909   2.591   6.602   2.337 -1.6221  0.0215 -0.9562
 1649TIP3   OH2 4910   3.894   2.835   3.817 -0.4852 -0.5264 -0.4677
 1649TIP3    H1 4911   3.800   2.829   3.832 -0.6467  1.7076 -0.2424
 1649TIP3    H2 4912   3.916   2.926   3.838  1.8516 -1.1587  0.1562
 1650TIP3   OH2 4913   1.294   4.501   3.021  0.6268  0.5859  0.1259
 1650TIP3    H1 4914   1.208   4.458   3.019  0.9240  0.0097 -0.5898
 1650TIP3    H2 4915   1.322   4.492   3.112 -0.3444  1.3537  0.5206
 1651TIP3   OH2 4916   1.406   4.536   4.795 -1.0822  0.4516 -0.3080
 1651TIP3    H1 4917   1.494   4.499   4.798 -0.5976  1.1499 -3.1160
 1651TIP3    H2 4918   1.412   4.617   4.845 -1.1282 -1.1588  2.4873
 1652TIP3   OH2 4919   1.135   3.194   4.391 -0.0584 -0.3326 -0.0516
 1652TIP3    H1 4920   1.160   3.256   4.322  1.8085 -2.2541 -1.2367
 1652TIP3    H2 4921   1.102   3.117   4.344 -0.3695 -1.0295  1.2583
 1653TIP3   OH2 4922   6.675   5.488   1.128 -0.2935  0.2213 -0.1875
 1653TIP3    H1 4923   6.591   5.524   1.098 -0.0954  0.0301 -0.9941
 1653TIP3    H2 4924   6.679   5.510   1.221  0.4991  3.6640 -0.8976
 1654TIP3   OH2 4925   1.892   5.027   5.478  0.2843  0.4050  0.8077
 1654TIP3    H1 4926   1.906   5.055   5.568 -1.0204 -1.2174  1.5705
 1654TIP3    H2 4927   1.799   5.039   5.463  0.4039  0.2106 -0.1904
 1655TIP3   OH2 4928   6.759   3.799   1.098  0.3201 -0.2053 -0.1493
 1655TIP3    H1 4929   6.852   3.780   1.112  0.4302  0.4783  0.0556
 1655TIP3    H2 4930   6.743   3.778   1.006  1.0096  1.0103 -0.5567
 1656TIP3   OH2 4931   6.769   1.119   1.129 -0.1370  0.3272 -0.2912
 1656TIP3    H1 4932   6.846   1.085   1.174 -1.2067 -1.4925  0.2558
 1656TIP3    H2 4933   6.799   1.135   1.040  1.3639  1.6078  0.3737
 1657TIP3   OH2 4934   3.957   0.545   1.656 -0.9158 -0.1358  0.1045
 1657TIP3    H1 4935   3.926   0.477   1.596 -0.0019 -1.2484  0.8428
 1657TIP3    H2 4936   3.891   0.547   1.726 -2.9350  2.3816 -1.6660
 1658TIP3   OH2 4937   0.236   1.280   2.059 -0.0012 -0.2869  0.2556
 1658TIP3    H1 4938   0.210   1.348   1.996 -0.1661 -0.3645  0.2382
 1658TIP3    H2 4939   0.194   1.200   2.027  0.1541 -0.3873  0.3027
 1659TIP3   OH2 4940   3.413   0.871   1.611 -0.1995  0.2635 -0.0095
 1659TIP3    H1 4941   3.322   0.853   1.586 -0.3162  1.0928 -0.2102
 1659TIP3    H2 4942   3.435   0.952   1.565  0.1338  0.9181  1.2652
 1660TIP3   OH2 4943   2.574   3.062   0.563  0.6833  0.4170 -0.3385
 1660TIP3    H1 4944   2.485   3.098   0.560  0.3169 -0.3004  1.1746
 1660TIP3    H2 4945   2.562   2.970   0.585  1.7108 -0.2548 -2.4005
 1661TIP3   OH2 4946   1.840   4.488   5.343  0.1259 -0.5123  0.0726
 1661TIP3    H1 4947   1.872   4.398   5.343  0.5938 -0.3621  1.2100
 1661TIP3    H2 4948   1.901   4.535   5.400 -0.9005  0.2337  0.5798
 1662TIP3   OH2 4949   4.679   4.767   3.451 -0.4800  0.4291 -0.2225
 1662TIP3    H1 4950   4.679   4.853   3.409 -0.6503  0.3021 -0.4885
 1662TIP3    H2 4951   4.734   4.778   3.529 -1.0022  0.9332  0.0811
 1663TIP3   OH2 4952   2.343   4.492   4.812 -0.3428  0.1676  0.1136
 1663TIP3    H1 4953   2.362   4.408   4.854 -1.2735  0.4308  1.0967
 1663TIP3    H2 4954   2.421   4.545   4.827 -1.5326  1.1699  3.8854
 1664TIP3   OH2 4955   1.264   6.082   0.694 -0.6161  0.3545 -0.0320
 1664TIP3    H1 4956   1.249   6.003   0.745  2.3560  0.3589  1.0810
 1664TIP3    H2 4957   1.329   6.057   0.629 -0.4127  1.6234 -0.3615
 1665TIP3   OH2 4958   2.455   2.099   3.386  0.0219  0.4930 -0.6192
 1665TIP3    H1 4959   2.481   2.014   3.351 -0.3554 -0.2939  0.9042
 1665TIP3    H2 4960   2.412   2.143   3.313 -1.6444 -1.4722 -0.9250
 1666TIP3   OH2 4961   4.964   6.241   4.373  0.0465 -0.2678  0.4943
 1666TIP3    H1 4962   4.942   6.334   4.379 -1.3473 -0.6195  1.4538
 1666TIP3    H2 4963   5.059   6.238   4.376  0.1312  1.1377  0.0614
 1667TIP3   OH2 4964   5.760   5.640   3.958 -0.7672 -0.4163 -0.0637
 1667TIP3    H1 4965   5.855   5.629   3.969 -0.1780  2.5230 -1.1584
 1667TIP3    H2 4966   5.735   5.574   3.894  0.9891  0.0392 -1.2976
 1668TIP3   OH2 4967   6.554   6.752   4.696 -0.1666  0.6581  0.3639
 1668TIP3    H1 4968   6.468   6.788   4.717 -0.3324  1.1231 -1.0261
 1668TIP3    H2 4969   6.614   6.826   4.705 -0.2928  0.9615 -1.0619
 1669TIP3   OH2 4970   1.744   6.211   0.236  0.1591  0.3820  0.6623
 1669TIP3    H1 4971   1.746   6.301   0.204 -0.2388  0.3934  0.6689
 1669TIP3    H2 4972   1.802   6.163   0.177 -0.0680  0.5295  0.3179
 1670TIP3   OH2 4973   6.721   0.558   5.750  0.6925 -0.3444  0.5491
 1670TIP3    H1 4974   6.753   0.470   5.730  0.7405  0.1739 -1.9784
 1670TIP3    H2 4975   6.655   0.575   5.683 -1.7105  0.3781  2.9108
 1671TIP3   OH2 4976   2.896   6.173   0.348 -0.2568  0.1080  0.6084
 1671TIP3    H1 4977   2.865   6.156   0.259 -1.0273  1.2894  0.6270
 1671TIP3    H2 4978   2.990   6.187   0.338 -0.2100 -0.4878  0.1006
 1672TIP3   OH2 4979   6.435   2.077   0.545  0.1277 -0.0119 -0.0679
 1672TIP3    H1 4980   6.429   2.166   0.511 -1.3712 -0.9723 -2.5443
 1672TIP3    H2 4981   6.345   2.054   0.571  0.9926  0.2938  3.9480
 1673TIP3   OH2 4982   2.628   1.437   4.146  0.0496 -0.0189 -0.0617
 1673TIP3    H1 4983   2.603   1.528   4.129  2.4764  0.9186  0.8704
 1673TIP3    H2 4984   2.545   1.391   4.156 -1.3356  2.6002  1.9392
 1674TIP3   OH2 4985   2.083   5.843   4.884 -0.2144  0.1535  0.1204
 1674TIP3    H1 4986   2.085   5.914   4.819 -0.2765 -0.5448 -0.6629
 1674TIP3    H2 4987   2.130   5.771   4.842 -0.7062 -0.4843  0.6473
 1675TIP3   OH2 4988   2.025   0.934   4.286 -0.1070  0.1456 -0.6120
 1675TIP3    H1 4989   2.010   0.996   4.215 -0.1326 -1.2570 -1.8742
 1675TIP3    H2 4990   2.091   0.873   4.252 -0.8329 -1.1309  0.1536
 1676TIP3   OH2 4991   5.215   2.671   3.704 -0.2571  0.2188  0.3045
 1676TIP3    H1 4992   5.184   2.647   3.791  1.7769 -1.0767  0.7205
 1676TIP3    H2 4993   5.235   2.765   3.711 -0.3517  0.1817  1.1473
 1677TIP3   OH2 4994   5.938   4.588   0.292 -0.0459 -0.1004  0.0943
 1677TIP3    H1 4995   5.863   4.597   0.233 -0.1831  0.6580  0.3700
 1677TIP3    H2 4996   5.919   4.649   0.363  1.0104  0.3846 -0.0269
 1678TIP3   OH2 4997   5.589   5.186   1.580  0.2542  0.1555  0.4393
 1678TIP3    H1 4998   5.563   5.116   1.640  2.5056  0.0804  1.4193
 1678TIP3    H2 4999   5.661   5.230   1.624  0.1486  1.9039 -1.0197
 1679TIP3   OH2 5000   2.933   2.067   4.119  0.0961  0.0743 -0.1536
 1679TIP3    H1 5001   2.883   1.987   4.105 -1.0606  1.3139 -4.8096
 1679TIP3    H2 5002   3.020   2.048   4.084  0.0243  0.6317 -0.6461
 1680TIP3   OH2 5003   2.089   3.733   2.716  0.4509  0.1926 -0.5243
 1680TIP3    H1 5004   2.116   3.797   2.782  0.1583  0.6546 -0.8462
 1680TIP3    H2 5005   2.001   3.706   2.743  0.5835 -0.0906 -0.3760
 1681TIP3   OH2 5006   6.283   2.526   3.293 -0.8545 -0.0959  0.2344
 1681TIP3    H1 5007   6.342   2.600   3.305 -0.7725 -0.1855  0.4018
 1681TIP3    H2 5008   6.291   2.476   3.375 -1.7063  0.2715  0.5455
 1682TIP3   OH2 5009   0.920   1.243   5.016  0.0312  0.4865  0.2005
 1682TIP3    H1 5010   1.007   1.206   5.031 -0.5760 -0.6265  1.1605
 1682TIP3    H2 5011   0.931   1.337   5.029  1.2498  0.4589 -0.5076
 1683TIP3   OH2 5012   5.572   2.301   1.913  0.3709  0.2922  0.0736
 1683TIP3    H1 5013   5.593   2.213   1.881 -1.1017 -0.0349 -0.0489
 1683TIP3    H2 5014   5.594   2.359   1.841 -0.6975 -0.2075 -0.6702
 1684TIP3   OH2 5015   1.892   1.332   3.985 -0.2897  0.8307  0.1449
 1684TIP3    H1 5016   1.948   1.410   3.985  1.1036 -0.1061 -1.6215
 1684TIP3    H2 5017   1.853   1.331   3.897  1.0586 -1.3193 -0.5005
 1685TIP3   OH2 5018   1.599   1.568   3.213  0.0103  0.0408  0.3995
 1685TIP3    H1 5019   1.655   1.532   3.281  0.6777  0.1655 -0.0709
 1685TIP3    H2 5020   1.585   1.495   3.152 -0.4306 -0.0203  0.5699
 1686TIP3   OH2 5021   2.408   1.882   2.004  0.0272  0.0769  0.0270
 1686TIP3    H1 5022   2.364   1.967   2.015  2.1950  1.3475 -0.5303
 1686TIP3    H2 5023   2.342   1.826   1.964 -0.2982  2.7710 -3.7023
 1687TIP3   OH2 5024   3.623   0.341   4.187  0.3197  0.0159  0.2385
 1687TIP3    H1 5025   3.583   0.287   4.256 -0.4159  1.5452  1.0529
 1687TIP3    H2 5026   3.608   0.431   4.215 -0.2802  0.7041 -2.0794
 1688TIP3   OH2 5027   3.584   6.737   1.178 -0.6536  0.8014 -0.2016
 1688TIP3    H1 5028   3.541   6.652   1.182 -0.2707  0.6419  0.8361
 1688TIP3    H2 5029   3.513   6.800   1.167 -1.0290  0.4349  0.1286
 1689TIP3   OH2 5030   0.201   0.811   3.359 -0.0879 -0.2708 -0.3005
 1689TIP3    H1 5031   0.284   0.813   3.406 -0.0625 -2.2547 -0.2072
 1689TIP3    H2 5032   0.137   0.785   3.425 -0.8910  1.5991 -0.2777
 1690TIP3   OH2 5033   3.454   1.713   2.208 -0.3041 -0.0936 -0.7435
 1690TIP3    H1 5034   3.388   1.692   2.274  0.7727  3.1930  1.6185
 1690TIP3    H2 5035   3.438   1.804   2.185 -0.1237 -0.8430 -4.6390
 1691TIP3   OH2 5036   6.317   4.222   5.487  0.0120  0.5463  0.1215
 1691TIP3    H1 5037   6.359   4.172   5.417  0.1407  1.6239 -0.5915
 1691TIP3    H2 5038   6.349   4.312   5.475  0.5249  0.6498  1.9391
 1692TIP3   OH2 5039   3.102   4.918   0.182  0.4378  0.3587 -0.4197
 1692TIP3    H1 5040   3.049   4.983   0.227 -1.2737 -1.0714 -0.2464
 1692TIP3    H2 5041   3.137   4.964   0.106 -2.2041  1.0626 -1.3196
 1693TIP3   OH2 5042   5.533   0.391   0.035 -0.0462 -0.1548  0.6695
 1693TIP3    H1 5043   5.567   0.481   0.040 -1.8236  0.6554 -0.7506
 1693TIP3    H2 5044   5.590   0.348  -0.029  1.7084 -0.5421  2.3845
 1694TIP3   OH2 5045   5.873   3.626   1.326 -0.5542  0.2352  0.4443
 1694TIP3    H1 5046   5.938   3.669   1.381 -1.2841  2.5457 -0.3780
 1694TIP3    H2 5047   5.790   3.669   1.350 -1.6142 -1.7980  0.6283
 1695TIP3   OH2 5048   4.679   4.476   3.654  0.0159  0.5703 -0.4425
 1695TIP3    H1 5049   4.687   4.446   3.564 -1.2031 -0.6691 -0.1617
 1695TIP3    H2 5050   4.762   4.452   3.695 -0.1684 -0.6332 -0.7455
 1696TIP3   OH2 5051   1.255   6.110   5.541  0.7330 -0.2639  0.4174
 1696TIP3    H1 5052   1.346   6.124   5.512  0.0332  0.8640 -1.4087
 1696TIP3    H2 5053   1.207   6.090   5.461 -1.0910  1.7467  0.9037
 1697TIP3   OH2 5054   3.712   5.338   0.478 -0.2576 -0.3205  0.5496
 1697TIP3    H1 5055   3.803   5.362   0.460 -0.4794  0.3633  0.2948
 1697TIP3    H2 5056   3.672   5.324   0.392 -0.9159  1.4359  0.5241
 1698TIP3   OH2 5057   3.133   6.706   0.621 -0.6137  0.4108 -0.0907
 1698TIP3    H1 5058   3.179   6.787   0.643 -0.5195  0.1428  0.7084
 1698TIP3    H2 5059   3.136   6.702   0.525 -0.4114  1.2279 -0.1235
 1699TIP3   OH2 5060   3.724   1.216   0.423 -0.4309  0.2413 -0.6778
 1699TIP3    H1 5061   3.674   1.160   0.482  1.2248 -0.6111 -0.0212
 1699TIP3    H2 5062   3.805   1.234   0.471  0.2626  0.8677 -2.0414
 1700TIP3   OH2 5063   1.795   2.360   0.778 -0.0956  0.2002 -0.4272
 1700TIP3    H1 5064   1.719   2.387   0.830 -1.2669 -0.7943 -1.5620
 1700TIP3    H2 5065   1.835   2.289   0.829 -0.6677 -0.1136 -0.4071
 1701TIP3   OH2 5066   4.484   6.257   1.293  0.1417 -0.4462  0.9757
 1701TIP3    H1 5067   4.475   6.288   1.203  1.9542 -2.0914  0.1306
 1701TIP3    H2 5068   4.471   6.334   1.347  1.4569  1.1401 -0.8389
 1702TIP3   OH2 5069   4.054   2.309   2.665 -0.3035  0.4862  0.1749
 1702TIP3    H1 5070   4.110   2.367   2.614 -0.6100 -0.7118 -1.6507
 1702TIP3    H2 5071   4.008   2.367   2.725  0.1775  1.9899 -0.8395
 1703TIP3   OH2 5072   0.317   5.596   2.375 -0.2315 -0.4326 -0.3503
 1703TIP3    H1 5073   0.328   5.503   2.355 -1.3437 -0.7723  0.5271
 1703TIP3    H2 5074   0.236   5.620   2.330 -0.7335 -0.2704  0.6228
 1704TIP3   OH2 5075   3.384   3.802   5.342 -0.6542  0.1265 -0.1420
 1704TIP3    H1 5076   3.445   3.836   5.277 -0.3173  1.0998  0.6669
 1704TIP3    H2 5077   3.411   3.711   5.355  2.0064  1.0546  1.7152
 1705TIP3   OH2 5078   4.020   6.599   3.248 -0.6130  0.6599  0.4236
 1705TIP3    H1 5079   3.932   6.596   3.210 -1.1998  1.0548  1.7009
 1705TIP3    H2 5080   4.044   6.692   3.247  0.4694  0.4121 -1.3469
 1706TIP3   OH2 5081   0.213   6.041   3.548 -0.0940 -0.3460 -0.5814
 1706TIP3    H1 5082   0.169   6.071   3.468 -1.2488 -0.6978 -0.0969
 1706TIP3    H2 5083   0.156   6.069   3.619 -0.4086 -2.2285 -0.0192
 1707TIP3   OH2 5084   2.724   0.960   2.865 -0.4537 -0.0247  0.2518
 1707TIP3    H1 5085   2.775   1.037   2.840 -1.7518  0.4270 -1.1597
 1707TIP3    H2 5086   2.789   0.896   2.893  0.7383  1.1633  0.2850
 1708TIP3   OH2 5087   2.410   2.117   0.165 -0.3137  0.6367  0.4133
 1708TIP3    H1 5088   2.356   2.190   0.197 -0.7705  1.2708 -1.6423
 1708TIP3    H2 5089   2.443   2.147   0.080  2.1095 -0.3423  0.9299
 1709TIP3   OH2 5090   0.319   6.718   3.306 -0.1227 -0.3977  0.2477
 1709TIP3    H1 5091   0.321   6.781   3.378 -0.1831 -0.0669 -0.0354
 1709TIP3    H2 5092   0.230   6.723   3.272  0.5034  1.1213 -1.3026
 1710TIP3   OH2 5093   5.514   3.188   0.572 -0.0706 -0.5744  0.3196
 1710TIP3    H1 5094   5.521   3.093   0.569 -1.0816 -0.6557 -0.3584
 1710TIP3    H2 5095   5.553   3.218   0.490 -0.6629 -0.5000  0.0520
 1711TIP3   OH2 5096   4.321   3.335   2.944 -0.1571  0.3115  0.4368
 1711TIP3    H1 5097   4.383   3.267   2.971 -0.0849  0.0122 -0.4437
 1711TIP3    H2 5098   4.244   3.320   2.998 -0.3762 -0.8820 -0.1780
 1712TIP3   OH2 5099   0.500   2.605   5.164  0.5986  0.6149  0.1118
 1712TIP3    H1 5100   0.582   2.587   5.119  0.1336 -0.9308 -0.1602
 1712TIP3    H2 5101   0.517   2.579   5.255  0.4953  0.5540  0.1135
 1713TIP3   OH2 5102   1.304   5.619   5.081  0.6307 -0.0398 -0.5150
 1713TIP3    H1 5103   1.303   5.691   5.018  0.1822  0.7638  0.3793
 1713TIP3    H2 5104   1.393   5.617   5.116  1.0275 -0.8236 -1.5226
 1714TIP3   OH2 5105   3.154   3.534   2.365  0.1346  0.0074  0.3371
 1714TIP3    H1 5106   3.188   3.516   2.453  1.5036  0.9159  0.0215
 1714TIP3    H2 5107   3.189   3.621   2.343 -1.0189  0.2372 -0.7112
 1715TIP3   OH2 5108   6.087   5.819   1.879  0.2077 -0.1966  0.0295
 1715TIP3    H1 5109   6.130   5.892   1.835  2.1955 -1.0748  0.4056
 1715TIP3    H2 5110   6.080   5.751   1.813 -0.8738  0.0063 -0.0897
 1716TIP3   OH2 5111   1.167   0.872   0.679 -0.4326  0.2444  0.1170
 1716TIP3    H1 5112   1.194   0.881   0.770  0.3257  2.2487 -0.2583
 1716TIP3    H2 5113   1.234   0.817   0.639 -0.8646 -0.7933  0.7890
 1717TIP3   OH2 5114   1.032   2.978   2.456  0.3651 -0.3928  0.2268
 1717TIP3    H1 5115   1.064   3.063   2.426  0.5386 -0.4705  0.1958
 1717TIP3    H2 5116   1.062   2.916   2.391  1.4458 -0.6816  0.9811
 1718TIP3   OH2 5117   3.961   6.314   4.259 -0.7972 -0.0976 -0.2695
 1718TIP3    H1 5118   4.023   6.257   4.305  0.2564  0.4030 -1.0498
 1718TIP3    H2 5119   3.878   6.301   4.306  0.1603  0.1563  1.5637
 1719TIP3   OH2 5120   3.985   0.353   4.925  0.6296 -0.2588  0.1122
 1719TIP3    H1 5121   4.066   0.384   4.964  1.2387  0.0846 -1.3694
 1719TIP3    H2 5122   3.980   0.260   4.950  1.6089 -0.3483 -0.0014
 1720TIP3   OH2 5123   6.683   4.484   1.283  0.6755  0.4242 -0.3417
 1720TIP3    H1 5124   6.735   4.559   1.314  1.1255 -0.1070  0.2362
 1720TIP3    H2 5125   6.667   4.432   1.362  0.7583 -0.3164 -0.7976
 1721TIP3   OH2 5126  -0.001   6.551   3.416  0.0269 -0.6169  0.1041
 1721TIP3    H1 5127   0.010   6.460   3.389  1.3317 -0.8482  1.3162
 1721TIP3    H2 5128   0.023   6.602   3.338 -4.0079 -1.2044 -1.7980
 1722TIP3   OH2 5129   3.846   6.029   4.771 -0.3670  0.0022 -0.2314
 1722TIP3    H1 5130   3.925   6.064   4.813 -1.3471  1.5915  0.3843
 1722TIP3    H2 5131   3.845   5.936   4.796  1.2065 -0.0152 -0.1228
 1723TIP3   OH2 5132   0.721   1.742   2.760 -0.1799 -0.1554  0.0758
 1723TIP3    H1 5133   0.694   1.735   2.668 -2.4559 -0.4236  0.6878
 1723TIP3    H2 5134   0.721   1.651   2.791  1.0620 -0.1101  0.2414
 1724TIP3   OH2 5135   1.905   5.988   3.795  0.9476  0.4311  0.9010
 1724TIP3    H1 5136   1.825   6.028   3.762 -0.3938 -0.5990  2.6766
 1724TIP3    H2 5137   1.973   6.055   3.784  0.1980  0.8409 -1.9008
 1725TIP3   OH2 5138   0.496   6.243   0.568 -0.4621 -0.2544  0.1483
 1725TIP3    H1 5139   0.444   6.198   0.501 -0.2743  2.0793 -1.7345
 1725TIP3    H2 5140   0.578   6.264   0.523  0.9601 -1.3176  2.1428
 1726TIP3   OH2 5141   4.825   1.362   2.397  0.0234 -0.7494  0.1365
 1726TIP3    H1 5142   4.838   1.422   2.323 -0.6876 -1.6293 -0.7261
 1726TIP3    H2 5143   4.892   1.295   2.385 -0.1060 -0.9049  0.2829
 1727TIP3   OH2 5144   2.951   6.263   3.579  0.2664 -0.3712 -0.1845
 1727TIP3    H1 5145   2.961   6.180   3.626 -1.1157 -1.3623 -1.5094
 1727TIP3    H2 5146   2.896   6.316   3.636 -0.8194 -1.2995 -0.3228
 1728TIP3   OH2 5147   3.927   4.216   3.556  0.5239  0.1783  0.1637
 1728TIP3    H1 5148   4.021   4.230   3.563  0.3704  1.2627  0.1255
 1728TIP3    H2 5149   3.899   4.197   3.646  0.7126  0.2476  0.2372
 1729TIP3   OH2 5150   0.748   3.921   4.114  0.3087 -0.4316 -0.0836
 1729TIP3    H1 5151   0.696   3.925   4.194  0.0798  0.0895 -0.2535
 1729TIP3    H2 5152   0.696   3.867   4.054 -1.1995  1.9115 -1.0551
 1730TIP3   OH2 5153   5.860   3.886   3.219 -0.5687  0.0867  0.0137
 1730TIP3    H1 5154   5.812   3.863   3.299 -0.3082  1.7162  0.6728
 1730TIP3    H2 5155   5.927   3.949   3.248 -0.0077  0.1735 -1.3807
 1731TIP3   OH2 5156   1.070   0.935   4.109 -0.2868 -0.5010  0.4414
 1731TIP3    H1 5157   1.131   0.966   4.176  1.3613  0.6026 -1.4239
 1731TIP3    H2 5158   1.031   1.015   4.073  2.0885 -0.5517 -2.7172
 1732TIP3   OH2 5159   0.233   5.049   0.277 -0.2165 -0.0907 -0.0808
 1732TIP3    H1 5160   0.265   5.010   0.196  0.7753 -1.7624  1.0666
 1732TIP3    H2 5161   0.307   5.045   0.337 -1.0538  0.7191  1.0575
 1733TIP3   OH2 5162   2.959   0.829   0.651 -0.4548  0.0223  0.0593
 1733TIP3    H1 5163   3.010   0.909   0.637  1.5068 -1.0216  0.7875
 1733TIP3    H2 5164   2.983   0.773   0.577 -1.5633 -0.0261 -0.2730
 1734TIP3   OH2 5165   4.605   5.585   2.123  0.1558 -0.1037  0.5592
 1734TIP3    H1 5166   4.509   5.587   2.123  0.1567 -0.0740  0.9526
 1734TIP3    H2 5167   4.631   5.675   2.139  0.2435 -0.3175  1.6943
 1735TIP3   OH2 5168   3.865   6.630   1.980  0.2479  0.1882  0.2097
 1735TIP3    H1 5169   3.928   6.562   2.003  0.5359  0.5603  0.5326
 1735TIP3    H2 5170   3.796   6.584   1.931  0.5680 -0.2861  0.2024
 1736TIP3   OH2 5171   6.511   5.502   0.251 -0.0123  0.2679 -0.5811
 1736TIP3    H1 5172   6.555   5.580   0.282  1.0961 -0.6831  0.3136
 1736TIP3    H2 5173   6.418   5.517   0.269  0.1571  1.4623 -0.6617
 1737TIP3   OH2 5174   0.484   2.786   0.613  0.1094 -0.1145 -0.0298
 1737TIP3    H1 5175   0.391   2.775   0.634  0.0148  0.1201 -0.3135
 1737TIP3    H2 5176   0.485   2.851   0.543  0.4551 -0.5115 -0.3930
 1738TIP3   OH2 5177   0.146   6.082   0.942  0.1999  0.1679 -0.2515
 1738TIP3    H1 5178   0.079   6.015   0.955  1.0898 -0.7099 -0.0584
 1738TIP3    H2 5179   0.109   6.141   0.876 -1.0400  0.1024  0.3570
 1739TIP3   OH2 5180   0.901   2.091   1.071 -0.0740  0.2299 -0.2342
 1739TIP3    H1 5181   0.822   2.104   1.019 -0.2558 -0.1167 -0.0482
 1739TIP3    H2 5182   0.922   1.998   1.060  0.2780  0.3103 -0.2429
 1740TIP3   OH2 5183   5.763   6.393   3.974 -0.5605  0.7397 -0.1970
 1740TIP3    H1 5184   5.803   6.445   3.904 -0.3370  0.9552  0.0876
 1740TIP3    H2 5185   5.834   6.379   4.036 -1.1878  2.0566  0.8534
 1741TIP3   OH2 5186   0.664   5.385   4.502 -0.1703  0.4003 -0.8104
 1741TIP3    H1 5187   0.610   5.413   4.576 -0.9315  0.1107 -1.2432
 1741TIP3    H2 5188   0.625   5.427   4.426  0.2182  0.1816 -1.1362
 1742TIP3   OH2 5189   2.099   0.575   4.254  0.3204 -0.0048  0.3794
 1742TIP3    H1 5190   2.150   0.626   4.190 -0.2324 -0.4639 -0.4521
 1742TIP3    H2 5191   2.157   0.504   4.280 -0.1816 -1.1012 -1.3124
 1743TIP3   OH2 5192   5.547   3.052   2.831  0.1962 -0.5418  0.2840
 1743TIP3    H1 5193   5.517   2.979   2.777  1.0368 -0.8103  0.1678
 1743TIP3    H2 5194   5.477   3.117   2.823 -0.0742 -0.9050 -0.4750
 1744TIP3   OH2 5195   7.039   4.713   3.280 -0.2413  0.0858  0.4260
 1744TIP3    H1 5196   7.079   4.776   3.339  0.2519 -1.0094  1.3078
 1744TIP3    H2 5197   7.026   4.635   3.334  3.1171 -2.1153 -1.5489
 1745TIP3   OH2 5198   5.387   0.049   5.638 -0.6482 -0.1207 -0.3284
 1745TIP3    H1 5199   5.299   0.086   5.644 -1.8248 -2.7478  0.0898
 1745TIP3    H2 5200   5.406   0.049   5.544 -1.9206 -1.2107 -0.6223
 1746TIP3   OH2 5201   6.845   6.300   4.657  0.0543  0.5884  0.2142
 1746TIP3    H1 5202   6.855   6.344   4.741 -0.8149  0.8561  0.1889
 1746TIP3    H2 5203   6.911   6.231   4.658 -0.5509  0.0038  1.5012
 1747TIP3   OH2 5204   2.061   2.763   5.477  0.3079 -0.1025 -0.4576
 1747TIP3    H1 5205   2.018   2.847   5.494  0.6866  0.0635 -0.2831
 1747TIP3    H2 5206   2.155   2.784   5.481  0.4533 -0.8433  1.2959
 1748TIP3   OH2 5207   1.422   3.116   0.817 -0.6039 -0.2569 -0.7027
 1748TIP3    H1 5208   1.498   3.091   0.869 -0.1021 -0.3330 -1.4469
 1748TIP3    H2 5209   1.360   3.153   0.880 -0.3292 -1.0403  0.0524
 1749TIP3   OH2 5210   5.165   3.553   1.388 -0.3720 -0.0235 -0.1170
 1749TIP3    H1 5211   5.131   3.618   1.327 -0.5445  0.5385  0.5610
 1749TIP3    H2 5212   5.092   3.493   1.403 -0.2129 -0.3810 -0.7454
 1750TIP3   OH2 5213   6.010   0.367   1.150  0.0526  0.3047 -0.3062
 1750TIP3    H1 5214   5.986   0.421   1.075 -1.6235 -0.2633 -0.2309
 1750TIP3    H2 5215   6.064   0.297   1.114  0.5500  0.8910 -0.7189
 1751TIP3   OH2 5216   6.682   3.877   5.121 -0.4072  0.3532 -0.1744
 1751TIP3    H1 5217   6.656   3.789   5.093  0.3811  0.2379 -0.5384
 1751TIP3    H2 5218   6.759   3.863   5.175 -0.2569  0.8316 -0.2638
 1752TIP3   OH2 5219   6.471   6.640   4.030 -0.2819 -0.1655 -0.4318
 1752TIP3    H1 5220   6.423   6.660   4.110  0.1827  0.5731 -0.3224
 1752TIP3    H2 5221   6.485   6.545   4.033 -1.8438 -0.4144 -0.5487
 1753TIP3   OH2 5222   2.134   5.887   0.258  0.1638  0.1455  0.4556
 1753TIP3    H1 5223   2.201   5.918   0.197  2.9065 -4.7791  0.4479
 1753TIP3    H2 5224   2.060   5.865   0.202 -0.7320  3.3575  0.1651
 1754TIP3   OH2 5225   4.200   3.102   0.215  0.2749  0.4542  0.0759
 1754TIP3    H1 5226   4.263   3.164   0.179  2.0953 -1.3407  0.0112
 1754TIP3    H2 5227   4.210   3.023   0.162 -3.2225  0.5394 -1.0025
 1755TIP3   OH2 5228   6.869   5.021   5.393  0.3488  0.1976  0.0960
 1755TIP3    H1 5229   6.957   4.982   5.397  0.2448  0.0627  1.3798
 1755TIP3    H2 5230   6.864   5.076   5.471 -1.3895 -1.2446  1.0733
 1756TIP3   OH2 5231   0.851   1.658   4.757 -0.5457 -0.3911 -0.8296
 1756TIP3    H1 5232   0.758   1.650   4.778 -0.5470 -1.3279 -1.1472
 1756TIP3    H2 5233   0.895   1.643   4.841 -0.6744 -0.0464 -0.6988
 1757TIP3   OH2 5234   7.147   3.584   5.387 -0.8160 -0.2348  0.3736
 1757TIP3    H1 5235   7.146   3.666   5.436 -0.3443 -0.1877  0.3119
 1757TIP3    H2 5236   7.064   3.542   5.409 -0.4145 -0.4310  1.5900
 1758TIP3   OH2 5237   4.483   5.349   2.967 -0.0873 -0.2710  0.1571
 1758TIP3    H1 5238   4.412   5.315   2.912 -1.3894  3.1565 -0.5347
 1758TIP3    H2 5239   4.542   5.394   2.906  1.6841 -1.3813  0.9678
 1759TIP3   OH2 5240   5.638   2.110   2.451  0.2465 -0.4907  0.3503
 1759TIP3    H1 5241   5.622   2.067   2.368 -0.2526  0.0790  0.1367
 1759TIP3    H2 5242   5.556   2.156   2.470  0.9214  0.8084  0.2841
 1760TIP3   OH2 5243   5.600   3.320   1.449 -0.3610 -0.1262  0.0633
 1760TIP3    H1 5244   5.547   3.245   1.475 -0.6748 -0.2131 -0.7865
 1760TIP3    H2 5245   5.541   3.395   1.458 -0.9328 -0.3221 -1.6909
 1761TIP3   OH2 5246   5.962   0.565   0.696  0.3618 -0.1835 -0.1263
 1761TIP3    H1 5247   5.876   0.590   0.663  0.2924 -0.0954  0.1231
 1761TIP3    H2 5248   6.024   0.608   0.636  0.2451 -1.7553 -1.4614
 1762TIP3   OH2 5249   2.962   0.724   5.234 -0.1806  0.4264  0.5332
 1762TIP3    H1 5250   3.003   0.683   5.158 -1.2626  0.1191  0.0937
 1762TIP3    H2 5251   3.033   0.773   5.276  0.0694  2.1780 -1.7222
 1763TIP3   OH2 5252   2.456   4.860   2.075 -0.3839 -0.0714 -0.1735
 1763TIP3    H1 5253   2.410   4.888   1.996  0.1007 -0.9412 -0.7797
 1763TIP3    H2 5254   2.389   4.861   2.144 -1.3847 -1.4901 -1.0680
 1764TIP3   OH2 5255   7.163   1.666   0.066 -0.1933 -0.0617 -0.2331
 1764TIP3    H1 5256   7.153   1.747   0.016  0.4012  0.9611  1.2173
 1764TIP3    H2 5257   7.103   1.675   0.140  0.4466 -0.5920  0.3704
 1765TIP3   OH2 5258   0.621   4.270   3.478  0.0127 -0.7593  0.2399
 1765TIP3    H1 5259   0.629   4.298   3.569 -1.2281  1.2615 -0.1812
 1765TIP3    H2 5260   0.711   4.257   3.448  0.6840  1.8737  0.8624
 1766TIP3   OH2 5261   0.478   5.003   1.587  0.0851  0.7413 -0.5167
 1766TIP3    H1 5262   0.428   4.949   1.526 -0.6757  0.6610  0.1735
 1766TIP3    H2 5263   0.536   4.940   1.631 -1.1946  0.3818  0.6870
 1767TIP3   OH2 5264   6.565   3.665   2.174 -0.0540 -1.0277 -0.1475
 1767TIP3    H1 5265   6.476   3.671   2.208  0.1461  0.5858  0.1896
 1767TIP3    H2 5266   6.620   3.694   2.247  0.7774 -2.2240 -0.2714
 1768TIP3   OH2 5267   2.500   5.239   4.663  0.5916  0.5604  0.4834
 1768TIP3    H1 5268   2.549   5.157   4.669  0.0352  0.2854  1.3543
 1768TIP3    H2 5269   2.470   5.256   4.752 -1.5850  0.2811 -0.1493
 1769TIP3   OH2 5270   3.832   3.426   5.483 -0.4003 -0.1596  0.0624
 1769TIP3    H1 5271   3.922   3.451   5.505 -0.0312  0.5687 -2.0576
 1769TIP3    H2 5272   3.825   3.335   5.513  0.8442 -0.0547  0.7601
 1770TIP3   OH2 5273   0.037   4.785   4.623  0.6956 -0.1212 -0.2843
 1770TIP3    H1 5274   0.085   4.764   4.542  2.2767  0.6531  0.3938
 1770TIP3    H2 5275   0.106   4.794   4.689 -0.4961  0.1693  0.9585
 1771TIP3   OH2 5276   4.845   0.280   2.275 -0.5578 -0.3351  0.0853
 1771TIP3    H1 5277   4.783   0.345   2.307 -0.5738 -0.8887  1.2302
 1771TIP3    H2 5278   4.915   0.279   2.341  0.8531  0.4928 -1.3155
 1772TIP3   OH2 5279   2.758   5.138   1.876  0.8877 -0.4786 -0.1813
 1772TIP3    H1 5280   2.710   5.061   1.846  0.2797  0.1849 -0.9719
 1772TIP3    H2 5281   2.821   5.157   1.806  0.0027  0.6058 -0.7326
 1773TIP3   OH2 5282   4.763  -0.019   2.316  0.2959 -0.2783 -0.0470
 1773TIP3    H1 5283   4.806   0.046   2.260  1.6190  0.4274  1.7087
 1773TIP3    H2 5284   4.675   0.016   2.329  0.9501  1.1495  0.7822
 1774TIP3   OH2 5285   1.848   1.351   3.712 -0.6105 -0.4617 -0.2137
 1774TIP3    H1 5286   1.816   1.293   3.643  1.2087 -0.9082 -0.7234
 1774TIP3    H2 5287   1.834   1.439   3.677  0.1440 -0.6815 -1.0948
 1775TIP3   OH2 5288   0.512   4.326   3.087 -0.4437  0.4565 -0.0806
 1775TIP3    H1 5289   0.599   4.292   3.069 -0.7693 -0.0127 -0.7812
 1775TIP3    H2 5290   0.524   4.382   3.164  0.3917  0.0607  0.0845
 1776TIP3   OH2 5291   1.126   2.319   1.612 -0.0135 -0.6265 -0.4290
 1776TIP3    H1 5292   1.095   2.230   1.597  0.8759 -0.9577 -0.3615
 1776TIP3    H2 5293   1.197   2.330   1.549  1.4498 -0.8140  1.1137
 1777TIP3   OH2 5294   3.034   2.370   0.737 -0.4315 -0.2297 -0.0076
 1777TIP3    H1 5295   3.033   2.386   0.643 -0.3710 -2.0067 -0.3411
 1777TIP3    H2 5296   3.066   2.452   0.775 -0.5721  0.5533 -1.5104
 1778TIP3   OH2 5297   6.407   3.000   5.088  0.0737 -0.7312  0.5249
 1778TIP3    H1 5298   6.334   2.948   5.054 -0.7683  0.5878  0.2469
 1778TIP3    H2 5299   6.455   2.939   5.145 -1.5558 -1.4838  1.1623
 1779TIP3   OH2 5300   5.299   1.140   4.564 -0.2518  0.0077  0.6767
 1779TIP3    H1 5301   5.333   1.200   4.630 -0.5810 -1.1355  1.9474
 1779TIP3    H2 5302   5.205   1.156   4.564 -0.4696 -1.0791  1.6947
 1780TIP3   OH2 5303   2.673   6.194   1.527  0.1041 -0.3566 -0.2888
 1780TIP3    H1 5304   2.748   6.154   1.484 -0.5239  1.3985 -3.3422
 1780TIP3    H2 5305   2.611   6.211   1.456 -0.9360  3.1107  1.2228
 1781TIP3   OH2 5306   0.694   5.091   0.626  0.5558  0.1320  0.0426
 1781TIP3    H1 5307   0.738   5.012   0.656 -0.1631  0.4221  1.9814
 1781TIP3    H2 5308   0.703   5.152   0.699 -1.3955  0.8490 -0.2701
 1782TIP3   OH2 5309   2.263   3.480   1.585  0.3135 -0.0468  0.7058
 1782TIP3    H1 5310   2.206   3.443   1.518  1.7161 -1.7697  0.3982
 1782TIP3    H2 5311   2.230   3.570   1.597 -0.0642  0.3003 -2.1577
 1783TIP3   OH2 5312   6.784   1.122   2.041  0.8630  0.3509 -0.1896
 1783TIP3    H1 5313   6.772   1.217   2.037  0.1721  0.2419 -1.0278
 1783TIP3    H2 5314   6.861   1.110   2.096  0.2736  1.3407  0.9148
 1784TIP3   OH2 5315   4.462   2.018   4.771  0.2086  0.1233 -0.2077
 1784TIP3    H1 5316   4.517   1.977   4.704  1.4988 -0.0115  0.9034
 1784TIP3    H2 5317   4.431   1.945   4.824 -1.3364  0.1671 -0.9999
 1785TIP3   OH2 5318   0.623   3.631   2.706 -0.3705 -0.4139 -0.1001
 1785TIP3    H1 5319   0.694   3.588   2.658 -0.3644  0.1844 -0.6489
 1785TIP3    H2 5320   0.558   3.563   2.718 -1.0661 -0.2358 -2.3662
 1786TIP3   OH2 5321   4.721   3.656   4.665  0.3615 -0.1349 -0.0819
 1786TIP3    H1 5322   4.739   3.715   4.592 -0.1799 -0.7188 -0.6994
 1786TIP3    H2 5323   4.790   3.590   4.660  0.4523 -0.0528  0.0726
 1787TIP3   OH2 5324   0.218   3.541   4.228  0.0329 -0.3028 -0.5422
 1787TIP3    H1 5325   0.288   3.506   4.173  1.9518  0.4307  1.3098
 1787TIP3    H2 5326   0.224   3.636   4.216  0.5649 -0.1231  0.9743
 1788TIP3   OH2 5327   3.411   2.460   5.865  0.2197 -0.2013  0.1394
 1788TIP3    H1 5328   3.440   2.541   5.824 -1.1778  0.2162 -0.0714
 1788TIP3    H2 5329   3.437   2.469   5.957 -0.3489  0.6892  0.2137
 1789TIP3   OH2 5330   6.408   0.800   2.123 -1.3843 -0.5007  0.3963
 1789TIP3    H1 5331   6.385   0.829   2.212  0.9063  0.1050  0.8535
 1789TIP3    H2 5332   6.416   0.882   2.073  2.5262 -0.2963  1.0404
 1790TIP3   OH2 5333   4.623   4.608   0.419 -0.2939 -0.3778 -0.1294
 1790TIP3    H1 5334   4.610   4.659   0.339  0.1133  1.1228  0.7060
 1790TIP3    H2 5335   4.535   4.596   0.455 -0.4532 -0.8478 -0.6705
 1791TIP3   OH2 5336   6.589   1.249   5.603 -0.2587  0.5388 -0.1074
 1791TIP3    H1 5337   6.624   1.335   5.625 -0.6135  0.1528  2.2494
 1791TIP3    H2 5338   6.495   1.257   5.615 -0.3240 -0.0896 -0.1274
 1792TIP3   OH2 5339   1.086   6.735   1.508  0.6736  0.2125  0.4902
 1792TIP3    H1 5340   1.120   6.684   1.582  0.4196 -2.7324 -1.2914
 1792TIP3    H2 5341   1.164   6.763   1.460  0.8769  2.6695  2.0466
 1793TIP3   OH2 5342   4.496   0.682   2.847  0.5695 -0.3806  0.5787
 1793TIP3    H1 5343   4.424   0.735   2.812  1.1232  0.5942  0.8943
 1793TIP3    H2 5344   4.488   0.690   2.942  1.8430  0.8044  0.6210
 1794TIP3   OH2 5345   3.476   6.640   3.203 -0.5962 -0.1058 -0.2392
 1794TIP3    H1 5346   3.508   6.585   3.275 -2.2031 -0.9492 -0.1241
 1794TIP3    H2 5347   3.423   6.707   3.246  0.2597  0.7602 -0.4926
 1795TIP3   OH2 5348   4.923   1.720   3.178  0.1981  0.2311 -0.3561
 1795TIP3    H1 5349   4.972   1.802   3.175  0.3594  0.1496  0.0144
 1795TIP3    H2 5350   4.978   1.661   3.229  0.2385 -0.2151 -0.9152
 1796TIP3   OH2 5351   2.484   5.868   2.426  0.7628 -0.1196  0.9229
 1796TIP3    H1 5352   2.541   5.792   2.434  2.5393  0.9546 -0.8828
 1796TIP3    H2 5353   2.499   5.901   2.338  0.3283  2.5368  1.7571
 1797TIP3   OH2 5354   0.113   1.063   1.938 -0.1380  0.1898  0.4603
 1797TIP3    H1 5355   0.028   1.061   1.895  0.2893  2.1715 -0.6131
 1797TIP3    H2 5356   0.169   1.008   1.884  0.1488  1.9000 -1.1018
 1798TIP3   OH2 5357   1.921   5.084   5.067 -0.2437 -0.1793 -0.4033
 1798TIP3    H1 5358   1.982   5.155   5.085  0.9708 -1.4788  0.8425
 1798TIP3    H2 5359   1.871   5.114   4.991  1.2508  1.3685 -0.8394
 1799TIP3   OH2 5360   4.922   5.111   3.054  0.2799 -0.0452  0.3761
 1799TIP3    H1 5361   4.858   5.178   3.076 -0.8646 -0.8388 -0.4671
 1799TIP3    H2 5362   4.974   5.150   2.984 -1.3900 -0.5743 -1.2283
 1800TIP3   OH2 5363   4.205   5.438   4.892 -0.1815  0.4389  0.2004
 1800TIP3    H1 5364   4.150   5.371   4.932  1.2644 -1.8820 -1.5075
 1800TIP3    H2 5365   4.272   5.457   4.957  1.2777 -2.2063 -0.4125
 1801TIP3   OH2 5366   0.105   2.000   0.613  0.7373 -0.2621  0.4241
 1801TIP3    H1 5367   0.134   2.088   0.638 -1.1295  0.3065  0.7739
 1801TIP3    H2 5368   0.173   1.968   0.554  1.2791  1.5871 -0.0339
 1802TIP3   OH2 5369   5.274   3.230   3.646  0.0705  0.1108 -0.5271
 1802TIP3    H1 5370   5.179   3.226   3.646  0.0346  0.8110 -0.0634
 1802TIP3    H2 5371   5.296   3.292   3.576  0.1448  0.6655 -0.0162
 1803TIP3   OH2 5372   1.949   0.757   3.319  0.0252 -0.3397  0.3557
 1803TIP3    H1 5373   1.923   0.844   3.287 -1.2742 -0.7340  0.2879
 1803TIP3    H2 5374   2.000   0.720   3.247 -0.3107 -0.0393 -0.0439
 1804TIP3   OH2 5375   2.823   1.131   3.174  0.3225  0.7423 -0.0032
 1804TIP3    H1 5376   2.826   1.201   3.109  1.2805  1.7601  1.0864
 1804TIP3    H2 5377   2.814   1.176   3.258 -0.6074 -0.5325  0.6146
 1805TIP3   OH2 5378   5.722   0.632   0.370  0.5037  0.1918 -0.2287
 1805TIP3    H1 5379   5.745   0.542   0.345  2.1874  0.4283  0.3372
 1805TIP3    H2 5380   5.647   0.654   0.314 -1.7892 -2.5043  1.5516
 1806TIP3   OH2 5381   3.707   3.258   2.260 -0.3770  0.1017  0.0897
 1806TIP3    H1 5382   3.718   3.351   2.243 -1.4585  0.3592  0.7006
 1806TIP3    H2 5383   3.792   3.229   2.293 -0.3124  1.0922  0.8314
 1807TIP3   OH2 5384   4.502   3.313   2.452 -0.2641 -0.1987  0.4905
 1807TIP3    H1 5385   4.502   3.390   2.510  1.6695 -0.5508  1.0223
 1807TIP3    H2 5386   4.531   3.347   2.368 -1.3583 -0.0104  0.1735
 1808TIP3   OH2 5387   1.582   3.615   4.423 -0.0424  0.5150 -0.4929
 1808TIP3    H1 5388   1.676   3.629   4.436 -0.1064  0.8598 -0.3820
 1808TIP3    H2 5389   1.576   3.537   4.369  0.3128  0.5374 -0.5651
 1809TIP3   OH2 5390   0.800   4.704   1.681 -0.0796  0.2958 -0.3393
 1809TIP3    H1 5391   0.788   4.711   1.586  0.1934 -1.2820 -0.5155
 1809TIP3    H2 5392   0.739   4.635   1.708  1.5105 -0.9295  0.2464
 1810TIP3   OH2 5393   4.592   0.289   2.543  0.2439  0.4830 -0.3773
 1810TIP3    H1 5394   4.517   0.307   2.600  1.0051  1.6435  0.2823
 1810TIP3    H2 5395   4.590   0.360   2.478  0.8075  0.5446 -0.3252
 1811TIP3   OH2 5396   1.660   3.388   4.631  0.5966  0.5372 -0.0123
 1811TIP3    H1 5397   1.668   3.391   4.536 -2.8415  3.6224 -0.4348
 1811TIP3    H2 5398   1.579   3.340   4.647  0.1291  1.6732  1.1934
 1812TIP3   OH2 5399   2.298   2.602   1.304  0.0815 -0.3048  0.3453
 1812TIP3    H1 5400   2.357   2.533   1.273  0.7265  0.4420 -0.0966
 1812TIP3    H2 5401   2.344   2.640   1.380  0.1894  0.2949 -0.0154
 1813TIP3   OH2 5402   6.899   2.877   1.151  0.2308 -0.1618  0.3129
 1813TIP3    H1 5403   6.904   2.953   1.209  0.7212 -2.0673  2.9594
 1813TIP3    H2 5404   6.808   2.876   1.122  0.0944  1.1376  0.6074
 1814TIP3   OH2 5405   1.468   5.542   5.750  0.0477  0.0185 -0.3244
 1814TIP3    H1 5406   1.393   5.517   5.804  1.1114  1.4328  2.0013
 1814TIP3    H2 5407   1.510   5.612   5.800  1.6744  0.7851 -2.6254
 1815TIP3   OH2 5408   4.822   4.820   2.226  0.9317 -0.3301 -0.4853
 1815TIP3    H1 5409   4.850   4.736   2.189 -1.2602 -1.0171 -0.7525
 1815TIP3    H2 5410   4.809   4.802   2.319 -3.3518 -1.5772 -1.0916
 1816TIP3   OH2 5411   6.000   1.569   3.907 -0.1849 -0.0041  0.1964
 1816TIP3    H1 5412   5.928   1.524   3.862  0.4308 -1.1245  0.2851
 1816TIP3    H2 5413   6.048   1.499   3.952  0.4784  0.8238  0.8197
 1817TIP3   OH2 5414   5.224   0.733   2.551 -0.7441  0.4308  0.2104
 1817TIP3    H1 5415   5.314   0.743   2.521 -0.1990  0.9066  1.8969
 1817TIP3    H2 5416   5.171   0.754   2.474  0.5691 -0.0255 -0.8586
 1818TIP3   OH2 5417   5.275   6.111   4.161 -0.7516 -0.1937  0.2741
 1818TIP3    H1 5418   5.348   6.052   4.175 -0.5650  0.1378  0.7471
 1818TIP3    H2 5419   5.199   6.054   4.152 -0.6619 -0.4907  1.2749
 1819TIP3   OH2 5420   0.357   1.817   2.904  0.1749 -0.3814 -0.7885
 1819TIP3    H1 5421   0.406   1.876   2.846  0.4942 -0.8518 -1.0039
 1819TIP3    H2 5422   0.272   1.859   2.915  0.6504  0.4803 -0.3507
 1820TIP3   OH2 5423   1.395   0.503   2.833 -0.0181 -0.9513 -0.6177
 1820TIP3    H1 5424   1.371   0.511   2.740  2.0820 -1.3995 -1.2579
 1820TIP3    H2 5425   1.491   0.509   2.833 -0.0049 -0.4917  1.5916
 1821TIP3   OH2 5426   3.268   5.420   4.111  0.1585 -0.5807 -0.0168
 1821TIP3    H1 5427   3.345   5.478   4.109  1.3575 -2.0584  0.9386
 1821TIP3    H2 5428   3.299   5.338   4.073 -0.9779 -1.1849  0.3157
 1822TIP3   OH2 5429   6.708   0.024   3.347  0.1017  0.4894  0.2614
 1822TIP3    H1 5430   6.771   0.077   3.396  0.3269  0.1988  0.2899
 1822TIP3    H2 5431   6.627   0.031   3.397  0.3674  0.0820  0.7559
 1823TIP3   OH2 5432   0.676   0.861   5.525 -0.0760 -0.3198 -0.0424
 1823TIP3    H1 5433   0.587   0.840   5.554 -0.3881 -0.3365 -0.9760
 1823TIP3    H2 5434   0.713   0.777   5.498  0.4706 -0.4186  0.9569
 1824TIP3   OH2 5435   4.973   2.302   5.493  0.5225  0.6833 -0.1507
 1824TIP3    H1 5436   4.985   2.226   5.436  1.6439  1.0075 -0.3645
 1824TIP3    H2 5437   4.878   2.304   5.509  0.0185  1.1056 -2.7348
 1825TIP3   OH2 5438   5.268   2.056   2.343 -0.3160  0.0927  0.0073
 1825TIP3    H1 5439   5.264   1.977   2.288 -1.0303 -0.2730  0.5566
 1825TIP3    H2 5440   5.335   2.110   2.302 -1.6090  0.3521 -1.9251
 1826TIP3   OH2 5441   6.760   2.289   2.661 -0.1805 -0.1869  0.4378
 1826TIP3    H1 5442   6.806   2.323   2.584 -1.2360 -0.5672 -0.3685
 1826TIP3    H2 5443   6.824   2.232   2.704  0.6322  0.5313  0.2233
 1827TIP3   OH2 5444   0.626   0.150   3.228 -0.5176 -0.8853 -0.0168
 1827TIP3    H1 5445   0.671   0.091   3.168  1.2673  0.6293 -0.2463
 1827TIP3    H2 5446   0.689   0.163   3.300 -0.6967  1.0344 -0.1745
 1828TIP3   OH2 5447   4.625   3.361   2.901  0.1804 -0.4555 -0.2591
 1828TIP3    H1 5448   4.561   3.291   2.912 -0.9788  0.5226 -0.6071
 1828TIP3    H2 5449   4.628   3.404   2.986 -1.4379  0.9759 -0.8762
 1829TIP3   OH2 5450   4.226   0.636   0.517  0.6912  0.5582 -0.1986
 1829TIP3    H1 5451   4.278   0.710   0.548 -0.0967  1.3782 -0.7849
 1829TIP3    H2 5452   4.183   0.603   0.596  1.5810  0.2809  0.1792
 1830TIP3   OH2 5453   6.383   2.751   2.044  0.6966  0.3749 -0.3551
 1830TIP3    H1 5454   6.429   2.832   2.023 -0.5582  1.3232  0.3675
 1830TIP3    H2 5455   6.293   2.779   2.064 -0.4747 -1.4722 -2.5558
 1831TIP3   OH2 5456   4.120   1.248   5.059  0.0636 -0.2432 -0.1843
 1831TIP3    H1 5457   4.145   1.170   5.010  0.1128 -0.2255 -0.1872
 1831TIP3    H2 5458   4.051   1.218   5.118 -1.6995  0.1926 -1.9072
 1832TIP3   OH2 5459   3.389   1.954   1.573 -0.2289 -0.3175 -0.2182
 1832TIP3    H1 5460   3.446   1.903   1.631 -0.9353 -0.2532  0.5527
 1832TIP3    H2 5461   3.433   2.039   1.565 -0.4312 -0.1069  0.7496
 1833TIP3   OH2 5462   6.479   2.415   5.234 -0.2343 -0.2841  0.2783
 1833TIP3    H1 5463   6.489   2.367   5.317  1.3449 -1.8490 -0.7536
 1833TIP3    H2 5464   6.554   2.473   5.230  0.2136 -0.8937 -0.4599
 1834TIP3   OH2 5465   3.454   0.775   2.682  0.1659  0.0697  0.5832
 1834TIP3    H1 5466   3.468   0.798   2.774 -1.1403 -0.2046  0.8678
 1834TIP3    H2 5467   3.428   0.683   2.684  3.5943 -1.0931 -0.4052
 1835TIP3   OH2 5468   3.253   5.473   0.563 -0.2994 -0.0363 -0.1059
 1835TIP3    H1 5469   3.327   5.492   0.620 -0.0232  1.2681 -0.8553
 1835TIP3    H2 5470   3.250   5.378   0.557  0.9738 -0.1186  0.3696
 1836TIP3   OH2 5471   6.989   2.222   4.433 -0.2788  0.2584 -0.0496
 1836TIP3    H1 5472   7.058   2.279   4.398 -0.4500  0.6246  0.1976
 1836TIP3    H2 5473   7.004   2.137   4.392 -0.2164  0.5691 -0.6757
 1837TIP3   OH2 5474   7.168   0.925   4.157 -0.1707 -0.2245 -0.3105
 1837TIP3    H1 5475   7.177   1.017   4.182  0.8723 -0.4850  0.3569
 1837TIP3    H2 5476   7.258   0.894   4.146 -0.5186 -1.0816 -0.8554
 1838TIP3   OH2 5477   3.760   1.360   4.870  0.4434 -0.0824  0.0443
 1838TIP3    H1 5478   3.778   1.278   4.917 -2.9406 -0.6764  0.5637
 1838TIP3    H2 5479   3.728   1.420   4.937 -0.0872  0.6292 -0.8287
 1839TIP3   OH2 5480   5.622   0.416   5.652  0.0240 -0.1418 -0.4113
 1839TIP3    H1 5481   5.642   0.323   5.668  0.2018 -0.1069 -0.4312
 1839TIP3    H2 5482   5.530   0.425   5.675  0.3798  0.0051  1.0045
 1840TIP3   OH2 5483   1.892   6.689   5.387  0.4645 -0.2855  0.3659
 1840TIP3    H1 5484   1.922   6.599   5.400 -0.0909 -0.3807  1.0315
 1840TIP3    H2 5485   1.953   6.725   5.322  1.3194 -0.8245  0.8416
 1841TIP3   OH2 5486   3.493   1.569   4.503  0.5357 -0.5075  0.0902
 1841TIP3    H1 5487   3.573   1.593   4.456  0.0449  1.3833  0.1282
 1841TIP3    H2 5488   3.510   1.482   4.537  1.9088 -0.8582 -1.3730
 1842TIP3   OH2 5489   5.374   2.101   0.841  0.1835  0.1425  0.0975
 1842TIP3    H1 5490   5.280   2.102   0.861  0.1287  0.6364 -0.1725
 1842TIP3    H2 5491   5.416   2.083   0.925 -0.0414  2.1881  0.6968
 1843TIP3   OH2 5492   1.735   5.887   0.813  0.3307 -0.4102 -0.1903
 1843TIP3    H1 5493   1.790   5.809   0.817  2.9704  1.3579  2.2638
 1843TIP3    H2 5494   1.709   5.903   0.904 -0.0288  1.5903 -0.5929
 1844TIP3   OH2 5495   4.943   4.532   4.465 -0.1873  0.2405  0.3386
 1844TIP3    H1 5496   4.872   4.559   4.524 -0.0907  1.9281 -0.2626
 1844TIP3    H2 5497   4.985   4.459   4.510 -2.4561 -0.9899  0.6016
 1845TIP3   OH2 5498   6.702   2.009   0.647  0.2490  0.5224 -0.1994
 1845TIP3    H1 5499   6.609   2.027   0.637  0.2302 -0.2479 -1.6791
 1845TIP3    H2 5500   6.746   2.088   0.617  0.0823  0.3074 -1.0299
 1846TIP3   OH2 5501   0.278   3.875   4.658 -0.2858 -0.9770  0.6026
 1846TIP3    H1 5502   0.288   3.925   4.739  2.3164 -1.7312  0.8350
 1846TIP3    H2 5503   0.325   3.927   4.593 -1.1236 -1.1085 -0.1195
 1847TIP3   OH2 5504   6.701   4.542   2.714  0.2708  0.1499  0.1358
 1847TIP3    H1 5505   6.750   4.487   2.775 -0.1161 -0.5097 -0.1454
 1847TIP3    H2 5506   6.751   4.624   2.711  1.5580 -0.6192 -0.4017
 1848TIP3   OH2 5507   3.605   2.821   2.308  0.4182 -0.2483 -0.1664
 1848TIP3    H1 5508   3.682   2.810   2.253  0.6561 -0.1041  0.1316
 1848TIP3    H2 5509   3.531   2.801   2.251  0.6926 -0.7005 -0.3678
 1849TIP3   OH2 5510   1.689   1.458   1.521  0.0817 -0.3671 -0.1724
 1849TIP3    H1 5511   1.676   1.536   1.467  2.5399 -1.0208 -1.8632
 1849TIP3    H2 5512   1.632   1.392   1.483 -0.7339  0.0841  0.2179
 1850TIP3   OH2 5513   1.097   0.624   0.966  0.2121  0.4255  0.2999
 1850TIP3    H1 5514   1.177   0.584   0.930  0.5305  0.3842  1.0350
 1850TIP3    H2 5515   1.028   0.561   0.946  1.0734 -1.8103  3.5946
 1851TIP3   OH2 5516   2.994   0.764   3.456  0.3711 -0.3158 -0.1352
 1851TIP3    H1 5517   2.910   0.807   3.437  0.6336  0.0444 -0.5009
 1851TIP3    H2 5518   3.054   0.799   3.390  0.7756 -0.6789  0.0370
 1852TIP3   OH2 5519   0.394   1.338   0.045  0.4591  0.3605 -0.3169
 1852TIP3    H1 5520   0.421   1.352   0.136 -1.7827 -0.5948  0.5783
 1852TIP3    H2 5521   0.476   1.328  -0.003  1.7366  1.8930  1.4002
 1853TIP3   OH2 5522   5.901   5.802   5.576  0.9043  0.1264  0.4463
 1853TIP3    H1 5523   5.846   5.878   5.559  1.6516  0.4161 -0.8149
 1853TIP3    H2 5524   5.980   5.838   5.617  1.6217  0.1789 -0.9116
 1854TIP3   OH2 5525   3.024   2.409   0.259 -0.6760 -0.5450 -0.1477
 1854TIP3    H1 5526   2.943   2.370   0.290 -0.5386 -1.3807 -0.7933
 1854TIP3    H2 5527   3.086   2.396   0.330 -1.4287  1.3284  0.9242
 1855TIP3   OH2 5528   2.706   3.195   4.058 -0.1318 -0.1216 -0.0598
 1855TIP3    H1 5529   2.658   3.170   3.980 -0.9663  0.6822  0.1683
 1855TIP3    H2 5530   2.755   3.117   4.083 -0.6647 -0.7010 -0.7905
 1856TIP3   OH2 5531   2.848   5.672   1.424  0.2210 -0.0887  0.3719
 1856TIP3    H1 5532   2.913   5.709   1.484  0.2761 -0.9542  0.8682
 1856TIP3    H2 5533   2.765   5.709   1.452 -0.1255 -2.2327  2.5662
 1857TIP3   OH2 5534   3.746   1.122   5.053  0.4198 -0.4640  0.4750
 1857TIP3    H1 5535   3.789   1.068   5.119  0.8913  1.3901  1.7320
 1857TIP3    H2 5536   3.677   1.168   5.100 -2.1226 -2.2616 -1.2129
 1858TIP3   OH2 5537   7.173   3.552   3.332 -0.3273 -0.0687 -0.4550
 1858TIP3    H1 5538   7.085   3.516   3.344 -0.0597 -0.4227  0.5539
 1858TIP3    H2 5539   7.168   3.600   3.250 -1.1463 -1.0581 -1.0044
 1859TIP3   OH2 5540   1.692   0.679   1.345 -0.5160 -0.5137  0.1558
 1859TIP3    H1 5541   1.737   0.754   1.304 -2.1008  0.3702 -0.0668
 1859TIP3    H2 5542   1.611   0.717   1.380  0.3197 -1.4071  3.3800
 1860TIP3   OH2 5543   3.908   0.406   1.446  0.0009  0.3185 -0.2561
 1860TIP3    H1 5544   3.930   0.314   1.454 -2.4408 -0.3555 -0.5574
 1860TIP3    H2 5545   3.984   0.445   1.403  2.1548 -0.9992  2.0741
 1861TIP3   OH2 5546   6.147   4.823   5.645 -0.3842  0.4190 -0.0135
 1861TIP3    H1 5547   6.086   4.775   5.700  0.5221  1.0452  1.6276
 1861TIP3    H2 5548   6.116   4.809   5.555 -1.5542 -1.1510  0.5974
 1862TIP3   OH2 5549   1.652   4.140   2.534 -0.3785  0.1620 -0.5078
 1862TIP3    H1 5550   1.618   4.229   2.537 -0.8318 -0.0214  0.8030
 1862TIP3    H2 5551   1.580   4.088   2.497 -0.5756  0.1800 -0.1658
 1863TIP3   OH2 5552   7.182   1.517   3.833  0.1899  0.1180 -0.4195
 1863TIP3    H1 5553   7.263   1.489   3.874  0.2701 -0.1357 -0.7471
 1863TIP3    H2 5554   7.118   1.518   3.904  0.3614 -0.1692 -0.2626
 1864TIP3   OH2 5555   3.439   5.774   2.115 -0.1679 -0.4204 -0.6480
 1864TIP3    H1 5556   3.378   5.843   2.141  0.0391 -0.6693  0.5293
 1864TIP3    H2 5557   3.478   5.743   2.197 -0.7545 -2.3983 -1.0425
 1865TIP3   OH2 5558   3.734   5.599   1.203  0.1115  0.4035  0.0642
 1865TIP3    H1 5559   3.781   5.530   1.156  0.4668  0.9585 -0.4169
 1865TIP3    H2 5560   3.743   5.576   1.295 -0.5159 -0.6564 -0.1198
 1866TIP3   OH2 5561   2.735   0.091   2.033  0.3414 -0.1901  0.5360
 1866TIP3    H1 5562   2.653   0.070   1.988 -0.9527  0.1558  2.6012
 1866TIP3    H2 5563   2.795   0.020   2.009 -1.2782 -1.6758  0.7018
 1867TIP3   OH2 5564   6.874   6.186   1.820  0.5820 -0.0687  0.1497
 1867TIP3    H1 5565   6.797   6.242   1.828  0.7671  0.1595  0.3491
 1867TIP3    H2 5566   6.948   6.247   1.826  0.7674 -0.0775 -1.5005
 1868TIP3   OH2 5567   1.844   3.615   2.191 -0.1630 -0.3244  0.5809
 1868TIP3    H1 5568   1.823   3.554   2.261  0.8369 -2.4254 -0.8402
 1868TIP3    H2 5569   1.935   3.639   2.205 -0.6849  1.3250  1.4147
 1869TIP3   OH2 5570   4.137   2.959   2.981  0.2165 -0.7800  0.0816
 1869TIP3    H1 5571   4.053   2.913   2.978 -0.7619  0.8537  0.8483
 1869TIP3    H2 5572   4.152   2.976   3.074 -0.2332  1.6837 -0.2169
 1870TIP3   OH2 5573   2.782   5.295   0.565 -0.4670  0.1614 -0.2999
 1870TIP3    H1 5574   2.858   5.300   0.506  0.4558  1.7740  0.9483
 1870TIP3    H2 5575   2.712   5.340   0.517  0.6348  2.6373  0.2719
 1871TIP3   OH2 5576   1.541   1.971   1.184 -0.0312 -0.1997 -0.0586
 1871TIP3    H1 5577   1.531   1.880   1.156 -0.4896  0.5500 -2.5269
 1871TIP3    H2 5578   1.489   2.022   1.122  1.4137  1.8985  0.3299
 1872TIP3   OH2 5579   6.385   3.407   5.768 -0.7291  0.4843  0.4645
 1872TIP3    H1 5580   6.386   3.433   5.860 -0.9711  1.9472  0.0867
 1872TIP3    H2 5581   6.441   3.471   5.724 -0.9417  0.0556 -0.4619
 1873TIP3   OH2 5582   3.545   3.564   5.387 -0.0561 -0.2158  0.3994
 1873TIP3    H1 5583   3.531   3.545   5.480 -1.0346 -1.5735  0.0080
 1873TIP3    H2 5584   3.598   3.491   5.356 -0.0183  0.0617 -0.1967
 1874TIP3   OH2 5585   6.660   1.690   3.973 -0.3001 -0.2793 -0.4660
 1874TIP3    H1 5586   6.659   1.622   4.040  1.2762  0.2899  0.1658
 1874TIP3    H2 5587   6.695   1.646   3.895  2.2792  0.1193  0.3738
 1875TIP3   OH2 5588   6.666   6.262   1.479 -0.0099  0.1066 -0.2243
 1875TIP3    H1 5589   6.627   6.178   1.502  2.5491 -0.5417  2.4138
 1875TIP3    H2 5590   6.720   6.242   1.402  0.1702 -0.5427  0.0609
 1876TIP3   OH2 5591   2.009   3.400   2.682 -0.2755 -0.1165  0.4548
 1876TIP3    H1 5592   2.025   3.338   2.611 -0.1140  0.2685  0.1497
 1876TIP3    H2 5593   1.914   3.407   2.688 -0.2870  0.7606 -0.5368
 1877TIP3   OH2 5594   7.025   0.799   5.300 -0.2003  0.0032 -0.1481
 1877TIP3    H1 5595   6.949   0.827   5.351 -0.5194  1.9167 -1.5713
 1877TIP3    H2 5596   7.101   0.823   5.354 -0.5405 -2.1475  1.3902
 1878TIP3   OH2 5597   5.540   0.025   2.484 -0.2550 -0.0287  0.3707
 1878TIP3    H1 5598   5.470   0.085   2.457 -0.9182 -0.3329  1.3486
 1878TIP3    H2 5599   5.499  -0.031   2.549 -0.0864 -2.5658 -1.5835
 1879TIP3   OH2 5600   6.311   1.677   5.038 -0.6753 -0.1279 -0.6725
 1879TIP3    H1 5601   6.332   1.634   4.955  1.6292 -0.1208 -0.1439
 1879TIP3    H2 5602   6.295   1.769   5.014 -2.7722 -0.6209 -1.4132
 1880TIP3   OH2 5603   4.614   4.175   2.356 -0.2163 -0.1166  0.2636
 1880TIP3    H1 5604   4.626   4.174   2.261  0.3717  0.3882  0.3276
 1880TIP3    H2 5605   4.691   4.130   2.391  0.4586  1.2323  0.5759
 1881TIP3   OH2 5606   5.559   5.054   2.093  0.4682 -0.3367  0.0411
 1881TIP3    H1 5607   5.469   5.079   2.110  0.7972 -0.2004  1.6782
 1881TIP3    H2 5608   5.570   4.970   2.137  0.5353 -1.4928 -2.0322
 1882TIP3   OH2 5609   6.728   3.418   5.470 -0.3313  0.0672  0.0247
 1882TIP3    H1 5610   6.674   3.370   5.532 -1.2367  0.4975 -0.4136
 1882TIP3    H2 5611   6.676   3.494   5.446  0.7411  0.8543  0.0866
 1883TIP3   OH2 5612   5.026   3.836   4.124 -0.3446 -0.6635 -0.1490
 1883TIP3    H1 5613   5.064   3.922   4.143 -0.4856 -1.1003  2.3879
 1883TIP3    H2 5614   4.939   3.838   4.164 -0.9605 -1.5073 -1.3557
 1884TIP3   OH2 5615   3.425   0.930   5.526  0.4126 -0.0542  0.0326
 1884TIP3    H1 5616   3.350   0.941   5.467 -1.6395 -2.1257  2.0674
 1884TIP3    H2 5617   3.498   0.910   5.468 -1.0824 -0.1635 -1.9155
 1885TIP3   OH2 5618   2.041   2.591   0.478 -0.4656  0.1514 -0.4253
 1885TIP3    H1 5619   2.025   2.555   0.391 -3.0252  0.6133 -0.2454
 1885TIP3    H2 5620   1.975   2.549   0.533  0.2034  0.8861  0.9856
 1886TIP3   OH2 5621   0.568   6.576   3.332 -0.2601 -0.4494 -0.2450
 1886TIP3    H1 5622   0.483   6.606   3.365  0.2282  0.3873  0.2725
 1886TIP3    H2 5623   0.612   6.541   3.409  0.1950 -0.1091 -0.3512
 1887TIP3   OH2 5624   2.596   2.372   0.988  0.6649 -0.1228 -0.1415
 1887TIP3    H1 5625   2.510   2.370   1.030  0.9991  1.1339  0.6599
 1887TIP3    H2 5626   2.630   2.283   0.997 -0.7374 -0.7771 -0.9191
 1888TIP3   OH2 5627   3.390   6.311   5.768  0.2192  0.1175  0.0380
 1888TIP3    H1 5628   3.455   6.245   5.743 -1.6384 -1.8858  0.2236
 1888TIP3    H2 5629   3.409   6.329   5.860 -0.7458 -2.1187  0.7509
 1889TIP3   OH2 5630   5.921   6.066   3.456  0.1050 -0.7176  0.2349
 1889TIP3    H1 5631   5.837   6.028   3.430  0.4601 -0.5126 -1.3563
 1889TIP3    H2 5632   5.898   6.134   3.519 -0.7832 -1.6350  0.9329
 1890TIP3   OH2 5633   2.207   1.469   0.749  0.1968  0.2141 -0.3760
 1890TIP3    H1 5634   2.291   1.428   0.770 -0.2818  0.0956  1.5695
 1890TIP3    H2 5635   2.219   1.561   0.772 -0.0413  0.3070 -0.6161
 1891TIP3   OH2 5636   5.139   4.824   0.755 -0.3221  0.4459 -0.1457
 1891TIP3    H1 5637   5.083   4.764   0.805 -1.5685 -0.6693 -2.7280
 1891TIP3    H2 5638   5.080   4.868   0.694  1.2162  1.2919 -1.1081
 1892TIP3   OH2 5639   5.605   0.290   3.693 -0.2993  0.5142 -0.3982
 1892TIP3    H1 5640   5.568   0.286   3.605  0.6911 -0.7616 -0.7914
 1892TIP3    H2 5641   5.534   0.266   3.751 -0.8674  1.0272 -0.8660
 1893TIP3   OH2 5642   4.680   6.397   3.192  0.9404 -0.4205  0.0357
 1893TIP3    H1 5643   4.628   6.420   3.115 -0.1526  2.2652  1.4414
 1893TIP3    H2 5644   4.657   6.463   3.258  3.8562 -0.9515  1.7914
 1894TIP3   OH2 5645   2.820   0.151   4.530 -0.3685  0.2300  0.0148
 1894TIP3    H1 5646   2.906   0.146   4.572 -0.1592 -0.8292 -0.4952
 1894TIP3    H2 5647   2.826   0.090   4.457 -1.1342  1.1019 -0.8111
 1895TIP3   OH2 5648   1.149   1.609   5.062  0.6776 -0.1656  0.8279
 1895TIP3    H1 5649   1.229   1.635   5.109  1.2376  1.3021 -0.7854
 1895TIP3    H2 5650   1.091   1.684   5.071  1.0653  0.4666 -1.2723
 1896TIP3   OH2 5651   3.112   5.646   4.422 -0.2404  0.1196 -0.0963
 1896TIP3    H1 5652   3.096   5.559   4.387 -0.1480 -0.3161  0.9105
 1896TIP3    H2 5653   3.141   5.631   4.512 -0.1936  1.1860  0.0828
 1897TIP3   OH2 5654   7.002   3.906   4.135 -0.3789  0.2148 -0.0163
 1897TIP3    H1 5655   6.946   3.845   4.184  0.6463  0.6487  1.7661
 1897TIP3    H2 5656   7.091   3.881   4.159  0.0655  2.4517  0.8299
 1898TIP3   OH2 5657   3.168   4.450   4.135 -0.0162 -0.2989 -0.3411
 1898TIP3    H1 5658   3.137   4.526   4.086 -0.3461 -0.3830 -0.2630
 1898TIP3    H2 5659   3.138   4.374   4.085  1.3881 -0.3861 -1.0898
 1899TIP3   OH2 5660   6.005   5.779   3.668  0.0708 -0.1499 -0.2951
 1899TIP3    H1 5661   5.915   5.769   3.636  0.5902 -1.7833 -1.3652
 1899TIP3    H2 5662   5.995   5.819   3.754 -1.7428 -0.9533 -0.0801
 1900TIP3   OH2 5663   1.575   3.799   0.499 -0.0529 -0.5541  0.1071
 1900TIP3    H1 5664   1.621   3.716   0.486  0.9480 -0.0401  0.2336
 1900TIP3    H2 5665   1.532   3.816   0.416 -1.6248 -1.9793  0.5721
 1901TIP3   OH2 5666   5.047   1.993   4.597 -0.0334 -0.6026 -0.1255
 1901TIP3    H1 5667   5.108   1.931   4.638 -0.0371 -0.7646 -0.3623
 1901TIP3    H2 5668   5.103   2.059   4.558  0.0323 -1.2040 -1.0756
 1902TIP3   OH2 5669   2.108   1.976   0.585 -0.0773  0.1239  0.2392
 1902TIP3    H1 5670   2.158   1.902   0.550  0.4876  1.4906 -2.0378
 1902TIP3    H2 5671   2.028   1.978   0.533 -0.8891  0.1261  1.4426
 1903TIP3   OH2 5672   6.137   3.290   5.781  0.3595 -0.1258 -0.1183
 1903TIP3    H1 5673   6.220   3.313   5.739  1.4294 -1.6240  1.0628
 1903TIP3    H2 5674   6.162   3.260   5.869 -1.5134  0.1096  0.5474
 1904TIP3   OH2 5675   4.253   2.071   5.450 -0.0700 -0.3433  0.3406
 1904TIP3    H1 5676   4.263   2.028   5.365  2.4633  0.9757 -0.1354
 1904TIP3    H2 5677   4.221   2.002   5.508  0.9455 -2.0787 -1.0492
 1905TIP3   OH2 5678   5.584   6.055   5.741  0.6004 -0.2042  0.3947
 1905TIP3    H1 5679   5.571   5.981   5.800 -0.7061  0.2866  0.7611
 1905TIP3    H2 5680   5.552   6.131   5.791 -0.7129  0.1993 -0.9714
 1906TIP3   OH2 5681   1.880   3.826   3.709 -0.1916 -0.1764 -0.2415
 1906TIP3    H1 5682   1.842   3.806   3.795 -1.1243  0.4951 -0.4779
 1906TIP3    H2 5683   1.933   3.904   3.724 -1.3015  0.6478 -0.4936
 1907TIP3   OH2 5684   4.838   0.959   1.337 -0.1633  0.0102  0.0045
 1907TIP3    H1 5685   4.852   0.920   1.251  0.7116  0.0694  0.1075
 1907TIP3    H2 5686   4.743   0.966   1.346 -0.2538  0.2918 -1.0840
 1908TIP3   OH2 5687   1.348   1.281   4.582  0.0848 -0.7375 -0.4810
 1908TIP3    H1 5688   1.303   1.359   4.615 -0.4755 -1.3986  0.3572
 1908TIP3    H2 5689   1.437   1.311   4.562 -0.4266  0.3592 -1.1984
 1909TIP3   OH2 5690   4.555   1.510   0.733 -0.2003 -0.0748  0.1036
 1909TIP3    H1 5691   4.475   1.459   0.727 -0.1696  0.0457 -1.7939
 1909TIP3    H2 5692   4.580   1.528   0.643  1.4712  0.6810  0.6593
 1910TIP3   OH2 5693   1.847   2.349   4.593 -0.4932  0.2576 -0.2931
 1910TIP3    H1 5694   1.767   2.308   4.557 -0.2338  0.3033 -0.9423
 1910TIP3    H2 5695   1.846   2.326   4.686 -0.2137 -1.5064 -0.6794
 1911TIP3   OH2 5696   1.322   1.949   4.710 -0.1966  0.2919  0.0788
 1911TIP3    H1 5697   1.384   2.015   4.680  0.3924 -0.0600  0.4872
 1911TIP3    H2 5698   1.377   1.876   4.740 -0.8531 -0.7973 -1.2792
 1912TIP3   OH2 5699   1.857   6.693   3.301 -0.2977 -0.4997  0.2722
 1912TIP3    H1 5700   1.814   6.700   3.216 -1.3975 -1.7596  0.6847
 1912TIP3    H2 5701   1.951   6.704   3.282 -0.6500  0.7138 -0.8662
 1913TIP3   OH2 5702   6.246   1.410   5.035 -0.1976  0.3229 -0.0502
 1913TIP3    H1 5703   6.270   1.482   5.094 -0.4302  0.5608 -0.2471
 1913TIP3    H2 5704   6.330   1.372   5.009 -0.0462  0.9234 -0.4445
 1914TIP3   OH2 5705   0.544   6.472   4.798  0.2723 -0.0670 -0.3671
 1914TIP3    H1 5706   0.538   6.553   4.746  0.7594  0.2359  0.0390
 1914TIP3    H2 5707   0.610   6.420   4.753  0.9591  0.3475  0.1303
 1915TIP3   OH2 5708   3.080   5.636   3.526 -0.1062 -0.3037 -0.3962
 1915TIP3    H1 5709   3.044   5.554   3.491  0.9906  0.6923 -4.2750
 1915TIP3    H2 5710   3.164   5.611   3.564 -0.2024 -1.1061 -0.6977
 1916TIP3   OH2 5711   3.061   1.378   4.254 -0.2313  0.3277  0.3291
 1916TIP3    H1 5712   3.107   1.452   4.293 -0.6164  0.4674  0.5240
 1916TIP3    H2 5713   3.019   1.334   4.329  0.7525 -0.6290  0.3463
 1917TIP3   OH2 5714   6.078   5.069   1.549  0.1958  0.0768 -0.2920
 1917TIP3    H1 5715   6.116   5.020   1.622 -0.5023 -1.8339 -1.1184
 1917TIP3    H2 5716   6.139   5.055   1.476 -0.4265 -0.3270 -0.7608
 1918TIP3   OH2 5717   0.908   5.779   1.027  0.3245 -0.2919  0.2225
 1918TIP3    H1 5718   0.869   5.699   1.063  0.0476  0.3362  1.3542
 1918TIP3    H2 5719   0.833   5.833   1.002  0.4791  0.3310  1.0859
 1919TIP3   OH2 5720   2.795   0.491   5.574  0.4541  0.4019  0.3116
 1919TIP3    H1 5721   2.705   0.460   5.584  0.6321 -0.0680  0.4836
 1919TIP3    H2 5722   2.822   0.458   5.488 -0.3028  2.4904 -0.7764
 1920TIP3   OH2 5723   1.553   5.328   2.246  0.1298 -0.4145  0.0001
 1920TIP3    H1 5724   1.535   5.314   2.153 -1.8304  0.0082  0.2872
 1920TIP3    H2 5725   1.505   5.258   2.290  1.5944 -1.0194  0.6948
 1921TIP3   OH2 5726   6.327   6.404   1.844  0.1177 -0.4201  0.7781
 1921TIP3    H1 5727   6.231   6.405   1.840  0.1551  0.9907 -1.2846
 1921TIP3    H2 5728   6.350   6.312   1.829 -0.9209 -0.2995 -2.5304
 1922TIP3   OH2 5729   2.716   3.923   0.430  0.0891  0.1431  0.5499
 1922TIP3    H1 5730   2.643   3.983   0.414  0.6915  1.3357  2.0029
 1922TIP3    H2 5731   2.675   3.847   0.471 -0.5248  0.1691 -0.0014
 1923TIP3   OH2 5732   6.031   5.590   3.988 -0.2120 -0.4147 -0.0058
 1923TIP3    H1 5733   6.066   5.534   4.058  1.4610  0.1139 -0.3838
 1923TIP3    H2 5734   6.100   5.654   3.972 -0.7835 -0.2062 -1.7982
 1924TIP3   OH2 5735   1.610   0.405   0.502 -0.5471 -0.0232 -0.1863
 1924TIP3    H1 5736   1.644   0.495   0.498 -2.0321  0.5197 -1.6167
 1924TIP3    H2 5737   1.626   0.369   0.415 -1.8952 -0.3939 -0.2956
 1925TIP3   OH2 5738   3.495   4.526   0.988  0.6953 -0.2920 -0.0752
 1925TIP3    H1 5739   3.545   4.607   0.988  0.6082 -0.2388 -0.1917
 1925TIP3    H2 5740   3.542   4.469   1.049  0.1221  0.2305  0.8813
 1926TIP3   OH2 5741   0.080   6.523   0.414 -0.9094  0.2459  0.6018
 1926TIP3    H1 5742   0.083   6.437   0.456 -2.2444 -0.1232 -0.0031
 1926TIP3    H2 5743   0.161   6.566   0.441  0.1572 -1.4824  0.2954
 1927TIP3   OH2 5744   4.572   6.325   5.846 -0.2025 -0.4046  0.0800
 1927TIP3    H1 5745   4.560   6.348   5.754 -0.0824  0.0423  0.1725
 1927TIP3    H2 5746   4.490   6.282   5.871 -0.5962  0.2672 -0.0039
 1928TIP3   OH2 5747   1.690   5.883   2.448  0.1764  0.4192 -0.2979
 1928TIP3    H1 5748   1.625   5.920   2.509  1.2970  1.8776  0.0675
 1928TIP3    H2 5749   1.771   5.931   2.468  1.0950 -0.5914 -1.4940
 1929TIP3   OH2 5750   6.333   1.309   3.345 -0.6979  0.0620  0.0948
 1929TIP3    H1 5751   6.417   1.297   3.300 -0.7540 -0.0548  0.0208
 1929TIP3    H2 5752   6.297   1.389   3.307 -1.3616 -0.7575 -1.0350
 1930TIP3   OH2 5753   6.676   1.080   4.698 -0.0121  0.5401  0.2906
 1930TIP3    H1 5754   6.709   1.022   4.629 -1.0922 -0.1302  0.3089
 1930TIP3    H2 5755   6.739   1.072   4.769  0.6375  0.5442 -0.2814
 1931TIP3   OH2 5756   3.460   2.512   2.840  0.8071 -0.5575 -0.2043
 1931TIP3    H1 5757   3.512   2.569   2.896  0.6595 -0.9293  0.3218
 1931TIP3    H2 5758   3.484   2.537   2.751  2.2393 -1.0140  0.0155
 1932TIP3   OH2 5759   1.380   1.559   5.219  0.6386  0.1732 -0.0701
 1932TIP3    H1 5760   1.419   1.569   5.132  0.4971  1.4031 -0.0033
 1932TIP3    H2 5761   1.455   1.548   5.277  0.7462 -0.3764 -0.3065
 1933TIP3   OH2 5762   2.094   5.441   2.121  0.2108  0.2531 -0.1379
 1933TIP3    H1 5763   2.039   5.509   2.081  1.5267  1.4657  0.0261
 1933TIP3    H2 5764   2.098   5.371   2.056 -0.3577  0.7758 -0.7386
 1934TIP3   OH2 5765   6.050   2.773   1.852 -0.1688 -0.1860 -0.2286
 1934TIP3    H1 5766   6.117   2.814   1.797 -0.4688  0.9574  0.2248
 1934TIP3    H2 5767   5.990   2.733   1.790  1.2690 -1.8391 -0.6346
 1935TIP3   OH2 5768   2.999   5.024   4.157 -0.8583  0.1948 -0.2170
 1935TIP3    H1 5769   2.903   5.022   4.166 -0.8539  0.4348 -0.1204
 1935TIP3    H2 5770   3.015   5.013   4.063 -1.0073  1.0328 -0.3445
 1936TIP3   OH2 5771   2.089   3.046   2.151  0.0371  0.5898 -0.4446
 1936TIP3    H1 5772   2.000   3.024   2.179  0.2238  0.0474 -0.2524
 1936TIP3    H2 5773   2.129   3.088   2.227  0.0893  0.4035 -0.3661
 1937TIP3   OH2 5774   3.587   1.441   0.119 -0.1502 -0.1906 -0.0065
 1937TIP3    H1 5775   3.632   1.356   0.116 -0.5500 -0.4440  0.7867
 1937TIP3    H2 5776   3.551   1.445   0.208 -0.3436  0.7042 -0.1222
 1938TIP3   OH2 5777   4.250   0.522   1.637 -0.3432 -0.3496 -0.5133
 1938TIP3    H1 5778   4.160   0.523   1.605 -1.1305 -4.4295  0.9094
 1938TIP3    H2 5779   4.299   0.475   1.570 -0.3789 -2.1601  0.6353
 1939TIP3   OH2 5780   3.374   2.327   0.261 -0.1872 -0.1753  0.3444
 1939TIP3    H1 5781   3.387   2.242   0.221 -1.3466 -1.0176  1.6758
 1939TIP3    H2 5782   3.364   2.388   0.188 -1.2529 -1.4959 -0.6457
 1940TIP3   OH2 5783   4.593   5.692   1.262  0.2649 -0.1610  0.0884
 1940TIP3    H1 5784   4.529   5.673   1.193 -0.1683 -0.0938  0.4674
 1940TIP3    H2 5785   4.656   5.752   1.221  0.5548 -0.8773 -0.5343
 1941TIP3   OH2 5786   3.090   4.259   1.300 -0.7570  0.1913  0.2340
 1941TIP3    H1 5787   3.091   4.195   1.229 -0.7010 -3.7254  3.3775
 1941TIP3    H2 5788   3.182   4.269   1.325 -0.9674 -0.6240  1.4066
 1942TIP3   OH2 5789   0.570   5.872   5.484 -0.7199 -0.7768  0.1068
 1942TIP3    H1 5790   0.632   5.847   5.553 -0.2355  0.2396  0.0610
 1942TIP3    H2 5791   0.619   5.863   5.403  0.2208  2.2911  0.2168
 1943TIP3   OH2 5792   5.827   1.722   2.942 -0.2272 -0.4290 -0.0479
 1943TIP3    H1 5793   5.801   1.633   2.919 -1.0064  0.1899 -1.6442
 1943TIP3    H2 5794   5.901   1.741   2.886 -0.0701 -0.0545  0.2798
 1944TIP3   OH2 5795   4.916   5.876   1.740 -0.2656 -0.6242 -0.0767
 1944TIP3    H1 5796   4.954   5.958   1.708 -1.7679 -0.0675 -0.4994
 1944TIP3    H2 5797   4.865   5.843   1.666  0.5174 -2.0916  0.0025
 1945TIP3   OH2 5798   6.343   3.078   3.163  0.3434 -0.0629  0.9203
 1945TIP3    H1 5799   6.316   2.989   3.187  1.4616 -0.8847 -0.6606
 1945TIP3    H2 5800   6.366   3.119   3.246 -0.1694 -1.2488  1.6850
 1946TIP3   OH2 5801   4.885   5.536   2.138 -0.6612 -0.3979 -0.5463
 1946TIP3    H1 5802   4.795   5.542   2.169 -0.0122  0.6470  1.3401
 1946TIP3    H2 5803   4.919   5.625   2.145  0.4924 -0.7530 -1.2875
 1947TIP3   OH2 5804   5.226   3.829   3.894  0.3424  0.4424 -0.3213
 1947TIP3    H1 5805   5.205   3.871   3.978  2.0899  0.1543  0.3009
 1947TIP3    H2 5806   5.144   3.787   3.867 -0.4503  1.1602  0.8688
 1948TIP3   OH2 5807   1.709   5.629   2.708 -0.0030  0.5933 -0.3240
 1948TIP3    H1 5808   1.727   5.715   2.669  3.3264 -0.0150 -0.4362
 1948TIP3    H2 5809   1.769   5.624   2.782 -1.4897 -0.9272  0.8525
 1949TIP3   OH2 5810   6.899   4.795   4.584  0.6654  0.3495  0.3474
 1949TIP3    H1 5811   6.907   4.827   4.495 -1.5856  0.3328  0.0885
 1949TIP3    H2 5812   6.896   4.874   4.638  0.5586  0.4105  0.2535
 1950TIP3   OH2 5813   0.476   4.590   4.720  0.5154  0.1553  0.1946
 1950TIP3    H1 5814   0.387   4.590   4.757  0.9089 -1.3608  1.2180
 1950TIP3    H2 5815   0.490   4.681   4.693 -1.6453  0.2653 -0.7543
 1951TIP3   OH2 5816   3.746   5.872   1.135  0.1543  0.3674 -0.3877
 1951TIP3    H1 5817   3.753   5.789   1.183 -0.1579 -0.0028 -0.9716
 1951TIP3    H2 5818   3.716   5.847   1.048  0.6685  1.0401 -0.7694
 1952TIP3   OH2 5819   6.209   4.503   3.949 -0.1013 -0.5006 -0.1394
 1952TIP3    H1 5820   6.141   4.446   3.915  0.0210 -0.9168  0.3124
 1952TIP3    H2 5821   6.288   4.477   3.902 -0.4457  0.7287 -1.4886
 1953TIP3   OH2 5822   0.564   3.455   3.521 -0.4806  0.4130 -0.0415
 1953TIP3    H1 5823   0.540   3.367   3.492  0.7493  0.2357 -0.5896
 1953TIP3    H2 5824   0.632   3.440   3.587 -0.2562  0.9578 -0.1463
 1954TIP3   OH2 5825   1.890   3.905   3.112  0.1217 -1.0417 -0.2341
 1954TIP3    H1 5826   1.806   3.884   3.070 -0.7204  0.5504  0.5379
 1954TIP3    H2 5827   1.880   3.996   3.140  2.7882 -0.1724 -1.7310
 1955TIP3   OH2 5828   0.126   2.891   3.972 -0.1902  0.0086  0.0849
 1955TIP3    H1 5829   0.074   2.824   3.929 -1.1312  1.3013 -0.8636
 1955TIP3    H2 5830   0.180   2.929   3.902  1.8471 -1.0729  0.9736
 1956TIP3   OH2 5831   1.300   1.679   1.669  0.5313  0.3526 -0.4384
 1956TIP3    H1 5832   1.385   1.642   1.694 -0.2406 -2.6878 -1.8709
 1956TIP3    H2 5833   1.323   1.760   1.623  2.8022 -0.9840 -1.8716
 1957TIP3   OH2 5834   3.807   4.844   0.416 -0.1815  0.0852  0.2202
 1957TIP3    H1 5835   3.773   4.763   0.455 -0.5760 -0.0726 -0.4232
 1957TIP3    H2 5836   3.765   4.848   0.330 -0.1392  0.9610  0.2287
 1958TIP3   OH2 5837   5.626   3.124   1.155 -0.5252  0.1576 -0.3747
 1958TIP3    H1 5838   5.547   3.146   1.107  1.0509  0.2571 -3.1869
 1958TIP3    H2 5839   5.663   3.208   1.182 -1.0314  0.1467  0.3673
 1959TIP3   OH2 5840   6.111   5.095   3.637 -0.0339  0.3627  0.0416
 1959TIP3    H1 5841   6.114   5.024   3.701  1.0583 -0.2805 -0.6835
 1959TIP3    H2 5842   6.165   5.064   3.565 -0.6261  1.3898 -0.8700
 1960TIP3   OH2 5843   0.507   1.639   1.240  0.0903 -0.5824  0.5500
 1960TIP3    H1 5844   0.596   1.609   1.257  1.1465  0.8982 -1.8176
 1960TIP3    H2 5845   0.466   1.642   1.326  2.1790 -1.6610  1.6737
 1961TIP3   OH2 5846   5.648   6.510   2.958 -0.2743  0.1370 -0.1243
 1961TIP3    H1 5847   5.723   6.453   2.978 -2.7628 -2.5885  2.4218
 1961TIP3    H2 5848   5.631   6.495   2.865  1.0990 -0.7626 -0.2658
 1962TIP3   OH2 5849   4.219   2.177   0.063  0.0747 -0.2075  0.2322
 1962TIP3    H1 5850   4.199   2.175  -0.031 -2.6421  1.4519  0.6636
 1962TIP3    H2 5851   4.300   2.229   0.068  0.8205 -1.1500 -1.2196
 1963TIP3   OH2 5852   1.075   1.478   1.706 -0.5599 -0.1305 -0.4357
 1963TIP3    H1 5853   1.098   1.415   1.774 -0.3552 -0.0108 -0.3931
 1963TIP3    H2 5854   1.102   1.563   1.742 -2.8628  0.2934  0.4776
 1964TIP3   OH2 5855   6.987   5.689   1.956  0.5745 -0.4444  0.4736
 1964TIP3    H1 5856   6.988   5.722   2.046  0.3869 -0.1293  0.3662
 1964TIP3    H2 5857   6.943   5.759   1.907  1.9902  0.0615 -0.1212
 1965TIP3   OH2 5858   0.121   1.540   5.180 -0.3681 -0.3828  0.0097
 1965TIP3    H1 5859   0.060   1.583   5.120  0.0072 -2.5147 -2.0029
 1965TIP3    H2 5860   0.066   1.510   5.253 -0.9141  1.7228  0.5400
 1966TIP3   OH2 5861   2.843   3.513   0.973  0.1685 -0.2787  0.2629
 1966TIP3    H1 5862   2.906   3.482   1.038 -1.3071 -0.6248  1.5977
 1966TIP3    H2 5863   2.809   3.434   0.932 -2.1219 -0.4530  2.2552
 1967TIP3   OH2 5864   3.079   6.131   4.324  0.0319  0.5673  0.2406
 1967TIP3    H1 5865   3.071   6.042   4.358 -1.6760  0.6751  0.2247
 1967TIP3    H2 5866   3.168   6.136   4.291  0.7654 -0.5214  1.9258
 1968TIP3   OH2 5867   5.535   2.073   4.779  0.3008  0.4508 -0.7723
 1968TIP3    H1 5868   5.548   2.155   4.826  0.1628 -0.8153  1.6344
 1968TIP3    H2 5869   5.623   2.039   4.765  0.3041 -0.2886  0.7934
 1969TIP3   OH2 5870   3.326   4.698   4.961 -0.5018 -0.4127 -0.0254
 1969TIP3    H1 5871   3.261   4.639   5.000 -0.4386 -0.1160  0.5423
 1969TIP3    H2 5872   3.374   4.644   4.899 -0.1000 -1.1046  0.8570
 1970TIP3   OH2 5873   2.725   0.264   2.249  0.2682  0.1167 -0.1502
 1970TIP3    H1 5874   2.731   0.203   2.175  0.6465  0.9480 -0.8261
 1970TIP3    H2 5875   2.651   0.321   2.227 -0.2057 -0.2147  0.5702
 1971TIP3   OH2 5876   5.953   1.496   4.552  0.4374 -0.4056 -0.0469
 1971TIP3    H1 5877   6.028   1.450   4.514  0.4788 -0.6182  0.2939
 1971TIP3    H2 5878   5.956   1.584   4.512 -0.0546 -0.9046 -1.2429
 1972TIP3   OH2 5879   3.809   6.495   4.561  0.4909  0.2294  0.5419
 1972TIP3    H1 5880   3.895   6.522   4.593  0.5748  1.7196 -0.7800
 1972TIP3    H2 5881   3.753   6.572   4.577  0.0036  0.1644 -0.7376
 1973TIP3   OH2 5882   0.043   1.901   3.269 -0.3229  0.4712 -0.1190
 1973TIP3    H1 5883  -0.011   1.828   3.238 -0.7498  0.8922 -0.3944
 1973TIP3    H2 5884   0.044   1.891   3.364 -1.4109  0.7992 -0.0542
 1974TIP3   OH2 5885   0.429   3.048   2.848 -0.1037 -0.0511  0.1654
 1974TIP3    H1 5886   0.500   2.989   2.872  0.1388 -0.3009 -1.0963
 1974TIP3    H2 5887   0.454   3.082   2.762 -0.8852  0.8722  0.2833
 1975TIP3   OH2 5888   5.672   3.405   0.623 -0.5954  0.4236 -0.1565
 1975TIP3    H1 5889   5.660   3.409   0.528  1.0567  2.0788 -0.3530
 1975TIP3    H2 5890   5.588   3.374   0.657 -1.0542 -0.6680 -2.1781
 1976TIP3   OH2 5891   7.151   2.060   0.827  0.3640 -0.5030 -0.2954
 1976TIP3    H1 5892   7.175   2.152   0.834 -1.2854 -0.0840  0.3419
 1976TIP3    H2 5893   7.207   2.026   0.758  1.2721  0.8859 -0.2819
 1977TIP3   OH2 5894   6.296   0.968   2.798 -0.2369 -0.0165 -0.3530
 1977TIP3    H1 5895   6.249   0.999   2.875 -0.4405  0.1166 -0.5306
 1977TIP3    H2 5896   6.254   1.013   2.725  0.3405  0.3053 -0.4894
 1978TIP3   OH2 5897   3.463   0.228   4.409  0.0192 -0.1357 -0.1270
 1978TIP3    H1 5898   3.367   0.232   4.410  0.0364  0.6409 -0.6122
 1978TIP3    H2 5899   3.490   0.308   4.454  0.4482 -1.1964  1.5772
 1979TIP3   OH2 5900   4.418   6.439   1.499 -0.4104 -0.1390 -0.1092
 1979TIP3    H1 5901   4.363   6.505   1.542 -0.2624 -0.2301  0.2263
 1979TIP3    H2 5902   4.361   6.363   1.491 -1.1900  0.5825 -2.1778
 1980TIP3   OH2 5903   5.516   2.642   2.868 -0.0073 -0.5874 -0.4764
 1980TIP3    H1 5904   5.458   2.639   2.944 -0.6319  0.5739 -0.8732
 1980TIP3    H2 5905   5.565   2.560   2.871  1.3711  0.2302  2.2370
 1981TIP3   OH2 5906   2.964   2.469   4.850  0.4810  0.2387 -0.2703
 1981TIP3    H1 5907   2.989   2.377   4.854 -0.0003  0.1185 -0.0320
 1981TIP3    H2 5908   2.913   2.477   4.770 -0.0986  0.1398  0.0813
 1982TIP3   OH2 5909   4.713   0.493   2.395  0.1465  0.4362  0.0284
 1982TIP3    H1 5910   4.686   0.561   2.333  0.1363  1.2680  0.9353
 1982TIP3    H2 5911   4.711   0.536   2.481 -0.2915 -0.8328  0.6713
 1983TIP3   OH2 5912   0.156   2.117   1.902  0.5097  0.4241  0.5856
 1983TIP3    H1 5913   0.242   2.141   1.938  0.8325  1.4398 -0.7734
 1983TIP3    H2 5914   0.118   2.200   1.874  0.0490 -0.2468 -0.8528
 1984TIP3   OH2 5915   5.276   1.654   5.198  0.1966 -0.0258 -0.0036
 1984TIP3    H1 5916   5.184   1.681   5.193  0.0585 -0.4339  0.3329
 1984TIP3    H2 5917   5.312   1.680   5.113 -0.8700 -2.2020 -1.2156
 1985TIP3   OH2 5918   0.310   4.856   3.299 -0.3216 -0.4855  0.4347
 1985TIP3    H1 5919   0.245   4.788   3.280  0.0681 -0.8142  0.2534
 1985TIP3    H2 5920   0.341   4.883   3.213 -1.3176  0.7582  0.4546
 1986TIP3   OH2 5921   1.094   5.584   0.177  0.0085 -0.1635  0.5345
 1986TIP3    H1 5922   1.142   5.519   0.127  1.4569  0.7495  0.6702
 1986TIP3    H2 5923   1.059   5.644   0.111  1.5001  0.7610  0.5313
 1987TIP3   OH2 5924   6.421   1.301   1.907  0.2596 -0.3646 -0.0023
 1987TIP3    H1 5925   6.515   1.309   1.891  0.5454 -2.8190  0.1511
 1987TIP3    H2 5926   6.381   1.322   1.822  1.0229 -0.5770 -0.4237
 1988TIP3   OH2 5927   2.538   0.796   2.115  0.4012  0.6391  0.1967
 1988TIP3    H1 5928   2.446   0.810   2.093  0.2230 -0.6120  0.0747
 1988TIP3    H2 5929   2.579   0.883   2.106 -0.5520  1.0109 -0.7382
 1989TIP3   OH2 5930   0.206   1.225   2.331  0.2950  0.1484  0.0956
 1989TIP3    H1 5931   0.232   1.259   2.246  1.8147 -0.7368  0.1650
 1989TIP3    H2 5932   0.126   1.175   2.314  1.3650 -1.2401 -1.1306
 1990TIP3   OH2 5933   3.325   4.015   4.960  0.4157 -0.5352  0.1463
 1990TIP3    H1 5934   3.417   4.037   4.945  0.4821 -0.8498  0.0751
 1990TIP3    H2 5935   3.302   3.958   4.886  0.7579 -2.1600  1.2381
 1991TIP3   OH2 5936   1.295   0.044   3.035  0.4401  0.5567 -0.0808
 1991TIP3    H1 5937   1.360  -0.026   3.046  1.3540  0.8672 -2.8292
 1991TIP3    H2 5938   1.348   0.124   3.028 -0.4371  1.1710  0.1901
 1992TIP3   OH2 5939   2.277   0.427   1.282 -0.3423  0.0140 -0.2019
 1992TIP3    H1 5940   2.363   0.410   1.244 -0.3957 -0.1915 -0.2309
 1992TIP3    H2 5941   2.230   0.476   1.214 -0.1352  0.4191 -0.0575
 1993TIP3   OH2 5942   4.598   4.172   3.987 -0.0263 -0.5173 -0.3894
 1993TIP3    H1 5943   4.577   4.262   3.961  1.5658 -0.0429 -0.1155
 1993TIP3    H2 5944   4.538   4.153   4.059  0.1315  0.6089  0.0538
 1994TIP3   OH2 5945   6.630   5.979   3.047  1.0598  0.4572 -0.4901
 1994TIP3    H1 5946   6.633   5.888   3.017  0.1855  0.4213 -0.5056
 1994TIP3    H2 5947   6.722   6.003   3.060  1.2534 -0.7376  0.4931
 1995TIP3   OH2 5948   1.185   6.532   4.004  0.0820 -0.0352  0.0600
 1995TIP3    H1 5949   1.230   6.605   4.047 -0.0072  0.5980 -0.8985
 1995TIP3    H2 5950   1.130   6.494   4.073  0.0499  0.8702  0.5427
 1996TIP3   OH2 5951   4.515   4.932   4.074  0.3373 -0.1654  0.1085
 1996TIP3    H1 5952   4.530   4.903   3.984  0.5709  1.6272 -0.4642
 1996TIP3    H2 5953   4.533   5.026   4.073  1.5337 -0.2987  2.3105
 1997TIP3   OH2 5954   1.170   1.765   1.946  0.6238  0.0435  0.5981
 1997TIP3    H1 5955   1.200   1.772   1.855  2.1075 -2.1119  0.8458
 1997TIP3    H2 5956   1.219   1.832   1.993  0.4766  0.6008 -0.0234
 1998TIP3   OH2 5957   1.222   0.151   0.495 -0.2305  0.3414 -0.3637
 1998TIP3    H1 5958   1.238   0.141   0.588  0.2512  3.2176 -0.0420
 1998TIP3    H2 5959   1.129   0.132   0.484 -0.2902 -0.0350  0.6832
 1999TIP3   OH2 5960   4.346   1.837   4.969 -0.2215 -0.7427  0.4752
 1999TIP3    H1 5961   4.293   1.777   4.917  1.1406 -1.5804 -0.0054
 1999TIP3    H2 5962   4.419   1.784   5.001  0.9951  0.6261  0.0956
 2000TIP3   OH2 5963   1.903   5.447   1.203 -0.8131  0.0925  0.3043
 2000TIP3    H1 5964   1.811   5.426   1.220 -0.6785  0.3632  1.3913
 2000TIP3    H2 5965   1.948   5.428   1.284  0.1994 -0.5713 -0.3964
 2001TIP3   OH2 5966   1.844   2.816   1.487 -0.4068  0.4328  0.0842
 2001TIP3    H1 5967   1.770   2.860   1.446  0.6773  0.2343 -2.2794
 2001TIP3    H2 5968   1.838   2.726   1.454 -0.0290 -0.0142  1.2024
 2002TIP3   OH2 5969   4.075   1.849   4.350 -0.2187 -0.0522  0.0500
 2002TIP3    H1 5970   4.022   1.800   4.413  0.1562 -0.2266  0.2306
 2002TIP3    H2 5971   4.161   1.808   4.354  0.0206  0.4363 -0.0120
 2003TIP3   OH2 5972   2.580   5.851   0.152 -0.2536 -0.7021  0.4846
 2003TIP3    H1 5973   2.599   5.763   0.120  1.5450  0.4176 -1.9320
 2003TIP3    H2 5974   2.515   5.885   0.090  1.8410  0.8608 -1.0118
 2004TIP3   OH2 5975   0.548   1.695   3.589  0.2881 -0.1532 -0.4672
 2004TIP3    H1 5976   0.454   1.692   3.607  0.5401 -0.3201  0.9218
 2004TIP3    H2 5977   0.561   1.779   3.545 -0.2691  0.7072  0.9357
 2005TIP3   OH2 5978   4.798   3.197   4.448 -0.1361  0.1901 -0.6252
 2005TIP3    H1 5979   4.764   3.283   4.424 -2.1660 -0.3993 -0.0685
 2005TIP3    H2 5980   4.889   3.213   4.474 -0.3505  2.0764 -0.8873
 2006TIP3   OH2 5981   6.319   5.333   4.091 -0.0346 -0.1714  0.0993
 2006TIP3    H1 5982   6.290   5.332   4.000  3.5333 -0.8881 -1.1934
 2006TIP3    H2 5983   6.318   5.241   4.117 -1.5993  0.0864  1.0493
 2007TIP3   OH2 5984   2.868   1.171   4.904  0.0593  0.0400 -0.4608
 2007TIP3    H1 5985   2.886   1.080   4.929  0.8504  0.2288 -0.3366
 2007TIP3    H2 5986   2.772   1.175   4.897 -0.3294  0.0873  3.0814
 2008TIP3   OH2 5987   6.310   1.808   0.694 -0.0037  0.3906 -0.3036
 2008TIP3    H1 5988   6.269   1.884   0.653  1.0099  0.4077 -1.3330
 2008TIP3    H2 5989   6.240   1.742   0.697 -1.1169  1.5758  1.3072
 2009TIP3   OH2 5990   5.115   4.276   0.099 -0.7259 -0.3735 -0.3479
 2009TIP3    H1 5991   5.186   4.241   0.044  0.7251  3.3713 -1.1801
 2009TIP3    H2 5992   5.043   4.215   0.086  1.3003 -2.6109 -2.0948
 2010TIP3   OH2 5993   2.994   2.148   3.282  0.0295  0.6501  0.1222
 2010TIP3    H1 5994   2.916   2.129   3.334  0.1099  2.0316  0.7900
 2010TIP3    H2 5995   2.971   2.119   3.193 -0.4774 -0.8010  0.6916
 2011TIP3   OH2 5996   5.291   3.636   0.900 -0.1388 -0.2891 -0.0001
 2011TIP3    H1 5997   5.360   3.660   0.962 -1.0449  0.1756  0.8464
 2011TIP3    H2 5998   5.288   3.708   0.838 -0.3145  0.0059  0.3499
 2012TIP3   OH2 5999   2.783   2.463   0.034  0.2043 -0.4733  0.2959
 2012TIP3    H1 6000   2.741   2.540   0.072 -1.4891 -0.6805 -1.0751
 2012TIP3    H2 6001   2.773   2.395   0.101 -0.7918 -0.2551  0.3762
 2013TIP3   OH2 6002   5.756   1.300   4.059  0.8040 -0.2317  0.1194
 2013TIP3    H1 6003   5.736   1.232   4.124  1.2361  1.0792  1.7116
 2013TIP3    H2 6004   5.838   1.339   4.089  1.8219 -0.5361 -2.0859
 2014TIP3   OH2 6005   5.246   4.041   2.545  0.1096 -0.3864  0.2686
 2014TIP3    H1 6006   5.295   3.993   2.479  1.5038 -0.2347  1.1584
 2014TIP3    H2 6007   5.246   3.983   2.622  1.1210  0.6689  1.0986
 2015TIP3   OH2 6008   3.872   2.632   4.602 -0.0464  0.2483 -0.6656
 2015TIP3    H1 6009   3.828   2.567   4.548  0.1528 -1.0102  0.6523
 2015TIP3    H2 6010   3.873   2.711   4.547 -1.7833 -0.3530 -1.6397
 2016TIP3   OH2 6011   1.574   2.850   0.993  0.5655 -0.3512 -0.4763
 2016TIP3    H1 6012   1.643   2.800   1.036 -0.4537 -0.3697  1.2044
 2016TIP3    H2 6013   1.559   2.803   0.911  1.6953 -1.0379 -0.3166
 2017TIP3   OH2 6014   2.739   4.353   0.584 -0.1526 -0.2421  0.2962
 2017TIP3    H1 6015   2.781   4.362   0.670 -0.8744 -0.2126  0.6506
 2017TIP3    H2 6016   2.649   4.328   0.604 -0.8657  1.6088 -0.3706
 2018TIP3   OH2 6017   0.437   6.158   3.797 -0.3625  0.1565  0.3204
 2018TIP3    H1 6018   0.431   6.234   3.739  1.2819 -0.1903 -0.3393
 2018TIP3    H2 6019   0.421   6.193   3.885  3.0713  1.8639  0.4219
 2019TIP3   OH2 6020   1.901   0.393   4.244  0.0589  0.0191 -0.5473
 2019TIP3    H1 6021   1.959   0.469   4.253  1.1007 -0.6922 -1.1250
 2019TIP3    H2 6022   1.860   0.404   4.158 -0.6045  0.4615 -0.1873
 2020TIP3   OH2 6023   6.589   5.790   1.504  0.3457  0.3489  0.2764
 2020TIP3    H1 6024   6.578   5.867   1.560  1.0727  0.5635  0.1375
 2020TIP3    H2 6025   6.532   5.807   1.429  2.0935  1.7905 -0.7997
 2021TIP3   OH2 6026   4.898   4.541   0.280 -0.3004 -0.3150  0.2227
 2021TIP3    H1 6027   4.850   4.460   0.292 -0.9237  0.0200  0.0233
 2021TIP3    H2 6028   4.920   4.569   0.369 -0.2512 -0.6000  0.3001
 2022TIP3   OH2 6029   6.233   5.330   4.544 -0.6128 -0.2576  0.0566
 2022TIP3    H1 6030   6.152   5.326   4.594 -0.4885 -0.5505  0.2385
 2022TIP3    H2 6031   6.225   5.410   4.491 -0.9755 -0.2350  0.1436
 2023TIP3   OH2 6032   0.095   5.109   4.445 -0.7110 -0.1250  0.0155
 2023TIP3    H1 6033   0.016   5.079   4.492  0.4956 -2.6078  0.6454
 2023TIP3    H2 6034   0.083   5.077   4.356 -0.8261  0.3206 -0.1294
 2024TIP3   OH2 6035   6.453   1.985   0.845  0.0515  0.3716 -0.1261
 2024TIP3    H1 6036   6.547   1.990   0.831  0.0608 -0.0973 -0.2341
 2024TIP3    H2 6037   6.426   1.904   0.802 -0.4481  0.6553 -0.3611
 2025TIP3   OH2 6038   6.424   5.048   5.022  0.2166  0.4632 -0.5007
 2025TIP3    H1 6039   6.359   5.052   4.952 -0.7684  2.5262  0.4613
 2025TIP3    H2 6040   6.383   4.994   5.090 -0.3486  1.3776 -0.0900
 2026TIP3   OH2 6041   4.331   6.501   0.289 -0.1699  0.4705 -0.1772
 2026TIP3    H1 6042   4.402   6.487   0.227 -1.4084  0.2954 -1.6240
 2026TIP3    H2 6043   4.329   6.421   0.341 -0.2035 -0.1384 -1.0837
 2027TIP3   OH2 6044   0.848   2.741   4.772 -0.1345  0.0485 -0.0791
 2027TIP3    H1 6045   0.809   2.820   4.807 -0.4468  1.3566 -3.0683
 2027TIP3    H2 6046   0.942   2.759   4.771 -0.1332  0.0458  0.0260
 2028TIP3   OH2 6047   0.675   6.010   0.477  0.0475  0.1249  0.3453
 2028TIP3    H1 6048   0.698   6.103   0.473 -0.8308  0.3497  0.3138
 2028TIP3    H2 6049   0.755   5.967   0.507  0.8565  0.7270 -0.8584
 2029TIP3   OH2 6050   5.396   6.386   0.775  0.3648 -0.5031 -0.0417
 2029TIP3    H1 6051   5.338   6.348   0.841  1.1541 -1.0827  0.3312
 2029TIP3    H2 6052   5.342   6.389   0.695 -0.5624  0.1126  0.5851
 2030TIP3   OH2 6053   1.308   1.974   2.017 -0.2082 -0.2713 -0.1472
 2030TIP3    H1 6054   1.403   1.973   2.013 -0.2102  0.4084 -0.5630
 2030TIP3    H2 6055   1.281   2.017   1.936 -0.8443  0.1786  0.2954
 2031TIP3   OH2 6056   1.334   0.478   2.080  1.0718  0.4608  0.0583
 2031TIP3    H1 6057   1.347   0.504   2.172  0.6553 -2.4974  1.0471
 2031TIP3    H2 6058   1.244   0.505   2.061  1.4266  1.8304  0.2159
 2032TIP3   OH2 6059   6.798   6.422   0.563  0.1629 -0.0214 -0.2413
 2032TIP3    H1 6060   6.778   6.379   0.480  1.2714 -1.9929  0.4284
 2032TIP3    H2 6061   6.772   6.513   0.551  2.0019  0.2048 -3.3652
 2033TIP3   OH2 6062   3.494   2.394   4.463  0.4035 -0.0978  0.0860
 2033TIP3    H1 6063   3.586   2.419   4.452 -0.0985  2.3330  1.0255
 2033TIP3    H2 6064   3.498   2.312   4.513  2.0288  0.2861  0.6600
 2034TIP3   OH2 6065   1.809   3.026   0.249 -0.4438  0.4120  0.2838
 2034TIP3    H1 6066   1.842   3.060   0.166 -0.7409  0.3821  0.1509
 2034TIP3    H2 6067   1.844   3.086   0.315  2.4546 -1.3535  0.4975
 2035TIP3   OH2 6068   2.242   3.572   1.935  0.2645 -0.1109  0.5275
 2035TIP3    H1 6069   2.306   3.630   1.893 -0.6133  0.4202 -0.1178
 2035TIP3    H2 6070   2.183   3.631   1.981 -0.2230 -0.5340  0.4545
 2036TIP3   OH2 6071   6.189   1.354   4.533  0.6595  0.5699 -0.2304
 2036TIP3    H1 6072   6.230   1.311   4.608  0.2447  0.2348 -0.1953
 2036TIP3    H2 6073   6.255   1.417   4.503  0.8051  0.7532  0.4551
 2037TIP3   OH2 6074   0.835   5.232   4.270 -0.1625 -0.2610  0.1369
 2037TIP3    H1 6075   0.749   5.268   4.291 -0.0069 -0.0090  0.3391
 2037TIP3    H2 6076   0.824   5.195   4.182 -0.6460 -0.7841  0.4118
 2038TIP3   OH2 6077   0.263   0.852   4.134  0.2080 -0.0933  0.2692
 2038TIP3    H1 6078   0.355   0.846   4.160  0.4789  1.3241 -0.2607
 2038TIP3    H2 6079   0.256   0.797   4.056  0.9817  0.9777 -0.5782
 2039TIP3   OH2 6080   0.157   2.917   5.184 -0.1740 -0.0350 -0.1735
 2039TIP3    H1 6081   0.211   2.866   5.124  0.0895 -0.8481  0.7327
 2039TIP3    H2 6082   0.068   2.884   5.171  0.2168 -1.9534  1.5796
 2040TIP3   OH2 6083   1.329   2.610   3.017 -0.3921  0.1378  0.3987
 2040TIP3    H1 6084   1.417   2.591   3.051  0.1849  2.6336  0.4508
 2040TIP3    H2 6085   1.311   2.538   2.956  1.0577 -1.2020  1.4842
 2041TIP3   OH2 6086   4.223   1.492   4.276  0.3449  0.1517 -0.1622
 2041TIP3    H1 6087   4.152   1.520   4.334 -0.4106 -0.2034 -0.9051
 2041TIP3    H2 6088   4.277   1.570   4.265 -0.9761  0.9790 -1.1030
 2042TIP3   OH2 6089   0.079   1.893   4.614 -0.2512 -0.5250 -0.4808
 2042TIP3    H1 6090   0.065   1.821   4.553  1.7804 -1.0419 -0.3940
 2042TIP3    H2 6091   0.160   1.872   4.659 -0.6281  0.8652  0.9595
 2043TIP3   OH2 6092   5.731   0.851   5.404  0.3650 -0.2092  0.2224
 2043TIP3    H1 6093   5.703   0.909   5.333 -0.2863  0.2361  0.8366
 2043TIP3    H2 6094   5.653   0.801   5.426  1.1516 -2.0731 -0.9772
 2044TIP3   OH2 6095   1.142   3.529   1.204  0.3130 -0.0544 -0.9347
 2044TIP3    H1 6096   1.079   3.535   1.132 -0.6416  0.0552 -0.1171
 2044TIP3    H2 6097   1.210   3.593   1.183 -0.7078  1.0249 -1.0266
 2045TIP3   OH2 6098   4.842   0.066   3.071  0.0780  0.3266 -0.1634
 2045TIP3    H1 6099   4.790  -0.014   3.061 -1.7919  1.3705  0.6688
 2045TIP3    H2 6100   4.931   0.035   3.086 -0.7880 -1.6467  1.3192
 2046TIP3   OH2 6101   5.791   0.286   3.901 -0.4549 -0.5392  0.3974
 2046TIP3    H1 6102   5.855   0.350   3.870 -0.3160 -0.1003  1.5366
 2046TIP3    H2 6103   5.718   0.293   3.839  0.5908 -1.0995 -0.9600
 2047TIP3   OH2 6104   4.805   0.832   2.501 -0.8272 -0.8928 -0.4466
 2047TIP3    H1 6105   4.773   0.759   2.556  0.2550 -0.6078  0.6027
 2047TIP3    H2 6106   4.778   0.910   2.549 -0.1505 -0.6367 -0.4773
 2048TIP3   OH2 6107   0.543   1.389   0.277  0.0613 -0.1846 -0.4328
 2048TIP3    H1 6108   0.586   1.463   0.235 -0.9051  0.0426 -1.0597
 2048TIP3    H2 6109   0.613   1.342   0.322  1.0152 -0.0138 -1.6995
 2049TIP3   OH2 6110   4.325   0.298   1.488 -0.4030 -0.2131  0.1859
 2049TIP3    H1 6111   4.247   0.251   1.516  0.3659 -0.5309  1.9235
 2049TIP3    H2 6112   4.397   0.239   1.508  0.3917  0.6025 -0.1777
 2050TIP3   OH2 6113   5.913   2.142   2.359  0.0085  0.2706 -0.0839
 2050TIP3    H1 6114   5.966   2.070   2.393 -1.3219 -0.1047  1.2605
 2050TIP3    H2 6115   5.823   2.117   2.376 -0.7103  0.6783 -2.7871
 2051TIP3   OH2 6116   2.213   1.682   2.007 -0.2921 -0.3127  0.4320
 2051TIP3    H1 6117   2.132   1.702   2.054 -0.5709 -0.9472  0.2435
 2051TIP3    H2 6118   2.210   1.587   1.995 -0.7062 -0.1072 -1.6616
 2052TIP3   OH2 6119   7.206   0.263   1.426  0.0624 -0.0239  0.1331
 2052TIP3    H1 6120   7.214   0.175   1.460 -1.5064 -0.3964 -0.3521
 2052TIP3    H2 6121   7.138   0.304   1.480 -0.6508  0.2083 -0.9110
 2053TIP3   OH2 6122   3.926   6.560   5.487 -0.0368  0.7283 -0.5287
 2053TIP3    H1 6123   3.998   6.503   5.513  0.1721  1.2979  0.2002
 2053TIP3    H2 6124   3.907   6.612   5.566  1.5051  3.4872 -1.8309
 2054TIP3   OH2 6125   5.141   5.629   3.820  0.2236 -0.1172  0.3575
 2054TIP3    H1 6126   5.157   5.631   3.914  0.2520 -2.2160  0.4373
 2054TIP3    H2 6127   5.219   5.589   3.783  0.0473  0.3447 -0.5364
 2055TIP3   OH2 6128   1.361   4.765   4.964  0.2690  0.0363 -0.1789
 2055TIP3    H1 6129   1.381   4.857   4.978 -2.3293  0.7917 -1.0251
 2055TIP3    H2 6130   1.338   4.732   5.051  0.9132  0.2450  0.0747
 2056TIP3   OH2 6131   4.472   4.769   1.142  0.3394  0.0834  0.1215
 2056TIP3    H1 6132   4.553   4.796   1.186 -0.6345  1.5774  1.0882
 2056TIP3    H2 6133   4.500   4.742   1.054  1.8536  0.8651  0.3332
 2057TIP3   OH2 6134   0.161   0.837   0.270 -0.4068  0.1989  0.6840
 2057TIP3    H1 6135   0.218   0.900   0.313 -1.5758  0.9382  1.2196
 2057TIP3    H2 6136   0.077   0.883   0.261 -1.6936 -1.6750  2.2758
 2058TIP3   OH2 6137   6.123   6.514   2.228 -0.6220 -0.5368  0.2919
 2058TIP3    H1 6138   6.159   6.541   2.312 -1.4555  0.0330  0.4799
 2058TIP3    H2 6139   6.063   6.443   2.249  0.7432 -1.8447 -0.0791
 2059TIP3   OH2 6140   5.962   3.910   1.445  0.1392  0.7626 -0.0076
 2059TIP3    H1 6141   5.916   3.935   1.365 -0.6721  0.8426  0.4723
 2059TIP3    H2 6142   6.055   3.910   1.421 -0.1039  0.6381 -0.9832
 2060TIP3   OH2 6143   7.101   5.785   0.249  0.8949  0.0261 -0.1246
 2060TIP3    H1 6144   7.142   5.766   0.333 -1.0733 -2.3641  0.4168
 2060TIP3    H2 6145   7.157   5.738   0.185 -0.5041 -2.7845  0.5496
 2061TIP3   OH2 6146   4.157   3.867   3.635 -0.2727  0.2720 -0.0281
 2061TIP3    H1 6147   4.070   3.901   3.618 -0.2385  0.1974 -0.3557
 2061TIP3    H2 6148   4.212   3.907   3.567  0.4014  2.1192  1.5167
 2062TIP3   OH2 6149   0.329   5.359   1.620 -0.5428  0.1348  0.1078
 2062TIP3    H1 6150   0.337   5.446   1.582 -0.2788 -0.5576 -1.4914
 2062TIP3    H2 6151   0.244   5.328   1.590  0.3554 -1.0572 -1.3823
 2063TIP3   OH2 6152   2.298   5.359   5.462  0.3743  0.0459  0.2832
 2063TIP3    H1 6153   2.384   5.364   5.420 -1.0720  1.7155 -2.7613
 2063TIP3    H2 6154   2.236   5.352   5.390 -2.0877 -2.4474  2.3859
 2064TIP3   OH2 6155   3.670   2.206   0.757 -0.0087 -0.1793  0.1386
 2064TIP3    H1 6156   3.712   2.292   0.762  1.1310 -0.6589 -0.6104
 2064TIP3    H2 6157   3.701   2.170   0.674  1.3718 -2.2189  1.4609
 2065TIP3   OH2 6158   1.246   0.300   1.800 -0.4091 -0.0119  0.3761
 2065TIP3    H1 6159   1.293   0.337   1.875  1.5027 -1.1157 -0.1850
 2065TIP3    H2 6160   1.184   0.239   1.838 -1.5422  1.5698  1.1611
 2066TIP3   OH2 6161   0.615   0.290   5.179  0.2946  0.0484 -0.1349
 2066TIP3    H1 6162   0.637   0.245   5.260 -1.6058 -1.9669 -0.6283
 2066TIP3    H2 6163   0.564   0.366   5.206  0.2338 -0.2450  0.5920
 2067TIP3   OH2 6164   7.007   0.994   3.224 -0.1012  0.1664  0.9245
 2067TIP3    H1 6165   7.100   1.016   3.226  0.2617 -1.3044  1.4802
 2067TIP3    H2 6166   7.005   0.899   3.235 -1.6208  0.0367 -0.1935
 2068TIP3   OH2 6167   6.844   6.727   1.074  0.3492  0.3522 -0.6364
 2068TIP3    H1 6168   6.840   6.771   0.989  1.1119  1.0544 -0.3179
 2068TIP3    H2 6169   6.820   6.796   1.137  0.6711  0.0727 -0.2066
 2069TIP3   OH2 6170   1.138   2.753   0.445  0.3633  0.1696  0.4149
 2069TIP3    H1 6171   1.145   2.695   0.369 -1.3419 -0.3645  0.6336
 2069TIP3    H2 6172   1.101   2.834   0.409 -0.8961 -0.2476  0.7141
 2070TIP3   OH2 6173   2.723   0.398   0.318  0.4610  0.0159 -0.0030
 2070TIP3    H1 6174   2.652   0.385   0.380 -0.6286  0.9708 -0.9953
 2070TIP3    H2 6175   2.682   0.389   0.232  1.7740 -0.5141 -0.6097
 2071TIP3   OH2 6176   3.100   5.039   5.218 -0.5713 -0.3820 -0.1552
 2071TIP3    H1 6177   3.092   5.109   5.153 -1.0988 -0.4090 -0.1267
 2071TIP3    H2 6178   3.187   5.002   5.204  0.6338  1.7181  1.2757
 2072TIP3   OH2 6179   3.493   4.011   4.402  0.4754 -0.0150 -0.3016
 2072TIP3    H1 6180   3.492   4.091   4.454  1.8413  0.6358 -1.2284
 2072TIP3    H2 6181   3.445   3.948   4.455 -0.0232  1.2148  0.7661
 2073TIP3   OH2 6182   6.655   0.449   5.315 -0.4924 -0.3021 -0.4235
 2073TIP3    H1 6183   6.696   0.476   5.233 -0.8101  0.0396 -0.4713
 2073TIP3    H2 6184   6.692   0.363   5.333  2.7214  1.2643  1.2011
 2074TIP3   OH2 6185   1.371   6.510   1.388 -0.1720 -0.1100 -0.2324
 2074TIP3    H1 6186   1.348   6.470   1.303  1.8773 -0.7063 -0.5597
 2074TIP3    H2 6187   1.432   6.580   1.366 -1.8360  1.6582  0.5639
 2075TIP3   OH2 6188   3.218   0.058   3.453 -0.1302  0.6499  0.4991
 2075TIP3    H1 6189   3.274   0.133   3.471  0.3820  0.5545 -0.6555
 2075TIP3    H2 6190   3.172   0.080   3.372  0.7083 -0.6499 -0.3531
 2076TIP3   OH2 6191   5.269   1.172   4.061  0.0786  0.6510 -0.6440
 2076TIP3    H1 6192   5.302   1.250   4.105  0.3184  0.5991 -0.7253
 2076TIP3    H2 6193   5.295   1.184   3.970  0.1551  0.4569 -0.6482
 2077TIP3   OH2 6194   5.051   3.920   4.485  0.0111  0.2060 -0.1309
 2077TIP3    H1 6195   4.998   3.976   4.543 -0.4964 -0.1674 -0.2243
 2077TIP3    H2 6196   5.122   3.977   4.455 -0.2032  0.6506  0.1881
 2078TIP3   OH2 6197   4.588   0.950   2.971  0.6304  0.4732 -0.0621
 2078TIP3    H1 6198   4.612   0.880   3.032  0.3786 -0.8546 -1.4251
 2078TIP3    H2 6199   4.561   0.904   2.891 -0.6920  2.0954 -0.6085
 2079TIP3   OH2 6200   0.690   2.419   3.108  0.4079 -0.5729  0.3222
 2079TIP3    H1 6201   0.766   2.461   3.068  1.6794 -1.9775  1.1620
 2079TIP3    H2 6202   0.631   2.400   3.035  1.1022  0.0451 -0.4091
 2080TIP3   OH2 6203   2.638   3.633   1.308 -0.3435  0.5594 -0.3423
 2080TIP3    H1 6204   2.580   3.671   1.241  0.4793  2.3276 -0.1124
 2080TIP3    H2 6205   2.578   3.595   1.372 -1.2857  2.0486 -0.2811
 2081TIP3   OH2 6206   4.607   6.220   1.589  0.4545  0.0564  0.3927
 2081TIP3    H1 6207   4.648   6.272   1.658  0.2534  0.1587  0.4325
 2081TIP3    H2 6208   4.582   6.283   1.522 -2.5846  0.4368  1.7599
 2082TIP3   OH2 6209   5.189   6.269   0.937 -0.7123  0.0519  0.4305
 2082TIP3    H1 6210   5.166   6.291   1.027  0.1362  2.6985  0.0912
 2082TIP3    H2 6211   5.180   6.173   0.932  0.8602 -0.4024  3.7849
 2083TIP3   OH2 6212   6.622   2.226   1.057 -0.3618  0.1071  0.4974
 2083TIP3    H1 6213   6.616   2.291   1.127  0.7516 -0.3849  1.0922
 2083TIP3    H2 6214   6.610   2.142   1.101 -0.0781 -0.1809  0.0390
 2084TIP3   OH2 6215   6.553   1.041   2.742 -0.3696  0.9443 -0.1396
 2084TIP3    H1 6216   6.459   1.033   2.759 -0.2210  0.1619  0.3975
 2084TIP3    H2 6217   6.564   1.001   2.656 -0.5802  1.3866 -0.3751
 2085TIP3   OH2 6218   0.152   1.176   1.661  0.0641  0.3253  0.9501
 2085TIP3    H1 6219   0.217   1.228   1.614 -1.4204 -0.1462 -1.8454
 2085TIP3    H2 6220   0.193   1.090   1.671  0.3046  0.3593  0.2629
 2086TIP3   OH2 6221   2.281   3.460   4.723  0.1048 -0.4196 -0.0192
 2086TIP3    H1 6222   2.327   3.496   4.799 -0.3921  0.4871 -0.1328
 2086TIP3    H2 6223   2.203   3.418   4.760  1.6570 -3.2427  0.3333
 2087TIP3   OH2 6224   1.485   2.772   5.226 -0.1380  0.0186 -0.0147
 2087TIP3    H1 6225   1.523   2.859   5.218  0.3370 -0.1284  0.6200
 2087TIP3    H2 6226   1.485   2.753   5.320  1.9138 -1.6007 -0.2707
 2088TIP3   OH2 6227   2.524   5.992   2.901  0.3614 -0.0170 -0.7021
 2088TIP3    H1 6228   2.588   5.922   2.888 -1.1128 -2.0780  1.9311
 2088TIP3    H2 6229   2.575   6.067   2.931  1.6654 -1.5424  1.1518
 2089TIP3   OH2 6230   3.704   0.633   5.837 -0.5860 -0.1818 -0.2290
 2089TIP3    H1 6231   3.630   0.650   5.778 -0.3964  0.7344 -0.2181
 2089TIP3    H2 6232   3.768   0.700   5.815  1.0684 -2.0881 -1.5199
 2090TIP3   OH2 6233   2.558   1.121   4.374  0.4705  0.3808  0.1031
 2090TIP3    H1 6234   2.504   1.197   4.394  1.2087  0.8566  0.3083
 2090TIP3    H2 6235   2.558   1.069   4.454 -0.8107 -0.3447 -0.3238
 2091TIP3   OH2 6236   2.947   2.159   2.174 -0.3359  0.5095  0.2369
 2091TIP3    H1 6237   3.004   2.166   2.097  0.6818 -0.1946  0.9074
 2091TIP3    H2 6238   3.006   2.134   2.245 -1.6494 -1.4186  0.7082
 2092TIP3   OH2 6239   1.118   2.571   0.965  0.3081 -0.0957  0.0598
 2092TIP3    H1 6240   1.028   2.558   0.995  0.1488  1.2988  0.2360
 2092TIP3    H2 6241   1.166   2.594   1.044  0.2016  2.0416 -0.4457
 2093TIP3   OH2 6242   6.134   6.276   3.265 -0.1702 -0.0063  0.2728
 2093TIP3    H1 6243   6.218   6.299   3.307  0.2515  0.0016 -0.5522
 2093TIP3    H2 6244   6.073   6.343   3.296  0.1958  0.1515  0.6670
 2094TIP3   OH2 6245   6.314   0.689   1.398 -0.2734 -0.1727 -0.1725
 2094TIP3    H1 6246   6.233   0.673   1.446  0.2332  0.4717  0.9291
 2094TIP3    H2 6247   6.332   0.606   1.353 -1.1225 -0.5694  0.2106
 2095TIP3   OH2 6248   1.272   2.089   4.110  0.5069  0.3890  0.1116
 2095TIP3    H1 6249   1.252   2.084   4.203 -1.0307  0.1437 -0.2107
 2095TIP3    H2 6250   1.363   2.060   4.103  0.0607 -1.4852  1.3309
 2096TIP3   OH2 6251   6.594   4.929   3.353  0.4811  0.4212 -0.2241
 2096TIP3    H1 6252   6.619   4.862   3.416  0.3163  0.0571 -0.5399
 2096TIP3    H2 6253   6.578   4.881   3.272  2.8672  1.1016 -1.1744
 2097TIP3   OH2 6254   1.854   6.430   3.078  0.2930 -0.3201  0.0600
 2097TIP3    H1 6255   1.902   6.388   3.149  0.9010 -0.3765 -0.3745
 2097TIP3    H2 6256   1.863   6.370   3.004  0.0352 -0.0545 -0.1917
 2098TIP3   OH2 6257   3.609   1.957   3.075  0.0575 -0.0396  0.4045
 2098TIP3    H1 6258   3.627   2.042   3.035  1.7857 -1.0205 -1.0890
 2098TIP3    H2 6259   3.606   1.975   3.169 -2.3110  2.0580  0.0227
 2099TIP3   OH2 6260   0.451   0.174   4.674 -0.0939 -0.2844  0.0553
 2099TIP3    H1 6261   0.505   0.096   4.658 -1.4906 -1.0563 -1.1688
 2099TIP3    H2 6262   0.445   0.216   4.588 -0.1032  0.6907  0.5283
 2100TIP3   OH2 6263   1.527   0.431   2.531  0.0336 -0.2405  0.7487
 2100TIP3    H1 6264   1.565   0.501   2.584  1.5315  0.3662 -1.0102
 2100TIP3    H2 6265   1.598   0.367   2.522 -0.5564 -0.8570  0.3900
 2101TIP3   OH2 6266   1.973   3.115   4.929  0.1003  0.5904 -0.1943
 2101TIP3    H1 6267   2.055   3.070   4.951 -0.9349 -1.2340  0.0463
 2101TIP3    H2 6268   1.904   3.059   4.962 -1.3392  1.1341 -2.0704
 2102TIP3   OH2 6269   5.450   0.112   1.646  0.4627  0.2860  0.5579
 2102TIP3    H1 6270   5.389   0.185   1.637 -1.4444 -1.1710  1.1273
 2102TIP3    H2 6271   5.500   0.113   1.564  0.1897  1.9369  0.3704
 2103TIP3   OH2 6272   5.592   1.973   2.672  1.0002 -0.6310  0.4651
 2103TIP3    H1 6273   5.628   2.001   2.588  0.6973  1.2730  0.9237
 2103TIP3    H2 6274   5.665   1.980   2.733  0.8519 -0.5599  0.6369
 2104TIP3   OH2 6275   6.874   6.451   2.177  0.0372 -0.1410  0.3780
 2104TIP3    H1 6276   6.812   6.492   2.238 -1.3323 -0.2487 -0.8979
 2104TIP3    H2 6277   6.886   6.516   2.108 -0.4454 -1.0070 -0.5435
 2105TIP3   OH2 6278   6.379   5.609   1.612 -0.0259  0.5039  0.7678
 2105TIP3    H1 6279   6.416   5.523   1.595 -0.8805  0.1773  0.5075
 2105TIP3    H2 6280   6.451   5.659   1.651  1.4289  0.6708 -1.8953
 2106TIP3   OH2 6281   5.327   4.504   2.408  0.1405  0.7629  0.6299
 2106TIP3    H1 6282   5.241   4.473   2.437  0.1391  0.6699  0.5287
 2106TIP3    H2 6283   5.321   4.507   2.313  0.6525 -0.4710  0.5317
 2107TIP3   OH2 6284   5.149   2.708   2.357 -0.0488 -0.2760  0.0576
 2107TIP3    H1 6285   5.128   2.750   2.273  2.1501 -1.6094 -1.2383
 2107TIP3    H2 6286   5.122   2.772   2.423  0.8662  2.1207 -1.7486
 2108TIP3   OH2 6287   3.158   1.634   2.788  0.5445 -0.1653 -0.0922
 2108TIP3    H1 6288   3.216   1.574   2.742  1.4535  0.2511  0.4802
 2108TIP3    H2 6289   3.202   1.652   2.871 -0.4553  0.0846  0.3997
 2109TIP3   OH2 6290   3.368   2.158   4.557 -0.0573  0.3057 -0.2336
 2109TIP3    H1 6291   3.340   2.107   4.633  3.0988 -1.8172 -0.3053
 2109TIP3    H2 6292   3.301   2.141   4.491 -0.6473 -1.3552  0.7209
 2110TIP3   OH2 6293   4.126   0.523   4.031  0.0199  0.1783  0.2441
 2110TIP3    H1 6294   4.092   0.479   3.952 -0.2387 -0.7111  0.8371
 2110TIP3    H2 6295   4.211   0.482   4.045 -0.3998 -0.4517  1.0380
 2111TIP3   OH2 6296   3.727   0.676   3.070  0.1395 -0.1158  0.1490
 2111TIP3    H1 6297   3.821   0.659   3.074 -0.1044 -1.3697  0.7564
 2111TIP3    H2 6298   3.686   0.590   3.076 -1.0311  0.2608 -1.6371
 2112TIP3   OH2 6299   4.665   0.388   3.789 -0.3321  0.2266 -0.2493
 2112TIP3    H1 6300   4.697   0.450   3.723  0.5386 -1.9985 -2.0554
 2112TIP3    H2 6301   4.578   0.364   3.758  0.6123 -1.8642 -1.4555
 2113TIP3   OH2 6302   2.219   4.697   5.673  0.2503 -0.3525  0.5284
 2113TIP3    H1 6303   2.147   4.751   5.705 -0.8110 -1.6237  0.3479
 2113TIP3    H2 6304   2.291   4.759   5.659 -1.2008  1.1819 -0.5768
 2114TIP3   OH2 6305   5.445   4.770   5.331  0.4078 -0.2109  0.3357
 2114TIP3    H1 6306   5.389   4.710   5.380  2.0272 -0.2825  2.2572
 2114TIP3    H2 6307   5.513   4.795   5.394  1.9506  0.6458 -1.5734
 2115TIP3   OH2 6308   6.373   0.970   5.503 -0.1285 -0.0226 -0.4858
 2115TIP3    H1 6309   6.310   1.042   5.508  0.8915  0.9074 -0.7522
 2115TIP3    H2 6310   6.361   0.921   5.584 -0.8917  0.3841 -0.3445
 2116TIP3   OH2 6311   4.136   5.860   2.042  0.2269 -0.2815  0.2174
 2116TIP3    H1 6312   4.212   5.913   2.067 -0.6135  0.1527  2.0198
 2116TIP3    H2 6313   4.061   5.904   2.082 -0.8242 -1.3862 -0.4615
 2117TIP3   OH2 6314   6.851   0.264   5.397  0.1303  0.5101 -0.3132
 2117TIP3    H1 6315   6.908   0.301   5.464  1.4233  0.1340 -1.1793
 2117TIP3    H2 6316   6.900   0.273   5.315 -1.0365  0.1488 -1.0834
 2118TIP3   OH2 6317   4.982   4.350   5.007  0.2737 -0.3573 -0.0012
 2118TIP3    H1 6318   5.032   4.410   5.062  0.5595  1.1099 -1.7809
 2118TIP3    H2 6319   5.044   4.317   4.943 -0.9253  1.5850 -2.3230
 2119TIP3   OH2 6320   7.117   0.107   5.454 -0.2078  0.0006  0.0494
 2119TIP3    H1 6321   7.090   0.034   5.398  0.8938  0.0509 -0.5829
 2119TIP3    H2 6322   7.156   0.170   5.393  1.1439 -0.0036  0.8771
 2120TIP3   OH2 6323   5.634   1.861   1.864  0.7017 -0.0343  0.1097
 2120TIP3    H1 6324   5.652   1.800   1.793  0.4705 -1.4462  1.2104
 2120TIP3    H2 6325   5.637   1.807   1.943  1.9697  1.6532  1.2978
 2121TIP3   OH2 6326   6.788   1.554   2.629  0.7421  0.1312 -0.3097
 2121TIP3    H1 6327   6.749   1.471   2.605  1.8215 -0.5950  0.3595
 2121TIP3    H2 6328   6.740   1.582   2.707 -0.2851  0.6548 -1.1062
 2122TIP3   OH2 6329   6.545   1.327   5.026  0.2702 -0.3070 -0.1303
 2122TIP3    H1 6330   6.639   1.323   5.010  0.1803 -1.5611 -0.4461
 2122TIP3    H2 6331   6.535   1.303   5.118  0.1896 -1.4621 -0.4193
 2123TIP3   OH2 6332   0.743   3.066   5.576 -1.0147  0.4520  0.2044
 2123TIP3    H1 6333   0.650   3.055   5.598 -1.2180 -0.1953 -0.9130
 2123TIP3    H2 6334   0.768   3.149   5.617 -2.4692  1.3662 -0.6849
 2124TIP3   OH2 6335   3.780   6.042   2.745 -0.4634 -0.2013  0.3148
 2124TIP3    H1 6336   3.789   6.136   2.728  0.3775 -0.2998  0.1924
 2124TIP3    H2 6337   3.715   6.012   2.681 -1.0807  0.3735  0.6559
 2125TIP3   OH2 6338   5.613   2.705   4.780  0.1051 -0.2687 -0.1415
 2125TIP3    H1 6339   5.671   2.649   4.832  0.8946  0.8244  0.2205
 2125TIP3    H2 6340   5.535   2.653   4.765 -0.1118 -0.6841  2.0611
 2126TIP3   OH2 6341   5.493   6.742   0.505  0.3153 -0.1320 -0.5295
 2126TIP3    H1 6342   5.434   6.757   0.431 -1.4273 -0.0397  0.8164
 2126TIP3    H2 6343   5.568   6.695   0.468 -1.3901 -1.8061 -2.0149
 2127TIP3   OH2 6344   1.960   4.336   0.550  0.1220 -0.4503 -0.7161
 2127TIP3    H1 6345   2.012   4.256   0.562  0.8216 -0.0120 -0.8073
 2127TIP3    H2 6346   2.020   4.407   0.570 -0.5982  0.0520 -0.2817
 2128TIP3   OH2 6347   7.073   6.755   5.319 -0.1798  0.7417 -0.3519
 2128TIP3    H1 6348   7.137   6.768   5.388  0.2960 -1.3737 -0.3269
 2128TIP3    H2 6349   6.989   6.755   5.364  0.0044  0.9069 -0.0018
 2129TIP3   OH2 6350   3.398   3.940   3.824  0.5175  0.2646  0.3497
 2129TIP3    H1 6351   3.321   3.894   3.790 -1.0622  3.0563 -0.1873
 2129TIP3    H2 6352   3.424   3.998   3.753  1.7366  0.9727  1.3438
 2130TIP3   OH2 6353   5.841   6.741   4.118 -0.2746 -0.7938  0.0341
 2130TIP3    H1 6354   5.819   6.795   4.194  0.2686 -0.3772 -0.0983
 2130TIP3    H2 6355   5.846   6.652   4.152  2.3769 -0.3631  1.0417
 2131TIP3   OH2 6356   2.949   2.724   1.130  0.1468  0.6118 -0.0392
 2131TIP3    H1 6357   3.006   2.692   1.200  1.1909  0.7719 -0.7972
 2131TIP3    H2 6358   2.921   2.646   1.083 -1.2025  0.4286  1.0064
 2132TIP3   OH2 6359   3.929   1.565   0.269 -1.1005  0.5187 -0.5596
 2132TIP3    H1 6360   3.898   1.533   0.184 -0.3540 -0.4015 -0.5006
 2132TIP3    H2 6361   4.012   1.520   0.283 -1.1723  0.7162  0.6307
 2133TIP3   OH2 6362   5.737   5.559   0.968 -0.1629 -0.2945  0.0860
 2133TIP3    H1 6363   5.772   5.482   1.011  2.5147 -0.8534 -2.7551
 2133TIP3    H2 6364   5.672   5.525   0.907  1.6785 -0.5364 -1.8382
 2134TIP3   OH2 6365   7.089   4.151   4.239 -0.9931 -0.3378  0.1504
 2134TIP3    H1 6366   7.054   4.079   4.186  2.4245 -1.6689 -0.6085
 2134TIP3    H2 6367   7.129   4.211   4.175 -2.4015  1.4734  0.8834
 2135TIP3   OH2 6368   1.275   3.446   2.315  0.2325  0.4501 -0.1518
 2135TIP3    H1 6369   1.215   3.514   2.345 -0.4643 -0.6071  0.9298
 2135TIP3    H2 6370   1.349   3.450   2.375  0.7120  0.9821 -0.7714
 2136TIP3   OH2 6371   6.703   5.122   2.311  0.7120  0.4662  0.2368
 2136TIP3    H1 6372   6.735   5.157   2.395  1.4920  0.7646 -0.1710
 2136TIP3    H2 6373   6.753   5.041   2.299  2.8189  1.8763 -1.3083
 2137TIP3   OH2 6374   5.651   0.557   4.544 -0.0378  0.6076 -0.3192
 2137TIP3    H1 6375   5.647   0.463   4.527  1.6558  0.3378  0.4688
 2137TIP3    H2 6376   5.564   0.589   4.524 -0.1414 -0.7988 -2.4683
 2138TIP3   OH2 6377   2.800   3.229   0.916  1.0513 -0.1931 -0.4305
 2138TIP3    H1 6378   2.848   3.161   0.963 -0.4743 -1.1755 -0.2200
 2138TIP3    H2 6379   2.730   3.182   0.871  0.4507  1.1468 -0.9377
 2139TIP3   OH2 6380   2.462   3.257   3.591 -0.5861  0.1532 -0.3102
 2139TIP3    H1 6381   2.507   3.333   3.553 -0.1854  0.1281  0.1032
 2139TIP3    H2 6382   2.530   3.212   3.641 -1.3507  0.8387  1.4118
 2140TIP3   OH2 6383   6.755   6.169   1.211  0.4803 -0.3488  0.1482
 2140TIP3    H1 6384   6.806   6.088   1.220 -0.0430 -0.7456 -0.3253
 2140TIP3    H2 6385   6.784   6.206   1.128 -0.2067 -0.7440 -0.2859
 2141TIP3   OH2 6386   4.136   0.855   3.697 -0.5168  0.3082 -0.1591
 2141TIP3    H1 6387   4.204   0.891   3.754  0.3074 -2.2087  0.5472
 2141TIP3    H2 6388   4.057   0.853   3.751  0.2144 -1.8838  0.9150
 2142TIP3   OH2 6389   0.884   6.036   1.869  0.2626 -0.3588 -1.0031
 2142TIP3    H1 6390   0.873   6.131   1.859 -0.6598 -0.5661 -2.2465
 2142TIP3    H2 6391   0.949   6.027   1.939 -1.5657  1.1381  1.0429
 2143TIP3   OH2 6392   6.419   2.080   5.164 -0.7392  0.4824 -0.0714
 2143TIP3    H1 6393   6.492   2.093   5.104  0.5968 -1.6792  0.9636
 2143TIP3    H2 6394   6.357   2.025   5.115 -2.0562  2.8048 -1.1655
 2144TIP3   OH2 6395   2.968   1.062   2.232  0.3345 -0.0217 -0.2585
 2144TIP3    H1 6396   2.995   0.971   2.221 -0.5235 -0.3577  0.3379
 2144TIP3    H2 6397   2.976   1.100   2.144 -1.1760 -1.2051 -0.9442
 2145TIP3   OH2 6398   3.093   2.915   1.473 -0.1121  0.7233  0.0937
 2145TIP3    H1 6399   3.048   2.960   1.401  0.4901  0.3167 -0.5488
 2145TIP3    H2 6400   3.141   2.845   1.430 -0.0270  0.2569  0.9480
 2146TIP3   OH2 6401   2.727   1.534   0.719 -0.4502 -0.4491  0.0150
 2146TIP3    H1 6402   2.785   1.548   0.644  0.6899  0.8739  1.0701
 2146TIP3    H2 6403   2.772   1.467   0.771 -0.3318 -0.1015  0.3671
 2147TIP3   OH2 6404   6.834   0.465   0.505 -0.1345  0.4663 -0.8300
 2147TIP3    H1 6405   6.772   0.534   0.482 -0.3914 -0.0311 -1.7290
 2147TIP3    H2 6406   6.804   0.433   0.590 -1.3454  0.0046 -1.3949
 2148TIP3   OH2 6407   2.341   2.839   5.486 -0.5038 -0.0799  0.2430
 2148TIP3    H1 6408   2.391   2.811   5.409  2.0681  1.7878  1.0804
 2148TIP3    H2 6409   2.349   2.766   5.548  0.7623 -0.0854  0.1108
 2149TIP3   OH2 6410   6.371   4.259   0.033  0.4595  0.0964 -0.0708
 2149TIP3    H1 6411   6.338   4.312  -0.040 -1.8441 -2.3262 -0.9663
 2149TIP3    H2 6412   6.352   4.312   0.110 -2.8670  0.2778 -0.8191
 2150TIP3   OH2 6413   1.475   3.973   2.715 -0.3921  0.0900 -0.6811
 2150TIP3    H1 6414   1.436   4.003   2.633  0.8456  1.9522 -0.6592
 2150TIP3    H2 6415   1.412   4.000   2.782 -0.8445 -0.3595 -0.9215
 2151TIP3   OH2 6416   7.137   1.443   5.351 -0.4543 -0.2323  0.4452
 2151TIP3    H1 6417   7.070   1.508   5.373  0.0091  0.8319 -1.0947
 2151TIP3    H2 6418   7.089   1.362   5.339 -1.8416  0.8666 -2.3819
 2152TIP3   OH2 6419   0.351   6.727   4.360  0.2096 -0.1611 -0.2096
 2152TIP3    H1 6420   0.317   6.658   4.416  0.5509  0.7966  1.2435
 2152TIP3    H2 6421   0.416   6.684   4.304 -0.3604 -1.1999 -0.0886
 2153TIP3   OH2 6422   0.745   3.060   4.717 -0.3678 -0.3199  0.4015
 2153TIP3    H1 6423   0.718   3.039   4.627  0.5141  0.8164 -0.1551
 2153TIP3    H2 6424   0.695   3.138   4.740  1.3187  1.0120 -0.1511
 2154TIP3   OH2 6425   2.641   0.472   5.088  0.0159 -0.4517  0.1479
 2154TIP3    H1 6426   2.613   0.500   5.001  0.3338 -0.2258  0.1211
 2154TIP3    H2 6427   2.736   0.468   5.083 -0.0201 -1.5630  0.1384
 2155TIP3   OH2 6428   4.528   6.404   4.904 -0.0392 -0.8463  0.9514
 2155TIP3    H1 6429   4.537   6.370   4.815 -4.8062 -1.4802  0.4509
 2155TIP3    H2 6430   4.496   6.493   4.892 -0.1493 -0.7311  2.0324
 2156TIP3   OH2 6431   0.707   0.709   1.416  0.4645 -0.0662  0.0623
 2156TIP3    H1 6432   0.704   0.614   1.407  2.5567 -0.3112  1.2753
 2156TIP3    H2 6433   0.782   0.735   1.363 -1.2026  1.1895 -1.8075
 2157TIP3   OH2 6434   0.765   0.932   0.663 -0.6299  0.2883  0.3088
 2157TIP3    H1 6435   0.712   0.863   0.702  0.5501 -0.4350  0.7043
 2157TIP3    H2 6436   0.809   0.974   0.738  0.6910 -0.2872 -0.1103
 2158TIP3   OH2 6437   1.992   2.567   3.578  0.1815 -0.3832  0.1929
 2158TIP3    H1 6438   2.040   2.591   3.657 -1.8260  0.0559  1.3235
 2158TIP3    H2 6439   1.989   2.647   3.526  0.8105 -0.4658  0.0179
 2159TIP3   OH2 6440   7.131   4.953   4.828 -0.1538 -0.3713 -0.1203
 2159TIP3    H1 6441   7.066   5.010   4.787 -0.0465 -0.1140  0.0637
 2159TIP3    H2 6442   7.177   4.912   4.755  1.2177  1.3989 -0.3306
 2160TIP3   OH2 6443   3.878   2.296   2.365  0.2176  0.3427 -0.4648
 2160TIP3    H1 6444   3.786   2.277   2.383  0.2280 -0.1398 -0.9176
 2160TIP3    H2 6445   3.903   2.358   2.434  0.0829 -0.9713  0.8097
 2161TIP3   OH2 6446   5.389   1.991   4.570 -0.5820  0.2661  0.7836
 2161TIP3    H1 6447   5.318   1.950   4.620  0.2458 -0.7992  1.1317
 2161TIP3    H2 6448   5.451   2.021   4.637  0.2599 -0.6560  0.4336
 2162TIP3   OH2 6449   2.737   6.392   0.793 -0.0317  0.1907 -0.0695
 2162TIP3    H1 6450   2.778   6.319   0.840  0.3597  0.4179 -0.0527
 2162TIP3    H2 6451   2.671   6.425   0.854  0.3206  0.3392  0.2394
 2163TIP3   OH2 6452   6.632   4.384   5.143 -0.1627 -0.7499 -0.4793
 2163TIP3    H1 6453   6.547   4.397   5.102 -0.1856 -0.9106 -0.4840
 2163TIP3    H2 6454   6.651   4.291   5.131 -0.2413 -0.8330  0.0045
 2164TIP3   OH2 6455   3.432   2.293   0.606  0.0784  0.8803 -0.2322
 2164TIP3    H1 6456   3.493   2.343   0.551  0.0358  0.4563 -0.6757
 2164TIP3    H2 6457   3.482   2.273   0.685  1.1859 -1.0775 -1.3545
 2165TIP3   OH2 6458   3.055   4.688   3.439  0.1743 -0.3675 -1.1407
 2165TIP3    H1 6459   3.130   4.639   3.405  1.3632  0.6653 -0.1363
 2165TIP3    H2 6460   3.028   4.638   3.517  1.9990  0.9675  0.4502
 2166TIP3   OH2 6461   2.444   3.524   4.918 -0.1789  0.2006  0.1111
 2166TIP3    H1 6462   2.440   3.578   4.997  0.5003 -0.3605  0.5416
 2166TIP3    H2 6463   2.439   3.434   4.951 -3.7835 -0.0654 -0.7246
 2167TIP3   OH2 6464   4.729   6.649   0.594 -0.5493 -0.1572 -0.1118
 2167TIP3    H1 6465   4.662   6.584   0.617  0.5332 -1.1456  0.3561
 2167TIP3    H2 6466   4.686   6.733   0.609 -1.7104 -0.7591  0.1150
 2168TIP3   OH2 6467   4.003   4.243   0.501 -0.3540  0.3653 -0.1387
 2168TIP3    H1 6468   3.973   4.288   0.422  0.1070  0.2614 -0.3735
 2168TIP3    H2 6469   4.098   4.242   0.494 -0.3235  0.0589  0.2564
 2169TIP3   OH2 6470   5.504   0.071   1.365 -0.2609  0.0238  0.4158
 2169TIP3    H1 6471   5.588   0.090   1.322  0.0820 -0.6181  0.7863
 2169TIP3    H2 6472   5.455   0.153   1.359 -0.2011 -0.0262 -1.1341
 2170TIP3   OH2 6473   4.077   4.709   2.120  0.1196  0.2018 -0.1922
 2170TIP3    H1 6474   4.078   4.627   2.171 -1.3366 -0.5810 -1.3234
 2170TIP3    H2 6475   4.037   4.684   2.037  1.6656  1.6257 -1.4263
 2171TIP3   OH2 6476   2.295   1.167   0.382 -0.1755 -0.1222  0.4599
 2171TIP3    H1 6477   2.231   1.205   0.443  0.3975  0.9726  0.4041
 2171TIP3    H2 6478   2.289   1.223   0.304 -0.0023 -0.7493 -0.0099
 2172TIP3   OH2 6479   3.569   3.435   1.977  0.4735 -0.4087  0.2798
 2172TIP3    H1 6480   3.526   3.391   1.903  0.4918  1.4237 -0.8899
 2172TIP3    H2 6481   3.663   3.424   1.959  0.4784 -0.3627  0.2768
 2173TIP3   OH2 6482   0.605   2.779   5.507  0.0252  0.9265  0.4912
 2173TIP3    H1 6483   0.519   2.774   5.465 -0.7657 -1.9633  2.1049
 2173TIP3    H2 6484   0.592   2.840   5.580 -0.2939  1.4376  0.0166
 2174TIP3   OH2 6485   1.524   0.747   0.884  0.0599  0.3497  0.0762
 2174TIP3    H1 6486   1.487   0.714   0.966 -0.1387 -0.4741 -0.3397
 2174TIP3    H2 6487   1.613   0.772   0.906 -0.3849  1.3500  0.8408
 2175TIP3   OH2 6488   2.819   0.409   4.749 -0.3375 -0.3313 -0.2523
 2175TIP3    H1 6489   2.830   0.419   4.654 -0.3564 -0.5119 -0.2744
 2175TIP3    H2 6490   2.908   0.395   4.781  0.4706  4.4705  0.3795
 2176TIP3   OH2 6491   0.830   5.472   3.944 -0.3719 -0.1062 -0.4279
 2176TIP3    H1 6492   0.886   5.454   3.869  2.1896 -2.1847  1.7781
 2176TIP3    H2 6493   0.810   5.385   3.980 -3.7085  0.6625 -0.1022
 2177TIP3   OH2 6494   1.894   6.211   3.492  0.6495 -0.3988  0.0147
 2177TIP3    H1 6495   1.930   6.124   3.511  2.1869  0.3270  0.5110
 2177TIP3    H2 6496   1.911   6.262   3.571 -0.1781  0.3938 -0.2971
 2178TIP3   OH2 6497   3.050   1.881   0.263 -0.7383 -0.0310 -0.1069
 2178TIP3    H1 6498   3.028   1.906   0.173 -1.4404  0.1234  0.1008
 2178TIP3    H2 6499   3.144   1.864   0.260 -0.4502  1.4415 -0.5489
 2179TIP3   OH2 6500   0.710   1.111   1.847 -0.4519  0.1756 -0.6643
 2179TIP3    H1 6501   0.772   1.045   1.818 -0.5249 -0.0994 -0.2034
 2179TIP3    H2 6502   0.648   1.119   1.774 -0.8093 -0.7301 -0.4702
 2180TIP3   OH2 6503   0.225   4.775   4.848 -0.2671  0.7353 -0.5404
 2180TIP3    H1 6504   0.197   4.695   4.894 -0.9359 -0.3897 -2.7749
 2180TIP3    H2 6505   0.234   4.840   4.918  2.4653 -1.7666  1.7213
 2181TIP3   OH2 6506   0.087   6.161   3.788 -0.1804 -0.2445 -0.1003
 2181TIP3    H1 6507   0.039   6.234   3.750  0.8526  0.3695 -0.2833
 2181TIP3    H2 6508   0.038   6.138   3.867  0.0493  1.3714  0.5528
 2182TIP3   OH2 6509   4.730   0.853   0.389  0.0319  0.0981 -0.3367
 2182TIP3    H1 6510   4.816   0.884   0.417  0.0953 -0.1809 -0.2223
 2182TIP3    H2 6511   4.701   0.796   0.460 -0.5749  0.7795 -0.0206
 2183TIP3   OH2 6512   2.430   3.392   2.905  0.5018  0.0695 -0.4543
 2183TIP3    H1 6513   2.397   3.417   2.819  0.6539 -2.6429 -1.3909
 2183TIP3    H2 6514   2.474   3.309   2.891 -2.4808 -2.3606  2.7530
 2184TIP3   OH2 6515   0.592   0.840   4.658  0.4581  0.6403  0.1106
 2184TIP3    H1 6516   0.688   0.845   4.655  0.5486 -0.1739  1.0205
 2184TIP3    H2 6517   0.574   0.800   4.743 -0.7641  2.3729  0.7194
 2185TIP3   OH2 6518   7.147   0.342   1.860  0.0536  0.2439 -0.0942
 2185TIP3    H1 6519   7.075   0.397   1.827 -0.8712 -0.7552  0.2265
 2185TIP3    H2 6520   7.106   0.284   1.923  0.9807 -0.9615 -0.5716
 2186TIP3   OH2 6521   0.465   6.743   2.765  0.0277 -0.0184  0.2509
 2186TIP3    H1 6522   0.467   6.784   2.851 -0.8279 -1.0275  0.7752
 2186TIP3    H2 6523   0.411   6.665   2.777 -1.5575  0.7192 -1.5892
 2187TIP3   OH2 6524   0.386   2.284   5.609 -0.1196 -0.0551  0.0922
 2187TIP3    H1 6525   0.453   2.217   5.622  0.7942  1.1047  1.8786
 2187TIP3    H2 6526   0.433   2.357   5.568 -0.7550  0.0514 -0.4662
 2188TIP3   OH2 6527   0.513   1.555   0.911  0.0896  0.2999 -0.4004
 2188TIP3    H1 6528   0.549   1.634   0.870  0.8413  0.1378 -0.0761
 2188TIP3    H2 6529   0.435   1.585   0.957  0.9037  1.0651  0.5410
 2189TIP3   OH2 6530   1.080   5.026   5.102 -0.1709 -0.3293 -0.1848
 2189TIP3    H1 6531   1.172   5.052   5.103 -0.3650  0.4167 -0.7222
 2189TIP3    H2 6532   1.036   5.095   5.052 -1.0881 -0.4607  0.4114
 2190TIP3   OH2 6533   6.609   1.684   0.196  0.0156  0.4185  0.1587
 2190TIP3    H1 6534   6.563   1.601   0.205  1.0278 -0.2004 -0.2836
 2190TIP3    H2 6535   6.576   1.738   0.268 -1.3698 -0.0049 -0.1186
 2191TIP3   OH2 6536   0.687   3.740   3.568  0.2950  0.0146  0.2443
 2191TIP3    H1 6537   0.699   3.647   3.548  1.6133 -0.0180  1.0606
 2191TIP3    H2 6538   0.636   3.774   3.495  1.3758 -0.9724 -1.0253
 2192TIP3   OH2 6539   1.756   2.280   5.123 -0.0946  0.2154  0.8608
 2192TIP3    H1 6540   1.806   2.359   5.142  0.7597  0.0557 -0.6109
 2192TIP3    H2 6541   1.792   2.215   5.184  0.6380  0.4236  0.6570
 2193TIP3   OH2 6542   3.950   0.707   4.669 -0.1166  0.5740 -0.0628
 2193TIP3    H1 6543   3.980   0.737   4.755 -0.6590  0.3203  0.2236
 2193TIP3    H2 6544   4.030   0.703   4.616  0.5256 -0.8701  0.9116
 2194TIP3   OH2 6545   5.080   4.582   1.897 -0.1362  0.2141 -0.1684
 2194TIP3    H1 6546   5.016   4.651   1.881  0.4608  0.8986  0.3356
 2194TIP3    H2 6547   5.164   4.626   1.891  0.2258 -0.1809  1.3997
 2195TIP3   OH2 6548   2.152   1.294   1.134 -0.1928  0.1474  0.2192
 2195TIP3    H1 6549   2.083   1.356   1.158  1.9139  3.1164 -0.7197
 2195TIP3    H2 6550   2.127   1.264   1.047 -1.6753 -1.0706  1.0244
 2196TIP3   OH2 6551   6.435   3.249   0.713 -0.6209 -0.2059 -0.0096
 2196TIP3    H1 6552   6.460   3.333   0.752 -0.7848 -1.0160  1.9764
 2196TIP3    H2 6553   6.339   3.250   0.713 -0.6238 -0.1596 -0.5613
 2197TIP3   OH2 6554   5.916   2.927   1.536  0.0438  0.5203 -0.1030
 2197TIP3    H1 6555   5.927   2.986   1.461  1.9593  1.0584  0.5479
 2197TIP3    H2 6556   5.924   2.983   1.613  2.9415 -0.6239  0.5526
 2198TIP3   OH2 6557   0.225   1.284   2.775  0.1944  0.0309  0.3637
 2198TIP3    H1 6558   0.142   1.328   2.753 -0.0353 -0.0026  1.1409
 2198TIP3    H2 6559   0.206   1.191   2.767  0.2694  0.0301  0.1734
 2199TIP3   OH2 6560   6.486   4.989   0.776 -0.8705  0.0784 -0.0651
 2199TIP3    H1 6561   6.399   4.951   0.785 -0.4191 -1.1675 -0.8315
 2199TIP3    H2 6562   6.482   5.040   0.695 -1.2891  1.2278  0.6445
 2200TIP3   OH2 6563   4.587   5.338   2.255 -0.5939  0.2595  0.3024
 2200TIP3    H1 6564   4.585   5.424   2.213  1.1947  0.2190  0.0465
 2200TIP3    H2 6565   4.677   5.307   2.242 -0.0149  0.0787  3.9030
 2201TIP3   OH2 6566   2.466   0.372   5.273 -0.2127  0.3831  0.6008
 2201TIP3    H1 6567   2.385   0.375   5.222 -0.5631 -1.2355  1.0240
 2201TIP3    H2 6568   2.535   0.366   5.207 -0.6565 -1.5399  0.2600
 2202TIP3   OH2 6569   1.726   5.619   3.822  0.3902  0.4387  0.1727
 2202TIP3    H1 6570   1.782   5.625   3.900  0.1389  0.1688  0.3782
 2202TIP3    H2 6571   1.689   5.531   3.826  1.4789 -0.1018 -1.0183
 2203TIP3   OH2 6572   6.848   1.051   4.922  0.2115 -0.0654 -0.0908
 2203TIP3    H1 6573   6.820   0.972   4.968  0.0347 -0.6462 -1.1694
 2203TIP3    H2 6574   6.941   1.037   4.903 -0.2746 -0.9274 -2.0388
 2204TIP3   OH2 6575   6.278   1.662   5.314 -0.0744  0.0117  0.4160
 2204TIP3    H1 6576   6.298   1.659   5.220  0.5222 -0.3232  0.5484
 2204TIP3    H2 6577   6.194   1.617   5.322  0.8680 -1.8770  0.2965
 2205TIP3   OH2 6578   5.611   5.922   4.684 -0.5037  0.1474  0.3736
 2205TIP3    H1 6579   5.612   5.873   4.766 -1.0233  1.7748  1.4054
 2205TIP3    H2 6580   5.558   5.869   4.625  1.6940 -2.1481  0.3250
 2206TIP3   OH2 6581  -0.016   4.483   1.866 -0.1805  0.4448  0.2855
 2206TIP3    H1 6582  -0.004   4.578   1.868  1.9232  0.2048  1.1964
 2206TIP3    H2 6583   0.040   4.453   1.794 -0.4345 -0.1645  0.3327
 2207TIP3   OH2 6584   7.229   2.541   4.673 -0.2957  0.4616 -0.5122
 2207TIP3    H1 6585   7.237   2.549   4.768  0.6083  0.5177 -0.5816
 2207TIP3    H2 6586   7.136   2.529   4.657 -0.4288  0.2230  0.4018
 2208TIP3   OH2 6587   5.584   6.203   0.081 -0.4256 -0.0204  0.6484
 2208TIP3    H1 6588   5.664   6.189   0.132 -0.4949  0.7730  0.9885
 2208TIP3    H2 6589   5.513   6.178   0.140 -0.6085  2.4377  1.6014
 2209TIP3   OH2 6590   4.105   1.424   2.039  0.1920  0.1712 -0.0496
 2209TIP3    H1 6591   4.157   1.503   2.020 -0.7947  0.9692  0.4862
 2209TIP3    H2 6592   4.157   1.377   2.104  1.6559 -0.5633 -1.6701
 2210TIP3   OH2 6593   0.874   3.342   0.055 -0.1766  0.6160  0.7512
 2210TIP3    H1 6594   0.798   3.401   0.047  0.9692  2.2011  1.0027
 2210TIP3    H2 6595   0.842   3.257   0.025 -1.4675  1.7391 -1.2861
 2211TIP3   OH2 6596   6.522   0.678   0.737  0.0603  0.0975  0.4948
 2211TIP3    H1 6597   6.581   0.751   0.751 -0.2772  0.3596  0.5665
 2211TIP3    H2 6598   6.434   0.716   0.747 -0.1122 -0.3359  0.6320
 2212TIP3   OH2 6599   3.987   0.807   0.134 -0.1859 -0.1369 -0.2994
 2212TIP3    H1 6600   3.991   0.788   0.040  0.1172 -1.0655 -0.1116
 2212TIP3    H2 6601   4.077   0.794   0.165 -0.6357 -1.7693  0.4563
 2213TIP3   OH2 6602   0.036   1.388   3.224 -0.1513  0.3743  0.7708
 2213TIP3    H1 6603   0.109   1.326   3.235 -1.8398 -1.7359  0.7369
 2213TIP3    H2 6604   0.039   1.412   3.131  2.7808  3.4458  1.4813
 2214TIP3   OH2 6605   3.186   5.928   2.846  0.2156  0.1581 -0.2813
 2214TIP3    H1 6606   3.193   6.024   2.848 -2.4066  0.4565 -1.5769
 2214TIP3    H2 6607   3.100   5.909   2.882  1.7444 -2.0312  2.6940
 2215TIP3   OH2 6608   0.325   1.795   4.674 -1.0152 -0.4871  0.0265
 2215TIP3    H1 6609   0.381   1.808   4.751 -0.5440 -1.6094 -0.1085
 2215TIP3    H2 6610   0.386   1.794   4.600 -1.3438 -0.5215 -0.2473
 2216TIP3   OH2 6611   0.385   5.326   2.704 -0.6039 -0.3136 -0.1104
 2216TIP3    H1 6612   0.459   5.385   2.718 -0.8032  0.2345 -1.3043
 2216TIP3    H2 6613   0.320   5.379   2.658 -0.8509 -1.4142 -1.0576
 2217TIP3   OH2 6614   4.916   5.369   1.482  0.0284 -0.5011 -0.3472
 2217TIP3    H1 6615   5.000   5.340   1.449  0.3047 -0.0564 -0.0539
 2217TIP3    H2 6616   4.867   5.397   1.405  1.1285  1.7206 -0.3096
 2218TIP3   OH2 6617   6.841   0.720   0.094 -0.6209  0.0114 -0.2103
 2218TIP3    H1 6618   6.892   0.714   0.013 -0.5308  0.2274 -0.1721
 2218TIP3    H2 6619   6.840   0.631   0.129  0.1675  0.0975  0.0571
 2219TIP3   OH2 6620   5.966   4.402   2.541 -0.0425 -0.0839 -0.4724
 2219TIP3    H1 6621   5.937   4.420   2.631 -0.0421 -1.6973 -0.1238
 2219TIP3    H2 6622   5.954   4.485   2.495 -0.0406  0.7777  1.0162
 2220TIP3   OH2 6623   1.296   2.081   3.662 -0.1164 -0.4085 -0.1723
 2220TIP3    H1 6624   1.378   2.034   3.681 -0.8022 -1.2526  0.8353
 2220TIP3    H2 6625   1.244   2.018   3.611 -0.2394  0.0300 -0.5897
 2221TIP3   OH2 6626   1.462   2.061   5.543 -0.4791 -0.0808  0.3716
 2221TIP3    H1 6627   1.551   2.033   5.563 -0.2175  1.2147  1.1467
 2221TIP3    H2 6628   1.456   2.057   5.448  0.8157  0.9546  0.2181
 2222TIP3   OH2 6629   6.698   1.827   2.013  0.1885  0.3484 -0.1595
 2222TIP3    H1 6630   6.788   1.859   2.004 -0.5538  2.6202 -0.3049
 2222TIP3    H2 6631   6.644   1.904   1.994 -1.7942 -0.9355  0.0043
 2223TIP3   OH2 6632   1.773   0.295   2.473 -0.1899  0.1207 -0.5403
 2223TIP3    H1 6633   1.772   0.305   2.378  0.5864  0.0312 -0.5683
 2223TIP3    H2 6634   1.774   0.200   2.487  0.9220  0.1285 -0.4817
 2224TIP3   OH2 6635   3.171   1.542   1.236  0.0809  0.6466 -0.6683
 2224TIP3    H1 6636   3.178   1.573   1.326 -0.1091 -0.2329 -0.3413
 2224TIP3    H2 6637   3.183   1.447   1.242  3.3597  0.8532 -1.9344
 2225TIP3   OH2 6638   3.257   0.815   3.212 -0.1762  0.3250  0.9653
 2225TIP3    H1 6639   3.176   0.867   3.211  0.6410  1.6420 -0.3579
 2225TIP3    H2 6640   3.320   0.869   3.258 -0.3273 -1.2712  3.2197
 2226TIP3   OH2 6641   4.590   1.432   1.800  0.3787 -0.2631  0.0862
 2226TIP3    H1 6642   4.606   1.337   1.809 -1.8009 -0.8511 -1.5771
 2226TIP3    H2 6643   4.652   1.460   1.733  1.1432 -0.4616  0.6933
 2227TIP3   OH2 6644   0.761   4.546   2.153 -0.0226 -0.4924  0.2470
 2227TIP3    H1 6645   0.733   4.621   2.206  0.3043  0.7491 -1.2597
 2227TIP3    H2 6646   0.839   4.514   2.198  0.5385  0.8395  0.2683
 2228TIP3   OH2 6647   3.929   5.107   2.721  0.1257  0.3878 -0.0226
 2228TIP3    H1 6648   3.906   5.190   2.762 -0.1981  0.2305  0.1181
 2228TIP3    H2 6649   3.868   5.044   2.759  1.0609 -0.1198  0.6727
 2229TIP3   OH2 6650   6.166   6.468   4.556 -0.6191  0.0654 -0.0009
 2229TIP3    H1 6651   6.259   6.489   4.545 -0.7102  0.8359  0.5994
 2229TIP3    H2 6652   6.140   6.428   4.473  0.9522 -2.9622  0.8159
 2230TIP3   OH2 6653   5.119   5.475   3.501 -0.3756 -0.2105  0.0111
 2230TIP3    H1 6654   5.117   5.505   3.410  0.8741  1.2239  0.4151
 2230TIP3    H2 6655   5.043   5.516   3.542 -0.2402  0.1516 -0.0988
 2231TIP3   OH2 6656   2.985   4.606   0.606 -0.5169  0.2653  0.6997
 2231TIP3    H1 6657   2.924   4.679   0.612 -0.8162  0.0566  0.2326
 2231TIP3    H2 6658   2.980   4.563   0.691 -2.0288 -0.5513  0.2351
 2232TIP3   OH2 6659   4.708   0.559   1.261 -0.3099 -0.5903 -0.4942
 2232TIP3    H1 6660   4.796   0.532   1.235  0.5704  1.6729 -0.1258
 2232TIP3    H2 6661   4.671   0.597   1.181  0.4988  1.7875  0.1771
 2233TIP3   OH2 6662   5.954   0.528   5.482 -0.0988  0.7270 -0.0746
 2233TIP3    H1 6663   5.970   0.447   5.530  0.8025  2.1878  2.2485
 2233TIP3    H2 6664   5.866   0.517   5.446  0.1569 -1.4107 -0.1750
 2234TIP3   OH2 6665   2.693   1.906   4.888 -0.4401  0.4841 -0.6010
 2234TIP3    H1 6666   2.714   1.889   4.980 -0.6955 -1.0609 -0.7995
 2234TIP3    H2 6667   2.704   1.821   4.845 -2.5127  0.6377 -1.5722
 2235TIP3   OH2 6668   2.841   1.309   1.116 -0.0595 -0.1279 -0.1609
 2235TIP3    H1 6669   2.808   1.220   1.101 -1.2820  0.1400  0.8058
 2235TIP3    H2 6670   2.765   1.356   1.151  0.7642  1.1224 -0.0407
 2236TIP3   OH2 6671   5.540   5.714   0.204  0.4937 -0.0064  0.0245
 2236TIP3    H1 6672   5.460   5.668   0.227  0.2112  0.3268 -0.2690
 2236TIP3    H2 6673   5.568   5.674   0.121  1.9849 -1.8030  1.3098
 2237TIP3   OH2 6674   1.319   1.892   0.102 -0.0134  0.0093  0.4853
 2237TIP3    H1 6675   1.298   1.936   0.020  1.8196  0.3301  0.1662
 2237TIP3    H2 6676   1.301   1.799   0.085 -2.2821  0.3457  0.6427
 2238TIP3   OH2 6677   3.570   5.364   0.932  0.7567 -0.4563 -0.2171
 2238TIP3    H1 6678   3.503   5.368   1.000  1.7355 -1.2368  0.8078
 2238TIP3    H2 6679   3.652   5.381   0.977  1.3235  0.0870 -1.3977
 2239TIP3   OH2 6680   5.488   4.253   0.640  0.2385  0.4326 -0.4617
 2239TIP3    H1 6681   5.554   4.187   0.662  0.3281  1.0155  1.1532
 2239TIP3    H2 6682   5.480   4.248   0.545  2.5892  0.3133 -0.7178
 2240TIP3   OH2 6683   2.724   5.386   2.256  0.3430  0.9146 -0.0370
 2240TIP3    H1 6684   2.817   5.400   2.240  0.9966 -1.1861  1.5107
 2240TIP3    H2 6685   2.699   5.318   2.194  0.7028 -0.8475  1.6577
 2241TIP3   OH2 6686   6.361   0.171   2.245 -0.1892 -0.4338  0.6561
 2241TIP3    H1 6687   6.446   0.136   2.271 -0.6737 -2.8036 -0.6537
 2241TIP3    H2 6688   6.313   0.181   2.327  0.1637 -2.5418  1.1932
 2242TIP3   OH2 6689   1.783   1.845   2.566 -0.4240 -0.4380  0.5547
 2242TIP3    H1 6690   1.785   1.929   2.614 -0.6837  0.1658 -0.4653
 2242TIP3    H2 6691   1.827   1.784   2.625 -0.7520  0.2749  1.5812
 2243TIP3   OH2 6692   5.390   3.816   2.412  0.4986  0.1916  0.4658
 2243TIP3    H1 6693   5.402   3.898   2.364  1.4994 -0.0553  0.2653
 2243TIP3    H2 6694   5.349   3.757   2.349  0.6643  0.2491  0.3026
 2244TIP3   OH2 6695   5.609   3.320   4.811  0.5642 -0.4761  0.2973
 2244TIP3    H1 6696   5.528   3.370   4.825 -1.1301 -2.3588 -1.9011
 2244TIP3    H2 6697   5.589   3.263   4.736  3.7936 -1.3920 -0.0171
 2245TIP3   OH2 6698   0.050   4.614   2.543  0.4927  0.3968  0.8561
 2245TIP3    H1 6699   0.033   4.701   2.579  0.4679  0.7233  0.0783
 2245TIP3    H2 6700  -0.024   4.562   2.571  0.6790  0.5302  1.6243
 2246TIP3   OH2 6701   4.166   4.563   1.003 -0.6615  0.0617 -0.4748
 2246TIP3    H1 6702   4.227   4.583   0.932 -0.2049  0.5087  0.0308
 2246TIP3    H2 6703   4.086   4.610   0.980  0.1669  1.9959  0.3483
 2247TIP3   OH2 6704   0.962   4.564   3.423 -0.6365 -0.1452  0.4170
 2247TIP3    H1 6705   1.016   4.623   3.370 -0.5158 -1.0229 -0.4542
 2247TIP3    H2 6706   1.004   4.564   3.509  0.7016 -0.7237 -0.2174
 2248TIP3   OH2 6707   2.127   0.552   5.263  0.2989  0.1042  0.0578
 2248TIP3    H1 6708   2.058   0.504   5.217  0.5889  1.2393 -1.6193
 2248TIP3    H2 6709   2.208   0.512   5.232  0.4577 -0.3274  1.0001
 2249TIP3   OH2 6710   2.489   2.157   5.563  0.0318  0.7725  0.2441
 2249TIP3    H1 6711   2.468   2.115   5.479 -0.0576  0.3308  0.4852
 2249TIP3    H2 6712   2.567   2.112   5.594  0.4282  1.3518  0.1077
 2250TIP3   OH2 6713   1.591   6.505   3.203 -0.5047 -0.1139 -0.8083
 2250TIP3    H1 6714   1.677   6.523   3.166 -0.6062  1.4672 -0.3375
 2250TIP3    H2 6715   1.597   6.414   3.234  0.9630 -0.0564 -0.8466
 2251TIP3   OH2 6716   6.678   2.239   3.597 -0.1537 -0.4885  0.1708
 2251TIP3    H1 6717   6.737   2.172   3.630  2.2883  0.5873 -1.6818
 2251TIP3    H2 6718   6.700   2.247   3.504 -2.9620  0.3190 -0.5278
 2252TIP3   OH2 6719   4.031   3.669   5.353  0.1335  0.0452 -0.2812
 2252TIP3    H1 6720   4.078   3.598   5.310 -0.3471  0.0926 -0.9082
 2252TIP3    H2 6721   4.062   3.667   5.443 -0.6723 -1.6823  0.0082
 2253TIP3   OH2 6722   1.350   5.532   2.230 -0.1453  0.1225 -0.2685
 2253TIP3    H1 6723   1.293   5.535   2.154 -0.1375  1.1273 -0.2439
 2253TIP3    H2 6724   1.370   5.438   2.241  0.0159 -0.0269 -1.6116
 2254TIP3   OH2 6725   6.789   6.547   4.755  0.3139 -0.2491 -0.5161
 2254TIP3    H1 6726   6.736   6.605   4.810  0.1330 -1.3918  0.5711
 2254TIP3    H2 6727   6.725   6.500   4.701  0.2689 -1.0730  0.2443
 2255TIP3   OH2 6728   1.688   3.842   0.173  0.4502 -0.0702  0.3590
 2255TIP3    H1 6729   1.655   3.899   0.103  0.4672  1.2279  1.3651
 2255TIP3    H2 6730   1.705   3.902   0.246  0.3049 -1.4101  1.5261
 2256TIP3   OH2 6731   4.086   0.144   4.230  0.0493 -0.2619 -0.6398
 2256TIP3    H1 6732   4.003   0.167   4.188  0.6008  0.4927 -1.3447
 2256TIP3    H2 6733   4.064   0.134   4.323 -1.2635 -2.3495 -1.1315
 2257TIP3   OH2 6734   1.811   0.328   0.306 -0.3848  0.0329 -0.2579
 2257TIP3    H1 6735   1.823   0.421   0.288 -2.6122  0.4253 -0.0731
 2257TIP3    H2 6736   1.820   0.285   0.221  1.2170  0.3124 -0.2573
 2258TIP3   OH2 6737   1.888   6.400   1.614  0.0913 -0.4720 -1.0332
 2258TIP3    H1 6738   1.884   6.434   1.703 -0.7684 -1.6620 -0.5830
 2258TIP3    H2 6739   1.909   6.476   1.560 -0.6584  0.5381  0.0401
 2259TIP3   OH2 6740   2.935   4.934   2.461  0.4701  0.5387 -0.1845
 2259TIP3    H1 6741   2.934   4.860   2.401 -1.8520 -0.5805  1.1051
 2259TIP3    H2 6742   2.929   4.895   2.548  1.2822  2.1961  0.6670
 2260TIP3   OH2 6743   6.120   2.141   1.787  0.4108 -0.0648 -0.1241
 2260TIP3    H1 6744   6.139   2.155   1.694 -1.4387 -1.0428 -0.6795
 2260TIP3    H2 6745   6.146   2.224   1.828 -0.3805  1.0655 -1.7737
 2261TIP3   OH2 6746   3.124   4.344   2.967 -0.4380  0.3513 -0.4169
 2261TIP3    H1 6747   3.060   4.315   2.902  0.3078 -1.1629 -0.5081
 2261TIP3    H2 6748   3.205   4.357   2.918  0.8501 -3.2665  0.4561
 2262TIP3   OH2 6749   0.171   0.903   4.533 -1.0427 -0.3386  0.0251
 2262TIP3    H1 6750   0.132   0.948   4.458 -0.9200  0.1229  0.2333
 2262TIP3    H2 6751   0.104   0.907   4.601 -0.8206  0.0426  0.2300
 2263TIP3   OH2 6752   1.211   4.455   4.994 -0.3003 -0.3404 -0.3140
 2263TIP3    H1 6753   1.295   4.480   4.954 -0.4569 -0.7736 -0.9115
 2263TIP3    H2 6754   1.187   4.532   5.046  1.2820 -0.8099  1.2141
 2264TIP3   OH2 6755   5.607   1.429   5.488  0.2259 -0.4259 -0.5869
 2264TIP3    H1 6756   5.619   1.515   5.529 -0.6131 -0.8877  0.6887
 2264TIP3    H2 6757   5.688   1.382   5.507  0.2427 -0.2883 -0.3049
 2265TIP3   OH2 6758   2.863   4.336   4.040  0.3860  0.2282  0.1442
 2265TIP3    H1 6759   2.854   4.409   3.979  2.3009  1.2152  0.9750
 2265TIP3    H2 6760   2.851   4.375   4.126 -0.7206 -0.8668  0.5145
 2266TIP3   OH2 6761   6.049   0.438   2.949 -0.4934  0.7021  0.1848
 2266TIP3    H1 6762   5.958   0.454   2.973 -0.0434 -0.4468  3.0806
 2266TIP3    H2 6763   6.099   0.496   3.006  0.6466  1.2982 -1.3527
 2267TIP3   OH2 6764   4.482   4.973   5.410  0.2467 -0.2998  0.3819
 2267TIP3    H1 6765   4.443   5.020   5.336  1.5403 -2.9909 -2.2445
 2267TIP3    H2 6766   4.568   5.012   5.421  0.5829 -0.7582 -0.5175
 2268TIP3   OH2 6767   6.781   3.095   4.724  1.0418  0.6402 -0.1057
 2268TIP3    H1 6768   6.695   3.081   4.684  2.1526 -2.3476 -1.7661
 2268TIP3    H2 6769   6.769   3.071   4.816  0.3070 -0.8618 -0.5597
 2269TIP3   OH2 6770   2.195   2.308   4.750 -0.2071 -0.0901  0.3153
 2269TIP3    H1 6771   2.102   2.296   4.727 -0.8611  0.8014  2.2644
 2269TIP3    H2 6772   2.213   2.400   4.733  0.5763 -0.4157 -0.7521
 2270TIP3   OH2 6773   2.301   5.437   5.101  0.0817  0.6729 -0.3580
 2270TIP3    H1 6774   2.356   5.366   5.132  0.9146  2.0896  1.5774
 2270TIP3    H2 6775   2.216   5.396   5.084  0.9900 -1.0682 -0.9675
 2271TIP3   OH2 6776   3.358   6.025   5.615  0.4258 -0.3434 -0.1219
 2271TIP3    H1 6777   3.450   6.050   5.629  0.4411 -0.6380  0.3286
 2271TIP3    H2 6778   3.345   6.034   5.521  0.8673 -0.1262 -0.1658
 2272TIP3   OH2 6779   5.236   0.988   1.336 -0.5778 -0.1818  0.8393
 2272TIP3    H1 6780   5.331   0.977   1.334 -0.3722  0.8585  2.4135
 2272TIP3    H2 6781   5.224   1.081   1.358 -2.0009  0.1996 -1.2119
 2273TIP3   OH2 6782   0.807   5.413   1.730  0.0541 -0.1335  0.4547
 2273TIP3    H1 6783   0.871   5.349   1.761  0.4108 -0.6505 -1.2439
 2273TIP3    H2 6784   0.726   5.363   1.720 -0.0198 -0.0095  0.4334
 2274TIP3   OH2 6785   4.489   2.415   0.819 -0.3226 -0.2280 -0.9680
 2274TIP3    H1 6786   4.457   2.389   0.905  1.2986  0.5259 -0.0850
 2274TIP3    H2 6787   4.514   2.333   0.776  0.7105 -0.4830  0.0776
 2275TIP3   OH2 6788   3.948   0.955   0.388  0.1135  0.3284  0.3827
 2275TIP3    H1 6789   4.028   1.005   0.406 -0.1866  0.7188  0.6387
 2275TIP3    H2 6790   3.975   0.889   0.324  0.7284  0.2186  0.7495
 2276TIP3   OH2 6791   2.354   1.266   2.973  0.6049 -0.6023 -0.2056
 2276TIP3    H1 6792   2.276   1.299   2.929  0.6384 -2.7622 -2.0478
 2276TIP3    H2 6793   2.426   1.319   2.938  0.4903 -1.5950 -2.0756
 2277TIP3   OH2 6794   4.792   5.470   2.544 -0.1428  0.1894 -0.4513
 2277TIP3    H1 6795   4.883   5.500   2.545 -0.3845  0.9453 -0.0157
 2277TIP3    H2 6796   4.797   5.376   2.527  0.6610  0.4095 -1.5025
 2278TIP3   OH2 6797   0.368   0.612   4.742  0.6569  0.7612  0.2607
 2278TIP3    H1 6798   0.348   0.681   4.804  0.5776  0.7017  0.3004
 2278TIP3    H2 6799   0.326   0.639   4.661  0.8692  0.9034  0.1962
 2279TIP3   OH2 6800   3.944   0.569   5.584 -0.0771  0.3507 -0.1631
 2279TIP3    H1 6801   4.026   0.611   5.609 -0.9404  0.5673  2.6190
 2279TIP3    H2 6802   3.951   0.480   5.617 -0.5950  0.0868 -0.7458
 2280TIP3   OH2 6803   2.982   3.764   5.040  0.6317  0.1188 -0.2907
 2280TIP3    H1 6804   2.989   3.670   5.060 -0.9972  0.0299 -0.0588
 2280TIP3    H2 6805   2.903   3.772   4.987 -0.6703  1.6479  1.7299
 2281TIP3   OH2 6806   3.546   4.430   5.077 -0.2331  0.3753  0.3506
 2281TIP3    H1 6807   3.524   4.337   5.074 -1.3192  0.6331 -2.0833
 2281TIP3    H2 6808   3.499   4.464   5.153 -0.6150 -0.8814  0.7007
 2282TIP3   OH2 6809   2.568   0.195   1.336 -0.7750 -0.3685  0.2397
 2282TIP3    H1 6810   2.558   0.137   1.260  0.3504 -1.2625  0.7501
 2282TIP3    H2 6811   2.662   0.209   1.343 -0.8882 -0.1147  1.3573
 2283TIP3   OH2 6812   4.175   0.788   2.135  0.4795 -0.0775 -0.2280
 2283TIP3    H1 6813   4.122   0.865   2.113 -0.4152 -0.4553  0.5546
 2283TIP3    H2 6814   4.262   0.809   2.100  0.0302  0.9003 -0.8206
 2284TIP3   OH2 6815   2.985   3.787   4.090 -0.4101 -0.7214 -0.1676
 2284TIP3    H1 6816   2.898   3.795   4.130  0.0116 -0.4699  0.7247
 2284TIP3    H2 6817   3.003   3.875   4.055 -0.5525 -0.7967 -0.4294
 2285TIP3   OH2 6818   0.246   3.522   1.419 -0.3668 -0.0254  0.3432
 2285TIP3    H1 6819   0.185   3.521   1.345  0.2196  0.0273 -0.1509
 2285TIP3    H2 6820   0.277   3.612   1.425 -1.3725  0.2726  1.4791
 2286TIP3   OH2 6821   5.048   2.584   3.922  0.0843 -0.0080 -0.3735
 2286TIP3    H1 6822   4.966   2.617   3.886  0.2636  2.3724  1.1788
 2286TIP3    H2 6823   5.023   2.504   3.968 -1.3865  0.6561  0.0379
 2287TIP3   OH2 6824   3.384   1.250   0.317  0.1101 -0.1265  0.8486
 2287TIP3    H1 6825   3.376   1.161   0.284 -0.8036  0.3689 -0.3391
 2287TIP3    H2 6826   3.468   1.251   0.364 -0.5133 -1.9584  2.1103
 2288TIP3   OH2 6827   6.307   3.440   5.379  0.7687  0.6390 -0.1653
 2288TIP3    H1 6828   6.255   3.482   5.448 -0.2253 -0.6046 -0.1333
 2288TIP3    H2 6829   6.345   3.514   5.330 -0.0593  1.5572  0.5326
 2289TIP3   OH2 6830   6.940   5.568   0.473 -0.1055  0.5328 -0.4071
 2289TIP3    H1 6831   7.022   5.615   0.489  0.0797  0.3746 -0.8625
 2289TIP3    H2 6832   6.929   5.510   0.549  0.6416 -0.0517 -0.7286
 2290TIP3   OH2 6833   7.195   2.057   5.659  0.0941 -0.0406 -0.3210
 2290TIP3    H1 6834   7.245   2.136   5.679 -0.3648  0.2520 -0.3061
 2290TIP3    H2 6835   7.118   2.089   5.612 -0.4897 -0.3960  0.3726
 2291TIP3   OH2 6836   0.423   5.533   0.946 -0.3864 -0.5712  0.1162
 2291TIP3    H1 6837   0.376   5.617   0.948 -0.4157 -0.5964  0.6477
 2291TIP3    H2 6838   0.389   5.488   0.869 -0.0785  0.0713 -0.4033
 2292TIP3   OH2 6839   3.770   0.988   0.641  0.0441 -0.2696 -0.2069
 2292TIP3    H1 6840   3.783   0.966   0.548 -0.9339 -0.2995 -0.3455
 2292TIP3    H2 6841   3.850   0.957   0.684 -1.1446 -4.0636 -0.3976
 2293TIP3   OH2 6842   0.950   3.850   2.574  0.1355 -0.0047  0.0603
 2293TIP3    H1 6843   0.998   3.927   2.543  0.9104 -0.6702 -0.3958
 2293TIP3    H2 6844   0.982   3.836   2.663  2.2451 -1.5728 -0.8687
 2294TIP3   OH2 6845   3.656   3.795   0.997  0.9321 -0.2338  0.0640
 2294TIP3    H1 6846   3.594   3.777   0.926  0.6202  0.4563  0.1562
 2294TIP3    H2 6847   3.721   3.725   0.990  0.6100 -0.4783 -0.5679
 2295TIP3   OH2 6848   4.720   5.761   0.786  0.1640 -0.2187 -0.4081
 2295TIP3    H1 6849   4.655   5.776   0.717  0.9414  0.4625 -1.0270
 2295TIP3    H2 6850   4.673   5.714   0.855 -0.6103 -1.0463 -1.4620
 2296TIP3   OH2 6851   0.643   6.274   2.866  0.3748  0.1501  0.3867
 2296TIP3    H1 6852   0.692   6.235   2.939 -0.0528  1.0364  1.1773
 2296TIP3    H2 6853   0.671   6.225   2.789  2.3314  0.4611  0.8402
 2297TIP3   OH2 6854   6.252   0.047   5.544 -0.0308  0.2339 -0.5942
 2297TIP3    H1 6855   6.310   0.000   5.484  1.3330  0.6854  0.3238
 2297TIP3    H2 6856   6.310   0.104   5.594 -1.1087 -0.0485  1.0842
 2298TIP3   OH2 6857   6.880   4.716   0.183  0.0411 -0.2117  0.9230
 2298TIP3    H1 6858   6.878   4.787   0.120 -0.7904  0.2466  1.4493
 2298TIP3    H2 6859   6.963   4.726   0.229  0.2812 -0.0662  0.4539
 2299TIP3   OH2 6860   1.778   0.202   1.566  0.6456 -0.5087 -0.4851
 2299TIP3    H1 6861   1.757   0.295   1.558  0.8484 -0.4993 -0.9600
 2299TIP3    H2 6862   1.700   0.163   1.606 -0.2488 -0.4539 -2.0881
 2300TIP3   OH2 6863   5.335   3.655   2.185  0.1461  0.1187  0.4933
 2300TIP3    H1 6864   5.291   3.572   2.203  1.0535 -0.3352  0.7015
 2300TIP3    H2 6865   5.416   3.630   2.140  0.6068  0.8588  0.8858
 2301TIP3   OH2 6866   5.067   1.569   1.547  0.3801 -0.6347 -0.4706
 2301TIP3    H1 6867   5.049   1.656   1.584  0.1167 -0.1062 -1.7926
 2301TIP3    H2 6868   5.101   1.519   1.621 -0.2823  0.3296  0.5261
 2302TIP3   OH2 6869   0.960   5.090   4.461 -0.2323 -0.0729  0.3880
 2302TIP3    H1 6870   0.904   5.134   4.396 -0.0895 -0.0353  0.2908
 2302TIP3    H2 6871   1.043   5.138   4.457 -0.3553  0.1907  0.8858
 2303TIP3   OH2 6872   1.478   3.537   1.495  0.5331 -0.1018 -0.5526
 2303TIP3    H1 6873   1.443   3.626   1.487  0.4892 -0.0940 -0.2634
 2303TIP3    H2 6874   1.483   3.521   1.589 -0.8089 -0.9276 -0.5867
 2304TIP3   OH2 6875   0.851   2.317   2.346 -0.4541  0.2201  0.6514
 2304TIP3    H1 6876   0.810   2.299   2.261 -2.3675  1.9013  1.1149
 2304TIP3    H2 6877   0.818   2.248   2.403 -1.4548  0.6565  0.6370
 2305TIP3   OH2 6878   0.624   1.123   4.407  0.1274 -0.0025 -0.0810
 2305TIP3    H1 6879   0.646   1.042   4.361 -1.7522  0.4252 -1.9086
 2305TIP3    H2 6880   0.709   1.165   4.423  1.0771 -1.8835  0.0966
 2306TIP3   OH2 6881   3.118   4.027   0.555  0.9376  0.6556 -0.6632
 2306TIP3    H1 6882   3.068   4.100   0.519 -0.3965 -0.2345 -0.6872
 2306TIP3    H2 6883   3.078   4.012   0.641  0.4275 -0.7622 -1.1279
 2307TIP3   OH2 6884   5.702   1.779   2.147  0.2253  0.2614 -0.9710
 2307TIP3    H1 6885   5.742   1.703   2.105  0.3052 -0.4102  0.2500
 2307TIP3    H2 6886   5.765   1.804   2.215 -0.7770  0.0438  0.0683
 2308TIP3   OH2 6887   1.757   1.339   5.154  0.0155 -0.1694  0.3897
 2308TIP3    H1 6888   1.824   1.395   5.193  1.4986 -1.1091 -0.7040
 2308TIP3    H2 6889   1.794   1.251   5.157 -0.9375 -0.6458 -0.7177
 2309TIP3   OH2 6890   6.953   1.807   3.874 -0.0083 -0.2883  0.5583
 2309TIP3    H1 6891   6.943   1.775   3.785  1.6815 -0.8763  0.5528
 2309TIP3    H2 6892   6.948   1.902   3.867  0.4243 -0.3207 -0.2065
 2310TIP3   OH2 6893   4.755   4.516   4.170 -0.0793  0.1592  0.7555
 2310TIP3    H1 6894   4.702   4.562   4.235 -1.3545 -2.3852  1.6355
 2310TIP3    H2 6895   4.721   4.546   4.086 -1.7770 -0.1097  1.3062
 2311TIP3   OH2 6896   0.821   0.763   3.200  0.1437  0.5594  0.5338
 2311TIP3    H1 6897   0.767   0.755   3.279  1.7314 -0.2957  1.5924
 2311TIP3    H2 6898   0.897   0.708   3.218 -0.1147 -0.8477 -2.2278
 2312TIP3   OH2 6899   5.903   5.543   4.794  0.1480 -0.0405 -0.1145
 2312TIP3    H1 6900   5.850   5.523   4.872 -0.5430  0.0066 -0.5677
 2312TIP3    H2 6901   5.932   5.458   4.762 -1.3690 -0.2268 -1.0516
 2313TIP3   OH2 6902   5.198   6.196   0.100 -0.1599  0.0908  0.1693
 2313TIP3    H1 6903   5.190   6.223   0.191  0.9073  1.1252 -0.0138
 2313TIP3    H2 6904   5.158   6.109   0.096  0.8853 -0.5022  1.8741
 2314TIP3   OH2 6905   3.533   5.715   5.348  0.1665  0.5908  0.6660
 2314TIP3    H1 6906   3.622   5.724   5.315 -0.2008 -0.8782 -0.8124
 2314TIP3    H2 6907   3.517   5.621   5.350 -2.2385  0.8551 -1.6197
 2315TIP3   OH2 6908   3.445   6.091   1.498  0.0410  0.1954  0.5349
 2315TIP3    H1 6909   3.503   6.166   1.508  0.1894  0.2254 -0.4839
 2315TIP3    H2 6910   3.504   6.016   1.489  0.0172  0.3758 -1.8295
 2316TIP3   OH2 6911   5.993   2.062   1.412  0.2844 -0.5444  0.3217
 2316TIP3    H1 6912   5.959   2.131   1.355  0.0352  0.4082  1.5982
 2316TIP3    H2 6913   6.073   2.099   1.449  0.7906 -1.4047  0.1316
 2317TIP3   OH2 6914   4.519   1.976   1.700 -0.3310 -0.2946 -0.9077
 2317TIP3    H1 6915   4.464   2.039   1.747 -3.0216 -1.6765 -2.0008
 2317TIP3    H2 6916   4.605   1.985   1.741 -1.0819  2.6050  0.3354
 2318TIP3   OH2 6917   4.441   5.266   2.484  0.0248 -0.0364 -0.0391
 2318TIP3    H1 6918   4.490   5.293   2.407 -0.8360  2.1274  0.0857
 2318TIP3    H2 6919   4.505   5.268   2.555  0.3862 -0.1114 -0.3596
 2319TIP3   OH2 6920   4.953   5.484   2.899 -0.0664 -0.8557  0.2200
 2319TIP3    H1 6921   5.038   5.450   2.870  0.1012 -0.9394  0.7964
 2319TIP3    H2 6922   4.964   5.579   2.899  0.4659 -0.8860  1.5294
 2320TIP3   OH2 6923   6.888   4.722   0.862 -0.3369  0.0378  0.4558
 2320TIP3    H1 6924   6.802   4.746   0.826 -0.8935 -1.7159  0.5256
 2320TIP3    H2 6925   6.868   4.663   0.934  0.9244 -1.5773 -0.4375
 2321TIP3   OH2 6926   0.166   4.152   3.655 -0.0591  0.1985 -0.3125
 2321TIP3    H1 6927   0.194   4.233   3.698 -1.5727  0.9422 -0.6467
 2321TIP3    H2 6928   0.229   4.139   3.585  0.3179  0.9890 -0.1360
 2322TIP3   OH2 6929   5.082   1.937   3.172  0.6758 -0.3033  0.0426
 2322TIP3    H1 6930   5.114   1.991   3.100  0.3925 -1.4118 -0.9515
 2322TIP3    H2 6931   5.157   1.928   3.231  0.5245  1.7567  0.6436
 2323TIP3   OH2 6932   2.921   3.579   0.723  0.7079 -0.0952 -0.1543
 2323TIP3    H1 6933   2.947   3.670   0.735  3.0947 -0.6717 -0.3997
 2323TIP3    H2 6934   2.900   3.548   0.811  1.4310  0.2952  0.1629
 2324TIP3   OH2 6935   4.260   3.953   4.465 -0.7774 -0.3504  0.2571
 2324TIP3    H1 6936   4.173   3.988   4.448 -0.2972  0.8008  0.0966
 2324TIP3    H2 6937   4.311   4.028   4.496 -0.0291 -1.1542  1.0527
 2325TIP3   OH2 6938   4.771   4.992   1.469  1.2121  0.3654  0.3380
 2325TIP3    H1 6939   4.748   4.975   1.560  2.7742  0.8864  0.8489
 2325TIP3    H2 6940   4.866   5.003   1.469  1.4220 -0.9474 -1.5816
 2326TIP3   OH2 6941   6.479   0.643   5.151  0.7185  0.7148 -0.0314
 2326TIP3    H1 6942   6.548   0.699   5.114  0.9939 -1.3835 -3.0967
 2326TIP3    H2 6943   6.521   0.600   5.226  2.4653  0.2578 -1.1990
 2327TIP3   OH2 6944   5.867   1.574   1.411  0.2287  0.1411 -0.5229
 2327TIP3    H1 6945   5.874   1.624   1.330 -0.2253  1.2741  0.1111
 2327TIP3    H2 6946   5.809   1.626   1.467  1.4251 -0.0237  0.9636
 2328TIP3   OH2 6947   1.125   2.958   3.488 -0.3460 -0.3576  0.1889
 2328TIP3    H1 6948   1.218   2.945   3.468 -0.5775 -1.4199 -0.3050
 2328TIP3    H2 6949   1.101   3.039   3.443 -0.0615 -0.9997 -1.1727
 2329TIP3   OH2 6950   4.200   5.853   5.337  0.4220 -0.4256  0.3447
 2329TIP3    H1 6951   4.106   5.837   5.338  0.5948 -1.6934 -0.5670
 2329TIP3    H2 6952   4.224   5.862   5.429 -0.7353  0.9612  0.5286
 2330TIP3   OH2 6953   1.976   2.791   4.448  0.2472  0.1208 -0.0415
 2330TIP3    H1 6954   2.012   2.703   4.457 -1.0722 -0.5438 -0.8726
 2330TIP3    H2 6955   1.923   2.804   4.527 -0.3136 -0.2135 -0.3600
 2331TIP3   OH2 6956   0.148   1.764   1.505  0.0570  0.4931  0.1326
 2331TIP3    H1 6957   0.163   1.842   1.559  0.0696  0.2671  0.4586
 2331TIP3    H2 6958   0.084   1.713   1.554 -2.2097  1.6450 -1.4444
 2332TIP3   OH2 6959   3.837   6.495   0.644  0.2624  0.4471  0.6983
 2332TIP3    H1 6960   3.925   6.506   0.679 -0.1072  0.0075  1.7906
 2332TIP3    H2 6961   3.779   6.532   0.710 -0.4254 -0.0012  0.3628
 2333TIP3   OH2 6962   1.361   4.401   5.543 -0.2902  0.8450  0.1079
 2333TIP3    H1 6963   1.408   4.480   5.571  0.9955 -0.3733  1.5251
 2333TIP3    H2 6964   1.339   4.418   5.451  1.0351  2.3433  0.0220
 2334TIP3   OH2 6965   4.392   0.040   4.680  0.0212 -0.5278 -0.5996
 2334TIP3    H1 6966   4.343  -0.008   4.747  2.1879 -1.2574  0.5255
 2334TIP3    H2 6967   4.382   0.132   4.704 -1.5759 -0.5698 -0.9794
 2335TIP3   OH2 6968   5.144   1.207   3.344  0.0482 -0.1869 -0.3531
 2335TIP3    H1 6969   5.056   1.243   3.341 -0.7846 -2.0879  0.1075
 2335TIP3    H2 6970   5.177   1.217   3.255 -0.7949  0.1267 -0.6359
 2336TIP3   OH2 6971   5.717   3.449   1.159  0.4316 -0.0872 -0.2976
 2336TIP3    H1 6972   5.782   3.481   1.221  0.3013 -1.1380  0.4113
 2336TIP3    H2 6973   5.708   3.519   1.094 -0.4423  1.6670  1.6253
 2337TIP3   OH2 6974   1.976   4.836   4.321  0.0519 -0.1381 -0.4128
 2337TIP3    H1 6975   2.045   4.818   4.258  0.5793 -1.0821  0.3915
 2337TIP3    H2 6976   2.019   4.825   4.406 -1.0794 -0.7770  0.1033
 2338TIP3   OH2 6977   6.639   3.434   0.110 -0.4503 -0.0632 -0.0300
 2338TIP3    H1 6978   6.620   3.379   0.185  1.9927 -0.0916  0.6662
 2338TIP3    H2 6979   6.679   3.513   0.147  1.3743 -0.3426 -1.2425
 2339TIP3   OH2 6980   6.566   3.921   0.510  0.2207 -0.3194  0.3919
 2339TIP3    H1 6981   6.484   3.954   0.547 -0.0782  0.2140 -0.7139
 2339TIP3    H2 6982   6.556   3.826   0.510 -0.4150 -0.2537  0.2211
 2340TIP3   OH2 6983   5.471   3.236   4.587 -0.1761 -0.4882 -0.2011
 2340TIP3    H1 6984   5.383   3.198   4.597  0.2540 -1.7674 -1.0727
 2340TIP3    H2 6985   5.506   3.194   4.509  1.6143 -0.7785  0.7214
 2341TIP3   OH2 6986   1.054   2.975   4.192  0.2803 -0.4167 -0.1609
 2341TIP3    H1 6987   1.027   2.890   4.155 -2.6988  0.6299 -0.7175
 2341TIP3    H2 6988   1.123   3.005   4.133  0.9166 -2.1228 -0.3584
 2342TIP3   OH2 6989   7.050   0.673   4.869  0.3233  0.1661  0.6060
 2342TIP3    H1 6990   6.971   0.700   4.915 -0.2719 -0.0716 -0.2603
 2342TIP3    H2 6991   7.027   0.591   4.826  0.5282  0.8622 -0.9262
 2343TIP3   OH2 6992   2.794   6.554   5.552  0.7264  0.6641  0.7569
 2343TIP3    H1 6993   2.706   6.592   5.557 -0.6146 -1.9392 -1.1138
 2343TIP3    H2 6994   2.826   6.559   5.642 -0.8612  2.6125  1.3106
 2344TIP3   OH2 6995   7.176   1.244   4.726  0.0612 -0.2334 -0.3386
 2344TIP3    H1 6996   7.268   1.262   4.742 -0.0041 -0.3391  0.1953
 2344TIP3    H2 6997   7.145   1.317   4.673  0.3821 -0.0460 -0.2672
 2345TIP3   OH2 6998   2.305   0.156   1.168  0.4283  0.4728  0.0126
 2345TIP3    H1 6999   2.213   0.149   1.195  0.2463 -1.2024 -0.9512
 2345TIP3    H2 7000   2.312   0.245   1.133 -1.3750  0.0028 -1.7413
 2346TIP3   OH2 7001   2.044   5.936   3.007 -0.2576  0.5341 -0.2472
 2346TIP3    H1 7002   2.078   6.010   3.056  0.4342 -0.0012  0.0849
 2346TIP3    H2 7003   1.998   5.883   3.072  2.1309 -1.0887  0.2307
 2347TIP3   OH2 7004   3.963   0.507   4.289  0.1394 -0.0249  0.2548
 2347TIP3    H1 7005   3.914   0.589   4.284 -1.9414 -1.2843 -1.3828
 2347TIP3    H2 7006   4.003   0.497   4.202  1.9354  0.0945  1.0101
 2348TIP3   OH2 7007   2.199   5.235   3.670 -0.1704  0.0079 -0.2408
 2348TIP3    H1 7008   2.160   5.309   3.716  0.1076 -0.8659  1.4719
 2348TIP3    H2 7009   2.132   5.166   3.676  0.9309 -0.9922  1.3352
 2349TIP3   OH2 7010   3.968   4.545   5.864 -0.2162  0.2094 -0.1443
 2349TIP3    H1 7011   4.051   4.500   5.881 -0.8378 -0.8067  0.3263
 2349TIP3    H2 7012   3.989   4.611   5.798  0.8982 -0.2551 -0.2719
 2350TIP3   OH2 7013   2.087   5.678   3.226 -0.5652  0.6271 -0.3500
 2350TIP3    H1 7014   2.016   5.705   3.168 -0.0106  0.4048 -1.1371
 2350TIP3    H2 7015   2.044   5.665   3.311 -1.7101 -0.7847 -1.1061
 2351TIP3   OH2 7016   3.027   3.922   3.456 -0.0375 -0.3794 -0.1867
 2351TIP3    H1 7017   3.076   4.003   3.467 -2.9830  1.7698 -1.5677
 2351TIP3    H2 7018   2.965   3.921   3.529 -0.3024 -1.1936 -0.4108
 2352TIP3   OH2 7019   4.742   2.230   1.542 -0.4604  0.3922 -0.1589
 2352TIP3    H1 7020   4.826   2.194   1.513 -0.0463  0.8859  0.4214
 2352TIP3    H2 7021   4.737   2.207   1.635 -1.7141 -1.0534 -0.5400
 2353TIP3   OH2 7022   2.604   2.647   4.407  0.3957  0.5570  0.1104
 2353TIP3    H1 7023   2.519   2.639   4.452  0.7526  0.8482  0.8554
 2353TIP3    H2 7024   2.650   2.715   4.455  0.3151  1.7894 -1.4870
 2354TIP3   OH2 7025   4.709   4.922   1.161 -0.3228  0.0600 -0.4694
 2354TIP3    H1 7026   4.669   4.987   1.219  1.6013  1.6126 -0.7917
 2354TIP3    H2 7027   4.761   4.973   1.100  3.3775 -1.7943  0.8196
 2355TIP3   OH2 7028   7.227   4.172   4.940 -0.0874 -0.1946  0.0302
 2355TIP3    H1 7029   7.170   4.243   4.911  0.0633  0.0782  0.3858
 2355TIP3    H2 7030   7.185   4.092   4.908 -0.2906  0.0501 -0.3222
 2356TIP3   OH2 7031   3.043   6.399   4.324 -0.4561 -0.0115 -0.4872
 2356TIP3    H1 7032   3.054   6.406   4.229  1.5201  1.9421 -0.2006
 2356TIP3    H2 7033   3.056   6.306   4.343  0.9381 -0.1785 -1.9848
 2357TIP3   OH2 7034   6.925   1.256   3.139 -0.1526 -0.1416  0.7070
 2357TIP3    H1 7035   6.900   1.292   3.054 -0.6582 -2.1617 -0.0598
 2357TIP3    H2 7036   6.931   1.161   3.124  1.1424 -0.4194  2.5850
 2358TIP3   OH2 7037   6.968   4.541   2.862 -0.5347  0.7963 -0.1981
 2358TIP3    H1 7038   6.943   4.626   2.897 -1.9805  1.1572 -1.9675
 2358TIP3    H2 7039   6.951   4.480   2.934 -2.3226  1.6249  0.1280
 2359TIP3   OH2 7040   6.007   1.475   4.908 -0.0504  0.1094 -0.1084
 2359TIP3    H1 7041   6.071   1.448   4.974  0.3580  1.1788 -0.0501
 2359TIP3    H2 7042   5.978   1.393   4.868  0.1306 -0.5134  0.9875
 2360TIP3   OH2 7043   4.034   2.595   5.253 -0.2999 -0.2650  0.0921
 2360TIP3    H1 7044   4.110   2.646   5.279 -0.3155  0.0110 -0.3816
 2360TIP3    H2 7045   4.020   2.534   5.325 -0.5362  0.6701  0.8536
 2361TIP3   OH2 7046   5.283   6.731   2.318  0.5920  0.1713  0.1351
 2361TIP3    H1 7047   5.202   6.770   2.286  1.2776 -0.4983 -2.6324
 2361TIP3    H2 7048   5.321   6.798   2.375 -1.8547  0.4835  1.5297
 2362TIP3   OH2 7049   0.849   5.031   1.589  0.2827 -0.0262  0.3156
 2362TIP3    H1 7050   0.803   4.987   1.661  1.5258 -0.3749  0.9089
 2362TIP3    H2 7051   0.905   5.095   1.632 -0.6061  1.3221 -0.4801
 2363TIP3   OH2 7052   5.632   4.140   1.726 -0.4354  0.0250 -0.5210
 2363TIP3    H1 7053   5.721   4.108   1.739 -0.6319 -0.2947  0.0861
 2363TIP3    H2 7054   5.639   4.235   1.732 -0.2854 -0.0372  0.5606
 2364TIP3   OH2 7055   0.357   0.788   5.386  0.0720 -0.8218 -0.2662
 2364TIP3    H1 7056   0.315   0.868   5.417 -0.0758  0.1048 -2.7228
 2364TIP3    H2 7057   0.285   0.732   5.358  0.2700 -1.0808 -0.2696
 2365TIP3   OH2 7058   5.488   1.506   4.905  1.2029 -0.0627 -0.4609
 2365TIP3    H1 7059   5.519   1.471   4.988 -0.3000 -1.6953 -0.5363
 2365TIP3    H2 7060   5.525   1.594   4.901  1.1912  0.1186  1.9981
 2366TIP3   OH2 7061   2.101   4.103   2.547  0.1852 -0.0785  0.1772
 2366TIP3    H1 7062   2.191   4.134   2.531 -0.4733  1.7014 -0.3544
 2366TIP3    H2 7063   2.108   4.053   2.628  1.5563  0.5996  0.5202
 2367TIP3   OH2 7064   5.370   3.929   5.099  0.3037 -0.1900  0.6632
 2367TIP3    H1 7065   5.319   3.849   5.110 -1.3426  0.9736  2.3437
 2367TIP3    H2 7066   5.395   3.930   5.007  1.3368 -3.1223  0.8222
 2368TIP3   OH2 7067   5.962   4.705   0.881  0.7134 -0.0305  0.0506
 2368TIP3    H1 7068   5.869   4.702   0.901  0.6701 -0.1474 -0.1648
 2368TIP3    H2 7069   5.983   4.618   0.846  1.0896 -0.2937  0.8850
 2369TIP3   OH2 7070   2.052   1.901   0.006  0.0410 -0.5296  0.5654
 2369TIP3    H1 7071   2.007   1.985   0.017  0.1157 -0.2369 -1.1552
 2369TIP3    H2 7072   2.132   1.910   0.058 -0.1315  0.3121  0.7052
 2370TIP3   OH2 7073   5.836   4.998   4.844 -0.3835 -0.2317 -0.0496
 2370TIP3    H1 7074   5.817   4.929   4.908  1.0092 -1.2590 -0.6959
 2370TIP3    H2 7075   5.781   4.976   4.768 -0.3217 -0.3252 -0.0668
 2371TIP3   OH2 7076   5.165   4.962   2.706  0.2831 -0.6798 -0.0509
 2371TIP3    H1 7077   5.181   4.889   2.647 -0.8054 -1.2584  0.3467
 2371TIP3    H2 7078   5.074   4.986   2.691 -0.4608 -1.6859  2.2615
 2372TIP3   OH2 7079   0.206   4.606   0.325 -0.0553 -0.1390 -0.0181
 2372TIP3    H1 7080   0.294   4.619   0.290  0.1903 -1.8807 -0.1607
 2372TIP3    H2 7081   0.154   4.676   0.287  1.2102  0.7637 -0.1412
 2373TIP3   OH2 7082   1.355   3.289   3.388 -0.3396  0.4665  0.3590
 2373TIP3    H1 7083   1.369   3.194   3.385 -2.9520  0.0426 -0.9216
 2373TIP3    H2 7084   1.407   3.323   3.315  0.6505  0.0504  0.8560
 2374TIP3   OH2 7085   2.485   3.646   1.765  0.1164  0.1862 -0.6203
 2374TIP3    H1 7086   2.512   3.738   1.759  3.9119 -0.7410 -0.1943
 2374TIP3    H2 7087   2.499   3.611   1.677  0.2522 -0.3441 -0.3903
 2375TIP3   OH2 7088   4.532   4.478   1.709  0.1239  0.4083 -0.4070
 2375TIP3    H1 7089   4.481   4.547   1.666  1.3032  0.7326 -1.3453
 2375TIP3    H2 7090   4.582   4.523   1.776  1.0162  0.5176 -1.1272
 2376TIP3   OH2 7091   6.461   2.759   3.371 -0.1798 -0.5738  0.2179
 2376TIP3    H1 7092   6.539   2.765   3.426 -1.1908 -0.4789  1.6880
 2376TIP3    H2 7093   6.490   2.791   3.285  1.5987 -1.3336  0.4934
 2377TIP3   OH2 7094   5.111   5.449   5.709  0.2591  0.1860  0.5800
 2377TIP3    H1 7095   5.109   5.459   5.805 -2.3534 -0.9097  0.7295
 2377TIP3    H2 7096   5.063   5.367   5.693  1.1011  0.0774 -1.6487
 2378TIP3   OH2 7097   4.529   2.881   4.084 -0.0122 -0.6410 -0.2990
 2378TIP3    H1 7098   4.549   2.947   4.017 -0.6318 -1.1500 -1.0085
 2378TIP3    H2 7099   4.501   2.931   4.160  1.9284 -0.0018  0.0275
 2379TIP3   OH2 7100   1.392   3.068   4.660  0.1401 -0.5296  0.9637
 2379TIP3    H1 7101   1.383   2.974   4.644 -2.0416 -0.2698  0.3208
 2379TIP3    H2 7102   1.421   3.104   4.576  1.6576 -0.6784  1.4009
 2380TIP3   OH2 7103   1.624   3.781   3.553  0.3225  0.6169 -0.1660
 2380TIP3    H1 7104   1.714   3.811   3.567  0.6181 -0.7499  1.1216
 2380TIP3    H2 7105   1.580   3.795   3.637 -0.0211 -0.7913 -0.0789
 2381TIP3   OH2 7106   6.270   2.332   5.032  0.0963 -0.2327 -0.0604
 2381TIP3    H1 7107   6.318   2.285   4.964  0.9400 -1.3822  1.2541
 2381TIP3    H2 7108   6.338   2.383   5.077 -0.7045  1.8126 -1.0498
 2382TIP3   OH2 7109   1.319   1.467   0.245  0.3055 -0.6014  0.1506
 2382TIP3    H1 7110   1.335   1.548   0.294  0.5976 -0.6086  0.0709
 2382TIP3    H2 7111   1.405   1.442   0.212 -0.1683  0.4255 -1.9981
 2383TIP3   OH2 7112   2.304   4.063   4.954  1.0026 -0.1550 -0.7050
 2383TIP3    H1 7113   2.358   3.990   4.981  1.9913  0.8747  0.1823
 2383TIP3    H2 7114   2.366   4.134   4.935  0.0344  0.7814 -0.4970
 2384TIP3   OH2 7115   3.838   3.853   4.868 -0.0258 -0.4124  0.0942
 2384TIP3    H1 7116   3.860   3.776   4.921  1.0111 -0.0866  0.1704
 2384TIP3    H2 7117   3.829   3.819   4.779  2.5610 -0.3532 -0.2628
 2385TIP3   OH2 7118   1.166   6.029   1.622 -0.3727 -0.1329 -0.1721
 2385TIP3    H1 7119   1.100   6.092   1.653 -0.7173 -0.1879 -0.7745
 2385TIP3    H2 7120   1.218   6.079   1.559  1.3134  0.4452  1.5553
 2386TIP3   OH2 7121   3.593   2.722   3.287 -0.0436 -0.0985  0.0066
 2386TIP3    H1 7122   3.625   2.691   3.372  2.9290  0.8215 -0.6602
 2386TIP3    H2 7123   3.593   2.817   3.295  1.9460  0.0748 -1.5140
 2387TIP3   OH2 7124   0.302   6.578   5.789  0.1154  0.0919  0.1180
 2387TIP3    H1 7125   0.277   6.607   5.876 -1.2794 -1.3459  0.2585
 2387TIP3    H2 7126   0.390   6.612   5.776  0.5370 -0.0434  2.2657
 2388TIP3   OH2 7127   0.644   0.238   2.775 -0.4678  0.6402  0.0640
 2388TIP3    H1 7128   0.718   0.297   2.763  0.0457 -0.0850 -0.3766
 2388TIP3    H2 7129   0.659   0.196   2.859  0.2658 -0.3952 -0.5647
 2389TIP3   OH2 7130   5.658   2.999   0.781 -0.1111 -0.8348 -0.9916
 2389TIP3    H1 7131   5.678   2.937   0.851  1.2358  0.0869 -0.4996
 2389TIP3    H2 7132   5.679   2.953   0.700 -0.9334 -1.6432 -0.7533
 2390TIP3   OH2 7133   2.554   6.226   3.973 -0.2471  0.9614  1.0325
 2390TIP3    H1 7134   2.561   6.166   4.047 -1.0314 -0.9314 -0.3635
 2390TIP3    H2 7135   2.461   6.230   3.953  0.0937 -0.0403 -0.9756
 2391TIP3   OH2 7136   0.359   5.750   5.329 -0.6424 -0.0272 -0.2970
 2391TIP3    H1 7137   0.403   5.680   5.280 -0.8253 -0.2757 -0.1083
 2391TIP3    H2 7138   0.426   5.783   5.389 -0.6733 -0.3140 -0.1033
 2392TIP3   OH2 7139   4.060   6.163   5.353  0.2185  0.1789 -0.2521
 2392TIP3    H1 7140   4.094   6.125   5.273  2.0515  2.4556 -0.6653
 2392TIP3    H2 7141   4.037   6.253   5.330  0.6346  0.8532  1.7017
 2393TIP3   OH2 7142   1.882   0.805   1.195 -0.2749 -0.4450 -0.2116
 2393TIP3    H1 7143   1.820   0.823   1.124 -2.9801 -0.9953  1.8346
 2393TIP3    H2 7144   1.924   0.889   1.212 -1.5870  0.3477 -0.7374
 2394TIP3   OH2 7145   3.318   4.983   4.974  0.0169  0.2249  0.0392
 2394TIP3    H1 7146   3.396   5.014   5.021 -0.8842  0.2848  1.5424
 2394TIP3    H2 7147   3.310   4.891   4.998 -0.2290  0.1416 -0.3419
 2395TIP3   OH2 7148   3.820   6.480   3.047  0.2245  0.5203 -0.0477
 2395TIP3    H1 7149   3.819   6.395   3.002 -1.7497  0.6319 -0.2901
 2395TIP3    H2 7150   3.729   6.496   3.070  0.6308  2.3839  0.3976
 2396TIP3   OH2 7151   6.190   1.370   3.928 -0.9053  0.0841  0.0512
 2396TIP3    H1 7152   6.265   1.408   3.973 -0.9092 -0.0680  0.1910
 2396TIP3    H2 7153   6.225   1.342   3.843 -0.9031  0.3929 -0.0507
 2397TIP3   OH2 7154   1.982   3.379   4.558 -0.3402 -0.1356 -0.0263
 2397TIP3    H1 7155   2.052   3.403   4.498  0.4833 -0.1340  0.9198
 2397TIP3    H2 7156   1.986   3.284   4.564  0.3907 -0.0588  0.9637
 2398TIP3   OH2 7157   2.740   2.751   4.831  0.0867  0.1114 -0.3684
 2398TIP3    H1 7158   2.826   2.780   4.801 -0.3570  1.3867 -0.4699
 2398TIP3    H2 7159   2.692   2.732   4.751 -0.3971  1.4465 -0.4199
 2399TIP3   OH2 7160   2.077   4.587   3.589  0.1152 -0.2834  0.6310
 2399TIP3    H1 7161   2.108   4.625   3.507 -1.6765 -0.7733 -0.3307
 2399TIP3    H2 7162   1.993   4.548   3.566 -2.2039  2.6039  3.4478
 2400TIP3   OH2 7163   4.274   1.413   0.696 -0.1482 -0.4570 -0.1392
 2400TIP3    H1 7164   4.221   1.334   0.690 -0.0183 -0.7336  1.7680
 2400TIP3    H2 7165   4.213   1.482   0.723  0.4354 -0.8577  2.4541
 2401TIP3   OH2 7166   6.027   3.761   4.883 -0.2481  0.6003  0.2021
 2401TIP3    H1 7167   5.960   3.694   4.874  1.4317 -1.3596  1.4237
 2401TIP3    H2 7168   6.091   3.740   4.815 -0.0077  1.3728  0.1808
 2402TIP3   OH2 7169   2.681   1.991   3.109 -0.0585 -0.2332 -0.0693
 2402TIP3    H1 7170   2.623   2.009   3.034 -0.7491  1.7829  0.8639
 2402TIP3    H2 7171   2.624   1.950   3.173  0.3743 -1.3426 -0.3827
 2403TIP3   OH2 7172   5.882   4.374   1.202  0.1394 -0.1384 -0.2245
 2403TIP3    H1 7173   5.803   4.330   1.173 -1.3903  2.1605  0.1398
 2403TIP3    H2 7174   5.900   4.336   1.288 -2.3964  1.2975  1.0568
 2404TIP3   OH2 7175   1.107   0.440   2.330 -0.4860  0.0825  0.2156
 2404TIP3    H1 7176   1.114   0.517   2.387 -0.3094  0.6305 -0.5298
 2404TIP3    H2 7177   1.176   0.381   2.360 -2.2464 -0.9841  2.5335
 2405TIP3   OH2 7178   5.726   3.362   2.992  0.2504  0.0927  0.2517
 2405TIP3    H1 7179   5.684   3.444   3.016  0.9136  0.0845  1.5288
 2405TIP3    H2 7180   5.666   3.294   3.024  0.2161  0.0808  0.1621
 2406TIP3   OH2 7181   2.280   3.574   0.011 -0.6157 -0.9931  0.0083
 2406TIP3    H1 7182   2.354   3.514  -0.002  1.5297  1.2385  1.0005
 2406TIP3    H2 7183   2.221   3.526   0.069  1.6042 -1.7949  1.7909
 2407TIP3   OH2 7184   6.844   6.624   5.031 -0.4923 -0.2007  0.1312
 2407TIP3    H1 7185   6.761   6.595   5.070 -0.4893 -2.6871 -1.4545
 2407TIP3    H2 7186   6.862   6.559   4.963  3.1383 -0.1812  0.8838
 2408TIP3   OH2 7187   5.850   1.125   2.962 -0.2301  0.3243  0.8592
 2408TIP3    H1 7188   5.928   1.112   2.908  1.0450 -0.1853  2.7260
 2408TIP3    H2 7189   5.802   1.042   2.955 -0.2751  0.4041  0.2129
 2409TIP3   OH2 7190   4.143   0.875   1.025  0.0194 -0.9196 -0.2261
 2409TIP3    H1 7191   4.192   0.950   1.058  1.1217 -1.7004 -0.0256
 2409TIP3    H2 7192   4.074   0.861   1.091 -0.3533  0.0477 -0.3961
 2410TIP3   OH2 7193   2.725   5.873   4.342 -0.4532  0.1443  0.0138
 2410TIP3    H1 7194   2.792   5.912   4.398 -0.5234  0.3803 -0.0653
 2410TIP3    H2 7195   2.679   5.811   4.399 -0.4126  0.2587  0.1713
 2411TIP3   OH2 7196   5.570   5.112   5.809  0.3223 -0.2098  0.1430
 2411TIP3    H1 7197   5.479   5.137   5.793  0.4534  1.2847  1.5510
 2411TIP3    H2 7198   5.568   5.062   5.890  0.8421  0.5005  0.6049
 2412TIP3   OH2 7199   1.848   3.617   1.410  0.0548 -0.5002 -0.8864
 2412TIP3    H1 7200   1.826   3.698   1.456 -3.0307 -1.3501 -0.6183
 2412TIP3    H2 7201   1.911   3.643   1.344 -0.6476  2.0903 -0.6360
 2413TIP3   OH2 7202   0.361   6.616   0.491  0.6667  0.4007 -0.7873
 2413TIP3    H1 7203   0.398   6.704   0.490  0.3469  0.5935  0.8064
 2413TIP3    H2 7204   0.393   6.578   0.573 -2.9706  0.8055  1.0670
 2414TIP3   OH2 7205   0.065   0.114   2.401 -0.1216  0.3092  0.1391
 2414TIP3    H1 7206   0.155   0.144   2.418  0.0100 -0.0531  0.0878
 2414TIP3    H2 7207   0.075   0.047   2.334 -0.2537 -0.9506  1.3431
 2415TIP3   OH2 7208   0.649   2.939   2.532 -0.3384 -0.1256 -0.5431
 2415TIP3    H1 7209   0.664   3.033   2.533  2.1636 -0.4182 -2.1275
 2415TIP3    H2 7210   0.566   2.928   2.485 -0.0860  1.2445 -1.3618
 2416TIP3   OH2 7211   5.955   0.709   2.112 -0.2336  0.0113  0.5153
 2416TIP3    H1 7212   5.865   0.686   2.091 -0.3409  1.1878 -0.4123
 2416TIP3    H2 7213   6.001   0.706   2.028  0.7036 -0.9274  1.0239
 2417TIP3   OH2 7214   1.824   6.714   1.871 -0.0094  0.0342  0.0480
 2417TIP3    H1 7215   1.889   6.687   1.936 -1.0727  0.4057  1.3094
 2417TIP3    H2 7216   1.813   6.808   1.886 -1.5178 -0.1922  0.5060
 2418TIP3   OH2 7217   3.483   4.436   1.721 -0.8363  0.0309 -0.1564
 2418TIP3    H1 7218   3.498   4.424   1.627 -1.4369  1.6737 -0.4926
 2418TIP3    H2 7219   3.392   4.466   1.727 -1.3949 -1.7727  1.1198
 2419TIP3   OH2 7220   1.261   3.780   3.592  0.0083 -0.2360 -0.4344
 2419TIP3    H1 7221   1.266   3.873   3.610 -0.2960 -0.3248  0.1299
 2419TIP3    H2 7222   1.170   3.756   3.610 -0.3157 -0.3440 -2.0803
 2420TIP3   OH2 7223   3.657   5.191   0.222  0.4291  0.0304  0.4338
 2420TIP3    H1 7224   3.628   5.169   0.133 -0.3062  0.7215  0.4851
 2420TIP3    H2 7225   3.633   5.114   0.274  0.9968 -0.4392  0.0172
 2421TIP3   OH2 7226   2.966   2.184   4.836 -0.1200  0.0070 -0.0425
 2421TIP3    H1 7227   3.014   2.103   4.820 -0.5503 -0.7036  1.9985
 2421TIP3    H2 7228   2.885   2.175   4.784  0.3648 -0.3224 -0.7582
 2422TIP3   OH2 7229   6.446   0.079   2.711 -0.1372 -0.4287  0.0795
 2422TIP3    H1 7230   6.494   0.147   2.759 -1.2263  0.1240  0.4127
 2422TIP3    H2 7231   6.424   0.014   2.777 -0.0535 -0.5651 -0.0266
 2423TIP3   OH2 7232   1.484   0.768   3.602 -0.0795  0.3072 -0.2734
 2423TIP3    H1 7233   1.417   0.700   3.594  1.3863 -1.0410 -1.8313
 2423TIP3    H2 7234   1.437   0.844   3.638 -2.1580 -0.9306 -0.2187
 2424TIP3   OH2 7235   4.440   3.597   5.676  0.2804 -0.1388  0.3537
 2424TIP3    H1 7236   4.437   3.510   5.715  0.9794  0.8039  2.7236
 2424TIP3    H2 7237   4.366   3.599   5.616 -0.4281 -1.9884  1.0916
 2425TIP3   OH2 7238   6.535   4.894   1.337  0.1871  0.3796 -0.0087
 2425TIP3    H1 7239   6.541   4.881   1.431  2.6201 -0.2960 -0.1730
 2425TIP3    H2 7240   6.566   4.983   1.323 -2.6072  1.4367 -0.0411
 2426TIP3   OH2 7241   4.309   4.136   1.366 -0.5324 -0.0259 -0.1978
 2426TIP3    H1 7242   4.225   4.092   1.381 -0.1917 -0.7414 -0.3061
 2426TIP3    H2 7243   4.293   4.193   1.290 -1.3142  0.9828  0.6940
 2427TIP3   OH2 7244   4.390   5.415   4.666 -0.0955 -0.6197  0.4778
 2427TIP3    H1 7245   4.328   5.372   4.607 -1.8989  1.0159  1.0858
 2427TIP3    H2 7246   4.341   5.426   4.747  1.9495 -1.7559  1.9490
 2428TIP3   OH2 7247   3.788   1.702   0.798  0.1268  0.0107 -0.3648
 2428TIP3    H1 7248   3.775   1.772   0.863  1.5240 -0.8782  0.9355
 2428TIP3    H2 7249   3.708   1.702   0.747 -1.3150  0.3716  1.7515
 2429TIP3   OH2 7250   6.247   5.707   4.499  0.7631 -0.0436 -0.4006
 2429TIP3    H1 7251   6.268   5.795   4.466  0.8916 -0.1604 -0.6299
 2429TIP3    H2 7252   6.170   5.721   4.553  1.3080  0.3560  0.2912
 2430TIP3   OH2 7253   0.491   5.045   3.625 -0.1081  0.1663  0.1512
 2430TIP3    H1 7254   0.522   5.118   3.571  1.0385  2.4484  3.5285
 2430TIP3    H2 7255   0.398   5.064   3.640 -0.8531 -1.3246 -2.0694
 2431TIP3   OH2 7256   4.075   6.564   0.868 -0.0564 -0.1041 -0.2340
 2431TIP3    H1 7257   4.021   6.640   0.889 -0.1169 -0.3137  0.3911
 2431TIP3    H2 7258   4.156   6.578   0.918  0.6712  0.4397 -1.5219
 2432TIP3   OH2 7259   3.393   4.998   0.634 -0.0705 -0.0161 -0.3014
 2432TIP3    H1 7260   3.468   4.974   0.689  0.9654  0.2313 -1.5375
 2432TIP3    H2 7261   3.349   4.915   0.616  1.1439 -0.4951 -1.2537
 2433TIP3   OH2 7262   2.879   4.037   2.726 -0.3687  0.5095 -0.3532
 2433TIP3    H1 7263   2.842   3.976   2.661 -0.5435 -0.6452  0.7830
 2433TIP3    H2 7264   2.973   4.021   2.723 -0.4200  0.1253 -0.0145
 2434TIP3   OH2 7265   2.625   4.506   2.242  0.6393 -0.2517 -0.6358
 2434TIP3    H1 7266   2.549   4.496   2.299 -0.8612  1.8926 -2.0847
 2434TIP3    H2 7267   2.698   4.521   2.302 -0.7131  1.0223  0.8004
 2435TIP3   OH2 7268   6.833   6.232   3.567  0.2178  0.2531  0.5087
 2435TIP3    H1 7269   6.900   6.217   3.634  0.9638 -0.8037 -0.4422
 2435TIP3    H2 7270   6.751   6.207   3.610  0.7572 -1.0115  0.8561
 2436TIP3   OH2 7271   2.096   1.359   2.403  0.1962 -0.3606 -0.2411
 2436TIP3    H1 7272   2.032   1.320   2.345  0.1363  0.6446 -0.8831
 2436TIP3    H2 7273   2.163   1.396   2.345 -0.2222  1.2749  0.2538
 2437TIP3   OH2 7274   6.662   3.822   4.112  0.4868  0.0761  1.0152
 2437TIP3    H1 7275   6.724   3.749   4.120 -0.5014 -1.0529 -0.7429
 2437TIP3    H2 7276   6.587   3.783   4.067 -0.2166  2.1238  0.3342
 2438TIP3   OH2 7277   6.644   4.610   1.823 -0.1701  0.0958  0.4558
 2438TIP3    H1 7278   6.700   4.599   1.900 -0.1544  0.1906  0.4579
 2438TIP3    H2 7279   6.557   4.584   1.853 -0.7196  2.6068  1.2581
 2439TIP3   OH2 7280   4.570   6.505   2.974 -0.0707  0.1518 -0.2709
 2439TIP3    H1 7281   4.593   6.532   2.885  3.0604  3.2055  1.2811
 2439TIP3    H2 7282   4.508   6.571   3.004 -1.3920 -1.0628 -0.1898
 2440TIP3   OH2 7283   0.705   6.514   1.511  0.1939 -0.0101  0.0104
 2440TIP3    H1 7284   0.665   6.596   1.484 -0.8264 -0.1339  1.0770
 2440TIP3    H2 7285   0.781   6.505   1.453 -0.1965  1.2071 -0.7438
 2441TIP3   OH2 7286   3.476   0.274   3.954  0.2643 -0.6656 -0.0315
 2441TIP3    H1 7287   3.514   0.291   4.040 -1.3203  1.0552  0.3831
 2441TIP3    H2 7288   3.523   0.332   3.895 -0.2659 -0.0889  0.1076
 2442TIP3   OH2 7289   5.224   0.513   0.102  0.1584  0.0925 -0.4287
 2442TIP3    H1 7290   5.318   0.511   0.086 -0.1541  1.9423 -3.0539
 2442TIP3    H2 7291   5.191   0.432   0.063  0.4632  0.4061 -1.3631
 2443TIP3   OH2 7292   4.464   5.658   3.286  0.2404 -0.3754  0.2058
 2443TIP3    H1 7293   4.543   5.676   3.235 -0.3280  1.6545 -0.0159
 2443TIP3    H2 7294   4.497   5.630   3.372  1.1917 -0.1375 -0.0744
 2444TIP3   OH2 7295   0.825   2.122   1.357  0.1402 -0.3712 -0.4645
 2444TIP3    H1 7296   0.767   2.046   1.365 -2.5541  1.4994 -0.9808
 2444TIP3    H2 7297   0.842   2.130   1.264 -2.3940  1.4902 -0.8699
 2445TIP3   OH2 7298   4.865   4.279   5.846 -0.4701  0.3416  0.0231
 2445TIP3    H1 7299   4.916   4.323   5.778  2.7686 -0.2007  1.8990
 2445TIP3    H2 7300   4.863   4.341   5.919 -2.8796  0.4573 -0.0757
 2446TIP3   OH2 7301   0.220   2.256   2.470  0.1021 -0.6121 -0.2923
 2446TIP3    H1 7302   0.133   2.292   2.455  0.1917 -0.0303  0.5311
 2446TIP3    H2 7303   0.204   2.172   2.514 -0.0501 -0.7307 -0.5703
 2447TIP3   OH2 7304   0.548   3.745   4.018 -0.8097 -0.0984 -0.1133
 2447TIP3    H1 7305   0.615   3.677   4.026  0.7874  1.2171 -1.6564
 2447TIP3    H2 7306   0.470   3.699   3.987  0.4074 -1.1721 -1.7095
 2448TIP3   OH2 7307   4.699   1.900   1.991  0.1012 -0.5134 -0.4799
 2448TIP3    H1 7308   4.705   1.981   1.939  0.1264 -0.2301 -0.0410
 2448TIP3    H2 7309   4.789   1.869   1.997  0.2754  0.1322  0.4497
 2449TIP3   OH2 7310   6.834   1.664   5.870 -0.0938  0.0824 -0.1870
 2449TIP3    H1 7311   6.740   1.652   5.857 -0.0840 -0.4015  0.1768
 2449TIP3    H2 7312   6.873   1.580   5.846  0.1489 -0.0393  0.6233
 2450TIP3   OH2 7313   5.621   0.082   5.039 -0.0708 -0.1591  0.1745
 2450TIP3    H1 7314   5.686   0.094   5.107 -1.1234 -0.4236  1.2584
 2450TIP3    H2 7315   5.658   0.015   4.982  1.5659  1.2499 -0.5020
 2451TIP3   OH2 7316   6.890   3.535   3.353 -0.0341 -0.2407  0.0633
 2451TIP3    H1 7317   6.830   3.587   3.301 -0.6350 -0.0487  0.9313
 2451TIP3    H2 7318   6.842   3.454   3.372  0.1587 -0.2865  0.3643
 2452TIP3   OH2 7319   0.566   6.575   5.749  0.8442 -0.3471 -0.6003
 2452TIP3    H1 7320   0.662   6.578   5.749  0.8280  0.6926 -1.1210
 2452TIP3    H2 7321   0.545   6.487   5.720  1.6407 -0.7416 -0.0304
 2453TIP3   OH2 7322   2.690   3.028   1.634 -0.0036  0.2245  0.0370
 2453TIP3    H1 7323   2.608   2.990   1.667  0.0590 -0.3455 -0.4518
 2453TIP3    H2 7324   2.759   2.984   1.683  0.1061 -0.8717 -1.0677
 2454TIP3   OH2 7325   0.412   6.398   3.659 -0.2487  0.8440 -0.0001
 2454TIP3    H1 7326   0.354   6.455   3.711 -1.1019  0.2949 -0.3234
 2454TIP3    H2 7327   0.371   6.395   3.573  1.1110  1.6650 -0.7002
 2455TIP3   OH2 7328   2.857   0.755   1.617 -0.6458  0.1760 -0.5232
 2455TIP3    H1 7329   2.793   0.799   1.561 -0.3603 -1.6108 -2.3940
 2455TIP3    H2 7330   2.823   0.666   1.627  0.4778 -0.1915  0.2693
 2456TIP3   OH2 7331   6.411   5.590   2.691 -0.5060 -0.6764 -0.0219
 2456TIP3    H1 7332   6.428   5.632   2.606 -2.4694  0.9750  0.3245
 2456TIP3    H2 7333   6.446   5.502   2.681  0.3269 -0.1748 -2.1562
 2457TIP3   OH2 7334   1.432   0.996   4.599  0.0676 -0.4414  0.4224
 2457TIP3    H1 7335   1.367   0.952   4.543 -0.9019 -0.7397  1.7287
 2457TIP3    H2 7336   1.394   1.083   4.615  0.4945 -0.2412  0.3614
 2458TIP3   OH2 7337   2.571   4.629   2.004  0.2080 -0.0989  0.1716
 2458TIP3    H1 7338   2.524   4.710   2.022 -2.1539 -0.7341 -2.3132
 2458TIP3    H2 7339   2.569   4.581   2.086 -2.1859  0.6254  0.6117
 2459TIP3   OH2 7340   2.120   4.104   0.571 -0.3394 -0.0862 -0.8599
 2459TIP3    H1 7341   2.059   4.040   0.535  0.4125 -1.3751  0.0838
 2459TIP3    H2 7342   2.206   4.077   0.538  0.1386 -0.2758  0.5011
 2460TIP3   OH2 7343   7.169   2.667   2.033  0.4101  0.2180 -0.3946
 2460TIP3    H1 7344   7.109   2.741   2.040  0.9251  0.7262 -1.1884
 2460TIP3    H2 7345   7.255   2.703   2.054  0.2265 -0.9415  2.7970
 2461TIP3   OH2 7346   2.975   2.922   5.617  0.0955 -0.3237  0.6203
 2461TIP3    H1 7347   3.027   2.848   5.648 -0.3680 -0.5863  0.7836
 2461TIP3    H2 7348   2.942   2.894   5.531 -0.2251 -0.3825  0.7601
 2462TIP3   OH2 7349   3.319   0.894   0.771  0.5500 -0.2825  0.7922
 2462TIP3    H1 7350   3.323   0.983   0.736 -0.5721 -0.6719 -0.3858
 2462TIP3    H2 7351   3.373   0.842   0.712 -0.6315 -0.7846  0.1235
 2463TIP3   OH2 7352   6.256   5.298   2.786 -0.5214  0.2547 -0.4228
 2463TIP3    H1 7353   6.311   5.281   2.710 -1.7053 -0.1422 -1.2096
 2463TIP3    H2 7354   6.292   5.241   2.854  0.7346  0.8325 -0.5595
 2464TIP3   OH2 7355   6.086   0.056   3.211  0.5906  0.0826 -0.2777
 2464TIP3    H1 7356   6.064  -0.001   3.137  0.0644  0.6683 -0.5798
 2464TIP3    H2 7357   6.008   0.111   3.223  0.9974  0.5662  0.1742
 2465TIP3   OH2 7358   5.918   5.316   3.835 -0.4350  0.6260  0.0341
 2465TIP3    H1 7359   5.907   5.307   3.741 -0.9344  1.3978  0.0119
 2465TIP3    H2 7360   6.011   5.297   3.850 -1.1275 -3.9827 -0.0259
 2466TIP3   OH2 7361   6.165   4.322   1.958  0.0069  0.2772  0.4513
 2466TIP3    H1 7362   6.140   4.385   1.891 -0.6199 -0.3572  0.0752
 2466TIP3    H2 7363   6.084   4.301   2.004 -0.5307 -2.6663 -1.5250
 2467TIP3   OH2 7364   3.036   5.981   3.760  0.1038  0.1726  0.0640
 2467TIP3    H1 7365   3.068   5.948   3.676 -0.8937 -0.1493 -0.2036
 2467TIP3    H2 7366   3.106   5.962   3.822  0.5139 -0.3182 -0.5440
 2468TIP3   OH2 7367   6.307   1.959   1.929 -0.2471  0.0177 -0.2763
 2468TIP3    H1 7368   6.250   2.036   1.938  0.9246  0.8781  0.0642
 2468TIP3    H2 7369   6.301   1.915   2.013  0.4762  0.7559  0.1746
 2469TIP3   OH2 7370   1.629   2.584   5.816 -0.0442 -0.0055 -0.2106
 2469TIP3    H1 7371   1.687   2.530   5.762 -0.7559 -0.7936 -0.1883
 2469TIP3    H2 7372   1.598   2.526   5.885 -0.3837  0.5758  0.1344
 2470TIP3   OH2 7373   0.545   3.118   2.174 -0.1137 -0.0442 -0.4399
 2470TIP3    H1 7374   0.533   3.028   2.203  1.4727  0.3234  1.6499
 2470TIP3    H2 7375   0.637   3.122   2.147  0.3813  1.3162  1.2533
 2471TIP3   OH2 7376   0.087   3.881   0.280 -0.0860  0.1026  0.7320
 2471TIP3    H1 7377   0.070   3.827   0.357  1.1057  0.1176  1.0261
 2471TIP3    H2 7378   0.028   3.956   0.288  0.1730  0.2031  1.7327
 2472TIP3   OH2 7379   1.701   4.762   0.914  0.4078  0.5109 -0.7487
 2472TIP3    H1 7380   1.776   4.766   0.972 -0.5960 -0.0641  0.6506
 2472TIP3    H2 7381   1.738   4.751   0.827  1.9589  1.4665 -0.2536
 2473TIP3   OH2 7382   0.414   3.433   2.808 -0.1576  0.9038  0.2616
 2473TIP3    H1 7383   0.495   3.396   2.843 -0.8242 -0.8939 -0.0173
 2473TIP3    H2 7384   0.355   3.436   2.884 -0.9626 -1.1603 -0.2287
 2474TIP3   OH2 7385   5.382   5.287   0.485  0.1182 -0.7309 -0.2111
 2474TIP3    H1 7386   5.462   5.319   0.527 -0.3313  0.4086 -0.1920
 2474TIP3    H2 7387   5.411   5.216   0.428  1.1018 -0.5238  0.0212
 2475TIP3   OH2 7388   6.283   4.821   0.851  0.1961 -0.3613  0.3421
 2475TIP3    H1 7389   6.226   4.744   0.851 -0.0957 -0.1505 -0.0058
 2475TIP3    H2 7390   6.264   4.865   0.934 -0.0034 -0.3983  0.3171
 2476TIP3   OH2 7391   2.653   0.813   1.412 -0.4312  0.5931 -0.2375
 2476TIP3    H1 7392   2.628   0.777   1.328 -1.6483  0.8974 -0.0196
 2476TIP3    H2 7393   2.570   0.826   1.459  0.0918  2.0716  0.3308
 2477TIP3   OH2 7394   2.950   1.784   1.399 -0.1476  0.4155  0.2437
 2477TIP3    H1 7395   2.867   1.771   1.444  0.0737  1.2487  0.8999
 2477TIP3    H2 7396   2.976   1.696   1.371 -1.8346  0.2645 -1.0464
 2478TIP3   OH2 7397   2.179   1.450   2.853 -0.8008  0.5092  0.4712
 2478TIP3    H1 7398   2.108   1.508   2.880 -0.1784  1.5049  0.0133
 2478TIP3    H2 7399   2.252   1.509   2.831 -0.4227 -0.3944 -0.8022
 2479TIP3   OH2 7400   5.400   0.053   3.304  0.3653  0.2062  0.6148
 2479TIP3    H1 7401   5.362   0.046   3.217 -1.3114 -0.5465  1.3414
 2479TIP3    H2 7402   5.406  -0.038   3.335  0.6025  0.4768  1.3896
 2480TIP3   OH2 7403   0.849   2.486   4.018  0.2875 -0.0362 -0.3957
 2480TIP3    H1 7404   0.915   2.420   4.038  0.7839  0.2631 -0.9997
 2480TIP3    H2 7405   0.844   2.540   4.097 -0.2699 -0.9047  0.1789
 2481TIP3   OH2 7406   4.519   3.920   3.670  0.1355 -0.1842 -0.3833
 2481TIP3    H1 7407   4.575   3.990   3.636 -0.9342  1.4565  1.0656
 2481TIP3    H2 7408   4.449   3.911   3.606  0.8012 -0.6394 -1.0625
 2482TIP3   OH2 7409   2.100   3.252   0.322  0.5424 -0.6307 -0.6404
 2482TIP3    H1 7410   2.064   3.340   0.317  1.4657 -0.1068  1.0942
 2482TIP3    H2 7411   2.159   3.246   0.247  0.1507  0.0705 -1.0099
 2483TIP3   OH2 7412   2.945   1.124   2.815 -0.2535 -0.1803  0.1174
 2483TIP3    H1 7413   3.019   1.086   2.864  1.0810  0.1587 -1.5361
 2483TIP3    H2 7414   2.980   1.205   2.778 -1.7159  0.3950 -0.0511
 2484TIP3   OH2 7415   0.394   6.585   2.293 -0.1011  0.7005  0.2020
 2484TIP3    H1 7416   0.405   6.520   2.362 -1.4318  0.1503 -0.0874
 2484TIP3    H2 7417   0.345   6.656   2.334  1.0730  1.4158  0.4281
 2485TIP3   OH2 7418   3.844   1.513   2.673 -0.3607  0.2203  0.2683
 2485TIP3    H1 7419   3.797   1.449   2.726  0.3165 -0.6744 -0.1875
 2485TIP3    H2 7420   3.782   1.586   2.663 -1.3486 -0.5929  0.3188
 2486TIP3   OH2 7421   5.124   3.982   2.846  0.0582 -0.0668  0.4688
 2486TIP3    H1 7422   5.038   3.956   2.814  0.0410  2.3296 -1.8240
 2486TIP3    H2 7423   5.107   4.021   2.932 -0.9620 -0.6409  0.5401
 2487TIP3   OH2 7424   5.117   2.417   0.056  0.5039  0.0958  0.3388
 2487TIP3    H1 7425   5.113   2.433  -0.038 -0.5427 -0.3883  0.2937
 2487TIP3    H2 7426   5.075   2.492   0.096  0.4879  0.0565  0.3968
 2488TIP3   OH2 7427   1.564   0.695   4.762  0.3819 -0.2658 -0.0835
 2488TIP3    H1 7428   1.570   0.612   4.810 -0.4260  0.1672  0.8067
 2488TIP3    H2 7429   1.654   0.722   4.749  0.7849 -2.2899 -2.2269
 2489TIP3   OH2 7430   3.314   2.175   1.371  0.0055 -0.7390 -0.3145
 2489TIP3    H1 7431   3.233   2.128   1.391 -0.6933  0.7010  0.3528
 2489TIP3    H2 7432   3.375   2.149   1.441 -0.1382 -1.1684 -0.3428
 2490TIP3   OH2 7433   7.133   6.764   0.639  0.0745  0.2846 -0.1395
 2490TIP3    H1 7434   7.082   6.821   0.697  0.0989 -0.8693  1.0499
 2490TIP3    H2 7435   7.081   6.759   0.559 -0.7113  0.7035  0.3264
 2491TIP3   OH2 7436   2.248   3.520   2.678 -0.1182  0.4199 -0.4146
 2491TIP3    H1 7437   2.225   3.612   2.692 -1.5751 -0.2106  2.0831
 2491TIP3    H2 7438   2.165   3.473   2.684  0.7630 -1.1821 -0.0665
 2492TIP3   OH2 7439   3.015   1.418   5.509  0.1959  0.1046  0.4686
 2492TIP3    H1 7440   2.981   1.339   5.550  1.1227 -0.7207 -0.3093
 2492TIP3    H2 7441   3.108   1.399   5.492 -0.0928  0.4731 -1.7980
 2493TIP3   OH2 7442   3.476   6.558   2.516 -0.8184  1.0308 -0.0008
 2493TIP3    H1 7443   3.455   6.555   2.423 -0.3936 -0.7285 -0.0843
 2493TIP3    H2 7444   3.537   6.632   2.524 -1.7555  1.9275 -0.8965
 2494TIP3   OH2 7445   6.277   1.734   3.896 -0.1493  0.4085 -0.2411
 2494TIP3    H1 7446   6.207   1.717   3.832 -0.0547  0.1701 -0.2820
 2494TIP3    H2 7447   6.321   1.650   3.906 -0.0293  0.4975 -0.0212
 2495TIP3   OH2 7448   3.654   0.194   1.626  0.0401 -0.2956  0.2164
 2495TIP3    H1 7449   3.638   0.203   1.720  1.8460 -0.8900  0.6140
 2495TIP3    H2 7450   3.720   0.126   1.619  0.1088 -0.0971 -1.4819
 2496TIP3   OH2 7451   2.432   4.758   5.009 -0.6856 -0.0791  0.2195
 2496TIP3    H1 7452   2.506   4.772   4.951 -1.3819  1.2114 -0.4049
 2496TIP3    H2 7453   2.456   4.682   5.061  1.3049  0.6434  0.4249
 2497TIP3   OH2 7454   5.600   3.926   4.537 -0.3903  0.1578  0.1584
 2497TIP3    H1 7455   5.632   4.016   4.543  0.0851 -0.0002 -0.0025
 2497TIP3    H2 7456   5.666   3.874   4.583 -0.2591 -0.2052 -0.4271
 2498TIP3   OH2 7457   4.908   1.165   1.155 -0.8226 -0.1557  1.0440
 2498TIP3    H1 7458   4.944   1.246   1.190 -1.4207 -0.0547  1.4450
 2498TIP3    H2 7459   4.865   1.123   1.230 -1.2718 -0.4133  0.6536
 2499TIP3   OH2 7460   6.543   4.053   3.632  0.1588 -0.0581  0.1251
 2499TIP3    H1 7461   6.576   4.087   3.715  0.3072  1.8131 -0.6630
 2499TIP3    H2 7462   6.618   4.007   3.594  0.3817 -0.0587  0.5559
 2500TIP3   OH2 7463   4.788   2.754   3.914  0.6959  0.0014 -0.5645
 2500TIP3    H1 7464   4.845   2.821   3.951  1.3259 -0.5357 -0.5218
 2500TIP3    H2 7465   4.737   2.721   3.988  1.1480 -0.2940 -0.3797
 2501TIP3   OH2 7466   5.423   2.847   4.071 -0.3863 -0.5253  0.0594
 2501TIP3    H1 7467   5.332   2.834   4.045 -0.0610 -0.7168 -1.0490
 2501TIP3    H2 7468   5.473   2.835   3.990  0.5724  0.2408  0.5182
 2502TIP3   OH2 7469   0.429   1.575   4.308 -0.2783  1.0625  0.1495
 2502TIP3    H1 7470   0.397   1.534   4.228  0.0664 -1.7733  1.3530
 2502TIP3    H2 7471   0.385   1.660   4.311 -4.0401 -0.6628 -0.6473
 2503TIP3   OH2 7472   6.094   6.608   3.589 -0.4977 -0.3785 -0.6181
 2503TIP3    H1 7473   6.152   6.624   3.664  0.7484 -1.4246 -1.3155
 2503TIP3    H2 7474   6.067   6.696   3.560  1.1999  0.1834 -0.6022
 2504TIP3   OH2 7475   2.129   4.636   4.892  0.0695  0.3453  0.2249
 2504TIP3    H1 7476   2.136   4.731   4.875 -0.1994  0.1666 -1.0218
 2504TIP3    H2 7477   2.200   4.598   4.840 -0.4436 -0.2094 -0.0815
 2505TIP3   OH2 7478   1.353   2.489   0.584  0.0205 -0.0013 -0.4096
 2505TIP3    H1 7479   1.360   2.421   0.517 -1.4959  0.2405 -0.8595
 2505TIP3    H2 7480   1.306   2.448   0.656 -1.9676  0.8204 -1.1509
 2506TIP3   OH2 7481   1.380   2.671   5.722  0.1442 -0.5150  0.2332
 2506TIP3    H1 7482   1.453   2.610   5.729  0.4639 -0.2261 -0.4930
 2506TIP3    H2 7483   1.416   2.756   5.746 -0.1217 -0.4830  0.5307
 2507TIP3   OH2 7484   1.646   6.300   1.866  0.2723  0.0731  0.4737
 2507TIP3    H1 7485   1.654   6.216   1.912  2.2979 -0.1431 -0.1386
 2507TIP3    H2 7486   1.597   6.278   1.786  1.0276 -0.6396  0.1758
 2508TIP3   OH2 7487   2.393   2.614   3.603 -0.1203  0.8626  0.0468
 2508TIP3    H1 7488   2.339   2.626   3.524 -1.5134  1.7804  1.0764
 2508TIP3    H2 7489   2.401   2.702   3.639  0.0539  0.3846  1.1989
 2509TIP3   OH2 7490   2.166   1.830   2.845 -0.6235 -0.0193 -0.4836
 2509TIP3    H1 7491   2.235   1.764   2.835  0.3968  0.7701  0.9513
 2509TIP3    H2 7492   2.170   1.881   2.764  1.2572  0.6876 -0.0099
 2510TIP3   OH2 7493   2.114   4.408   3.282 -0.3321  0.1276 -0.6316
 2510TIP3    H1 7494   2.138   4.483   3.336  1.7307 -0.7068 -0.2780
 2510TIP3    H2 7495   2.022   4.422   3.260 -0.3709  2.0458  0.5372
 2511TIP3   OH2 7496   1.683   5.966   1.180  0.4352 -0.2907  0.8063
 2511TIP3    H1 7497   1.778   5.978   1.181  0.5975 -1.2149  2.6175
 2511TIP3    H2 7498   1.648   6.045   1.222  0.5885 -0.7683  1.8835
 2512TIP3   OH2 7499   2.841   6.554   4.446  0.1587 -0.3555 -0.2684
 2512TIP3    H1 7500   2.915   6.525   4.394  0.1748  0.7818 -0.8954
 2512TIP3    H2 7501   2.824   6.643   4.417 -1.5585 -0.6431 -0.2540
 2513TIP3   OH2 7502   1.606   3.354   0.875  1.1962 -0.1464  0.0471
 2513TIP3    H1 7503   1.529   3.410   0.885  0.1132 -1.0733 -2.2609
 2513TIP3    H2 7504   1.657   3.368   0.955 -0.5355  1.7520  0.9138
 2514TIP3   OH2 7505   3.307   6.613   5.227 -0.3347 -0.2221 -0.1047
 2514TIP3    H1 7506   3.241   6.555   5.189  0.9382 -0.5293 -1.9522
 2514TIP3    H2 7507   3.350   6.560   5.294  0.9660 -1.5854 -1.9165
 2515TIP3   OH2 7508   6.870   4.576   5.041 -0.2717 -0.3870  0.0033
 2515TIP3    H1 7509   6.852   4.492   5.081 -1.0024 -0.1694  0.1519
 2515TIP3    H2 7510   6.805   4.583   4.971 -0.7714  0.4111  0.5302
 2516TIP3   OH2 7511   1.372   1.905   0.391  0.4343 -0.3156 -0.1359
 2516TIP3    H1 7512   1.382   1.810   0.398 -1.6417 -0.5656  0.2168
 2516TIP3    H2 7513   1.343   1.920   0.301 -1.5353 -0.3257  0.4454
 2517TIP3   OH2 7514   5.742   0.765   0.900  0.1344  0.0478  0.6362
 2517TIP3    H1 7515   5.828   0.808   0.904 -0.4372  1.2503  0.5395
 2517TIP3    H2 7516   5.742   0.720   0.816  0.1712  1.1763  0.0124
 2518TIP3   OH2 7517   2.444   4.587   5.284 -0.0144  0.4205  0.4372
 2518TIP3    H1 7518   2.365   4.582   5.337  1.6295 -0.3910  2.9765
 2518TIP3    H2 7519   2.489   4.666   5.314  0.9871 -0.0852  0.3128
 2519TIP3   OH2 7520   2.211   6.451   5.732 -0.0857  0.2824 -0.5080
 2519TIP3    H1 7521   2.238   6.399   5.656  0.2135  0.2499 -0.3839
 2519TIP3    H2 7522   2.270   6.422   5.802  1.0773  1.8346 -0.8056
 2520TIP3   OH2 7523   3.889   1.877   5.453 -0.3337  0.5332 -0.9189
 2520TIP3    H1 7524   3.831   1.843   5.385 -1.7426 -0.2610  0.6023
 2520TIP3    H2 7525   3.884   1.972   5.444 -1.8939  0.4906 -0.8620
 2521TIP3   OH2 7526   0.002   3.572   0.923 -0.1836 -0.1088 -0.3877
 2521TIP3    H1 7527   0.019   3.665   0.905 -0.4420 -0.3111 -1.7473
 2521TIP3    H2 7528   0.049   3.525   0.854  0.0175 -1.0108  0.3383
 2522TIP3   OH2 7529   0.562   4.944   2.879 -0.0117  0.5950  0.1558
 2522TIP3    H1 7530   0.502   4.954   2.953  0.2120 -0.7844  0.5501
 2522TIP3    H2 7531   0.593   4.853   2.885 -0.3284  0.3079 -1.9018
 2523TIP3   OH2 7532   3.116   0.336   1.415 -0.7193  0.1985 -0.1127
 2523TIP3    H1 7533   3.177   0.264   1.400 -1.8971 -0.7112 -0.8354
 2523TIP3    H2 7534   3.169   0.407   1.449  0.6253 -0.7483 -0.1651
 2524TIP3   OH2 7535   5.243   6.018   1.941 -0.2766 -0.0889  0.1692
 2524TIP3    H1 7536   5.288   5.957   1.999 -0.9564  0.3246  1.1552
 2524TIP3    H2 7537   5.289   6.101   1.954 -0.7917  0.1367  0.5443
 2525TIP3   OH2 7538   2.968   4.917   3.615 -0.1303  0.5851 -0.2805
 2525TIP3    H1 7539   3.018   4.926   3.534  1.0397  0.5923  0.4020
 2525TIP3    H2 7540   2.962   5.006   3.649  1.6806  0.3186  0.9071
 2526TIP3   OH2 7541   0.978   0.969   4.978 -0.7226  0.1822 -0.4799
 2526TIP3    H1 7542   0.939   1.055   4.965  0.3491  0.4143 -2.5183
 2526TIP3    H2 7543   1.023   0.976   5.063  0.5080  2.1423 -1.2204
 2527TIP3   OH2 7544   0.078   1.419   0.487 -0.2117  0.0186  0.0634
 2527TIP3    H1 7545   0.071   1.357   0.560  0.6316 -1.9038 -1.3907
 2527TIP3    H2 7546   0.048   1.369   0.411 -0.5865  1.7985 -1.0042
 2528TIP3   OH2 7547   6.605   4.413   1.543 -0.0291  0.7288  0.1110
 2528TIP3    H1 7548   6.615   4.336   1.600  0.8846 -0.6924 -1.8536
 2528TIP3    H2 7549   6.673   4.474   1.573  1.1204 -0.4183 -0.0839
 2529TIP3   OH2 7550   2.454   1.804   0.369 -0.1311  0.3179  0.5027
 2529TIP3    H1 7551   2.393   1.782   0.439 -1.5061  2.0505 -0.0910
 2529TIP3    H2 7552   2.520   1.859   0.412 -0.3413  0.4385  0.6760
 2530TIP3   OH2 7553   5.563   2.034   2.187  0.2829  0.0179 -0.2602
 2530TIP3    H1 7554   5.483   2.030   2.135  0.2715  0.8189 -0.3161
 2530TIP3    H2 7555   5.604   1.949   2.174 -1.3753 -1.0408  1.1011
 2531TIP3   OH2 7556   0.575   0.743   1.921 -0.1488  0.3376  0.7716
 2531TIP3    H1 7557   0.588   0.717   1.830 -1.5067 -1.3458  1.0111
 2531TIP3    H2 7558   0.664   0.754   1.955  0.4630 -1.2141 -0.1825
 2532TIP3   OH2 7559   1.028   3.815   4.120  0.4700 -0.1632 -0.0583
 2532TIP3    H1 7560   1.059   3.898   4.155 -0.8392 -0.2658  1.4639
 2532TIP3    H2 7561   0.933   3.826   4.111  0.5034 -0.8739 -1.6365
 2533TIP3   OH2 7562   5.688   2.073   0.335 -0.0151  0.0826 -0.2584
 2533TIP3    H1 7563   5.665   2.166   0.338  0.1145  0.1933 -1.8122
 2533TIP3    H2 7564   5.683   2.044   0.426  1.6189  2.0074  0.5236
 2534TIP3   OH2 7565   0.770   0.547   4.028  0.1017  0.5217  0.0269
 2534TIP3    H1 7566   0.861   0.566   4.004 -0.3026  2.2368 -0.2592
 2534TIP3    H2 7567   0.770   0.545   4.123  0.3985  0.7170  0.0326
 2535TIP3   OH2 7568   0.215   4.810   3.555 -0.5562 -0.4637  0.4970
 2535TIP3    H1 7569   0.283   4.808   3.622 -0.4670  0.3547  0.4515
 2535TIP3    H2 7570   0.261   4.830   3.474 -0.9511  1.4513  0.6757
 2536TIP3   OH2 7571   6.848   2.729   3.157 -0.4953  0.1857 -0.2531
 2536TIP3    H1 7572   6.767   2.679   3.151 -0.5609  0.0868  1.1979
 2536TIP3    H2 7573   6.820   2.818   3.177 -0.2451 -0.0555  1.3150
 2537TIP3   OH2 7574   3.997   3.552   5.811  0.2407  0.3846  0.3657
 2537TIP3    H1 7575   3.940   3.491   5.856 -0.2547 -0.5628 -1.4906
 2537TIP3    H2 7576   4.083   3.540   5.853 -0.1076 -0.7584  0.7771
 2538TIP3   OH2 7577   5.200   1.586   2.481  0.1659 -0.4145 -0.1802
 2538TIP3    H1 7578   5.189   1.603   2.387 -0.0194 -1.7828 -0.4254
 2538TIP3    H2 7579   5.112   1.591   2.516  0.2309  0.0614 -0.0798
 2539TIP3   OH2 7580   5.063   0.207   4.228  0.7913  0.1823 -0.2929
 2539TIP3    H1 7581   5.114   0.231   4.306  0.1035 -0.1875  0.2731
 2539TIP3    H2 7582   5.089   0.117   4.209 -1.5904 -1.0015  1.6097
 2540TIP3   OH2 7583   3.173   3.351   4.072 -0.0970  0.3048 -0.0949
 2540TIP3    H1 7584   3.161   3.309   3.987 -0.7953 -0.9671  0.5977
 2540TIP3    H2 7585   3.267   3.345   4.088 -0.2751 -1.9908  0.4275
 2541TIP3   OH2 7586   4.136   3.500   4.874  0.4579 -0.0128  0.2504
 2541TIP3    H1 7587   4.157   3.496   4.781  1.6051  1.2160  0.4260
 2541TIP3    H2 7588   4.138   3.594   4.895 -2.9484  0.0717  0.8585
 2542TIP3   OH2 7589   6.773   3.024   3.119  0.6293  0.1558 -0.0665
 2542TIP3    H1 7590   6.739   3.071   3.043 -1.5723 -0.7720  0.2423
 2542TIP3    H2 7591   6.794   3.092   3.182 -1.4406  0.8445 -0.0299
 2543TIP3   OH2 7592   1.668   4.117   3.635 -0.1254 -0.3700 -0.4945
 2543TIP3    H1 7593   1.689   4.038   3.686 -0.7062 -0.8343 -0.9659
 2543TIP3    H2 7594   1.643   4.182   3.701  0.1337 -0.6496 -0.1167
 2544TIP3   OH2 7595   2.289   2.906   2.447 -0.4832 -0.7358 -0.6318
 2544TIP3    H1 7596   2.214   2.847   2.450 -0.6162 -0.5600 -0.4278
 2544TIP3    H2 7597   2.365   2.848   2.438 -0.7189 -0.8558 -2.0257
 2545TIP3   OH2 7598   5.903   4.091   1.786 -0.5048 -0.0424  0.2158
 2545TIP3    H1 7599   5.966   4.146   1.739  0.0960 -0.7966  0.1190
 2545TIP3    H2 7600   5.882   4.141   1.865 -0.7128  0.7533 -0.3236
 2546TIP3   OH2 7601   5.204   2.530   0.445 -0.4685 -0.4461  0.2724
 2546TIP3    H1 7602   5.163   2.477   0.514 -1.5185  1.7265  1.4211
 2546TIP3    H2 7603   5.152   2.610   0.444  2.5831  1.6702  0.4162
 2547TIP3   OH2 7604   1.527   3.093   5.652  0.1031  0.1592 -0.4543
 2547TIP3    H1 7605   1.539   3.004   5.686 -3.0125 -0.8282 -1.5780
 2547TIP3    H2 7606   1.512   3.146   5.730  1.9736 -0.2209  0.2301
 2548TIP3   OH2 7607   3.018   4.376   2.573  0.2177  0.3904 -0.4710
 2548TIP3    H1 7608   2.988   4.327   2.649  0.3815  0.0871 -0.6020
 2548TIP3    H2 7609   3.024   4.467   2.604  1.9097  0.0268  0.3821
 2549TIP3   OH2 7610   0.375   2.804   1.469  0.3827 -0.0065  0.9181
 2549TIP3    H1 7611   0.329   2.746   1.408 -0.9885  1.3299  0.6145
 2549TIP3    H2 7612   0.349   2.772   1.556  1.9974 -1.6433  0.8645
 2550TIP3   OH2 7613   4.914   6.310   3.080  0.2910  0.2544 -0.5451
 2550TIP3    H1 7614   4.971   6.323   3.156  1.5081 -1.4704 -1.1096
 2550TIP3    H2 7615   4.825   6.319   3.115  0.7910 -1.3603  1.3044
 2551TIP3   OH2 7616   3.456   5.164   5.431 -0.2243  0.0612  0.0591
 2551TIP3    H1 7617   3.438   5.129   5.343 -1.9504  0.0615  0.3794
 2551TIP3    H2 7618   3.374   5.207   5.457 -0.5210 -1.8094  2.5554
 2552TIP3   OH2 7619   2.883   5.629   3.743  0.3434 -0.1401 -0.0556
 2552TIP3    H1 7620   2.974   5.659   3.751  0.2474  0.3425 -0.7454
 2552TIP3    H2 7621   2.830   5.706   3.761  0.0492 -0.4688  0.5544
 2553TIP3   OH2 7622   4.886   2.411   3.693  0.4143 -0.3813  0.3948
 2553TIP3    H1 7623   4.965   2.359   3.711  2.2091  1.5850 -1.2516
 2553TIP3    H2 7624   4.879   2.412   3.598  0.4197  2.2598  0.3532
 2554TIP3   OH2 7625   5.024   5.721   2.549  0.4311  0.6980  0.3479
 2554TIP3    H1 7626   5.095   5.657   2.551  0.0739  0.3013  0.4553
 2554TIP3    H2 7627   5.034   5.771   2.630 -0.1559 -0.1881  0.9967
 2555TIP3   OH2 7628   3.704   4.783   3.725 -0.0343  0.0758  0.1342
 2555TIP3    H1 7629   3.736   4.774   3.815  1.6803 -1.9788 -0.5683
 2555TIP3    H2 7630   3.764   4.845   3.684 -0.0017  0.0061  0.0758
 2556TIP3   OH2 7631   0.712   5.191   5.353  0.2322  0.6625  0.8951
 2556TIP3    H1 7632   0.653   5.158   5.420  0.8784  0.9525  1.6200
 2556TIP3    H2 7633   0.791   5.136   5.361 -0.5610 -0.9575 -1.2641
 2557TIP3   OH2 7634   7.186   4.865   2.646  0.3140  0.1207  0.4090
 2557TIP3    H1 7635   7.260   4.915   2.682  0.2025  1.3374 -0.9575
 2557TIP3    H2 7636   7.119   4.868   2.714  0.7650  0.8058  0.8358
 2558TIP3   OH2 7637   3.452   3.294   2.442 -0.7645  0.1945  1.1975
 2558TIP3    H1 7638   3.472   3.200   2.445  1.0021  0.5140  0.5129
 2558TIP3    H2 7639   3.427   3.310   2.351  1.1281  0.7509  0.7282
 2559TIP3   OH2 7640   2.867   1.790   5.426  0.0479  0.3346 -0.3690
 2559TIP3    H1 7641   2.963   1.794   5.422  0.0680  0.2897  0.0219
 2559TIP3    H2 7642   2.849   1.738   5.504 -0.2893 -0.1728 -0.7786
 2560TIP3   OH2 7643   1.326   4.160   1.997 -0.1168 -0.6692 -0.0500
 2560TIP3    H1 7644   1.402   4.164   1.939 -0.5953 -4.1159 -1.0935
 2560TIP3    H2 7645   1.360   4.124   2.079  0.0466  1.6993  1.0156
 2561TIP3   OH2 7646   3.354   1.109   4.638  0.1239 -0.6188  0.2047
 2561TIP3    H1 7647   3.445   1.129   4.660 -0.5865  2.7387  0.6570
 2561TIP3    H2 7648   3.351   1.111   4.542  0.3875  0.1217  0.2059
 2562TIP3   OH2 7649   1.665   2.388   2.205  0.1125  0.7553 -0.0687
 2562TIP3    H1 7650   1.648   2.468   2.155  2.4025  0.8170 -0.8898
 2562TIP3    H2 7651   1.755   2.364   2.181 -1.0055 -3.0122 -1.1497
 2563TIP3   OH2 7652   2.283   3.120   1.197 -0.4535  0.1192 -0.0125
 2563TIP3    H1 7653   2.331   3.065   1.135 -2.2844 -0.6439 -0.8432
 2563TIP3    H2 7654   2.190   3.103   1.177 -1.0959  1.0125  1.9319
 2564TIP3   OH2 7655   1.019   1.409   3.343  0.2734 -0.2292  0.0315
 2564TIP3    H1 7656   1.076   1.349   3.296  1.4235 -0.2181  1.3407
 2564TIP3    H2 7657   0.931   1.373   3.330  0.9015 -2.0981  0.5926
 2565TIP3   OH2 7658   4.442   5.254   0.670  0.0058  0.0787  0.2739
 2565TIP3    H1 7659   4.443   5.348   0.689  1.7227  0.2594 -0.4884
 2565TIP3    H2 7660   4.350   5.235   0.650 -0.2223  1.8387 -0.6122
 2566TIP3   OH2 7661   4.130   1.439   5.259 -0.1049  0.2121 -0.2861
 2566TIP3    H1 7662   4.034   1.439   5.255 -0.1801 -1.5830  0.5498
 2566TIP3    H2 7663   4.157   1.394   5.178 -0.0752 -1.0107  0.3796
 2567TIP3   OH2 7664   3.275   1.065   5.271 -0.3019 -0.1741 -0.4059
 2567TIP3    H1 7665   3.324   0.991   5.235  0.7063  1.5430 -2.9374
 2567TIP3    H2 7666   3.250   1.116   5.194 -3.1197  0.8623  1.0739
 2568TIP3   OH2 7667   0.799   2.941   0.941  0.1672 -0.1913  0.1379
 2568TIP3    H1 7668   0.759   2.889   1.011  1.0911  0.9125  1.5583
 2568TIP3    H2 7669   0.880   2.895   0.920  0.0548 -0.3425  0.0345
 2569TIP3   OH2 7670   0.367   2.372   1.446 -0.1664 -0.3663  0.6152
 2569TIP3    H1 7671   0.359   2.464   1.471  0.6430  0.3141 -1.4744
 2569TIP3    H2 7672   0.452   2.346   1.481 -0.3143 -0.2858  1.0484
 2570TIP3   OH2 7673   4.538   2.378   0.485  0.7467  0.1383  0.1449
 2570TIP3    H1 7674   4.492   2.298   0.460  0.8976  0.1650 -0.2188
 2570TIP3    H2 7675   4.526   2.383   0.580 -0.6954  0.5747 -0.0251
 2571TIP3   OH2 7676   0.056   3.634  -0.018 -0.1579 -0.5789 -0.3904
 2571TIP3    H1 7677   0.101   3.602   0.061  0.3796 -1.3411 -0.9953
 2571TIP3    H2 7678  -0.032   3.596  -0.012  0.6609 -2.7887 -1.4203
 2572TIP3   OH2 7679   1.615   4.652   3.431  0.0286 -0.4545  0.1211
 2572TIP3    H1 7680   1.599   4.746   3.435 -2.4330 -0.7897  0.0188
 2572TIP3    H2 7681   1.583   4.618   3.514  0.2128 -1.2717 -0.1277
 2573TIP3   OH2 7682   6.611   5.059   4.113  0.0939  0.2619  0.2235
 2573TIP3    H1 7683   6.560   5.060   4.194 -1.7325  1.2757 -0.8771
 2573TIP3    H2 7684   6.608   4.968   4.084 -1.3830  0.3371  0.0442
 2574TIP3   OH2 7685   3.093   5.926   3.452 -0.3540  0.0220  0.3085
 2574TIP3    H1 7686   3.061   5.937   3.362  2.1988 -0.4782 -0.7534
 2574TIP3    H2 7687   3.139   5.842   3.451  0.4005  0.3802  1.8752
 2575TIP3   OH2 7688   1.566   0.119   3.413 -0.2835 -0.0051 -0.0613
 2575TIP3    H1 7689   1.661   0.120   3.403 -0.0963  3.3170  0.8936
 2575TIP3    H2 7690   1.551   0.076   3.496  0.1564 -2.3790 -1.1299
 2576TIP3   OH2 7691   1.313   5.481   4.504 -0.1087  0.2132 -0.7917
 2576TIP3    H1 7692   1.331   5.569   4.535  3.4953 -0.7429  0.3485
 2576TIP3    H2 7693   1.396   5.450   4.468  0.0087 -3.9415  2.2365
 2577TIP3   OH2 7694   1.648   4.030   0.385 -0.2537  0.3552 -0.3440
 2577TIP3    H1 7695   1.602   3.976   0.448 -0.6239  1.4450  0.3529
 2577TIP3    H2 7696   1.596   4.110   0.378  0.3432  0.6957 -1.2374
 2578TIP3   OH2 7697   3.065   5.464   0.981 -0.1703  0.9705 -0.1214
 2578TIP3    H1 7698   3.005   5.511   1.038  0.6103 -0.6423  2.2113
 2578TIP3    H2 7699   3.019   5.457   0.898 -2.3059  1.6187  0.9285
 2579TIP3   OH2 7700   5.731   6.544   1.891  0.4544 -0.1627 -0.2013
 2579TIP3    H1 7701   5.689   6.468   1.851  0.8362 -1.4946  1.7425
 2579TIP3    H2 7702   5.820   6.543   1.856  0.2207 -0.1065 -0.8068
 2580TIP3   OH2 7703   6.029   5.220   1.940 -0.6124  0.1723  0.2452
 2580TIP3    H1 7704   6.020   5.315   1.951  0.5119  0.2692  0.5066
 2580TIP3    H2 7705   5.972   5.182   2.006 -1.9243  0.6468 -0.5912
 2581TIP3   OH2 7706   3.691   5.256   3.531 -0.3557  0.1605  0.2431
 2581TIP3    H1 7707   3.712   5.342   3.495  0.0732 -0.3332 -0.7188
 2581TIP3    H2 7708   3.707   5.264   3.625 -1.2088  1.3908  0.3030
 2582TIP3   OH2 7709   1.956   1.683   2.138  0.0196  0.6637  0.0805
 2582TIP3    H1 7710   1.887   1.737   2.100  0.2111  1.1337  0.3859
 2582TIP3    H2 7711   1.953   1.704   2.232 -2.0850 -2.2430  0.8057
 2583TIP3   OH2 7712   4.964   6.208   2.493  0.1667 -0.3055  0.2086
 2583TIP3    H1 7713   5.054   6.233   2.473 -0.3500  0.2323 -1.6651
 2583TIP3    H2 7714   4.947   6.132   2.437 -0.6688 -0.1550  0.2502
 2584TIP3   OH2 7715   4.980   2.431   1.018 -0.2317 -0.2930 -0.1143
 2584TIP3    H1 7716   4.918   2.504   1.016 -0.6928 -0.6898 -1.3125
 2584TIP3    H2 7717   5.007   2.425   1.110 -0.1326  1.4146  0.0063
 2585TIP3   OH2 7718   5.910   5.250   4.953  0.2031 -0.9011  0.0889
 2585TIP3    H1 7719   5.876   5.177   4.903  0.5029 -0.8795 -0.1543
 2585TIP3    H2 7720   5.835   5.308   4.967  0.3479 -0.3375 -1.3493
 2586TIP3   OH2 7721   6.863   6.378   4.066 -0.1876  0.1475 -0.0204
 2586TIP3    H1 7722   6.810   6.300   4.046 -0.8346  0.5178  0.2042
 2586TIP3    H2 7723   6.902   6.359   4.151  2.0702 -1.1691 -1.2603
 2587TIP3   OH2 7724   0.264   1.089   5.001 -0.0200  0.0421 -0.1616
 2587TIP3    H1 7725   0.187   1.040   5.029 -0.0495  0.4031  0.4100
 2587TIP3    H2 7726   0.232   1.147   4.932 -0.4081  0.6351  0.4959
 2588TIP3   OH2 7727   3.369   3.288   1.840 -0.5001  0.1769  0.0604
 2588TIP3    H1 7728   3.312   3.334   1.901  0.3508  0.6234  0.5400
 2588TIP3    H2 7729   3.325   3.295   1.756 -0.7666  1.2152  0.2696
 2589TIP3   OH2 7730   1.523   5.073   1.156  0.0376 -0.3850 -0.5027
 2589TIP3    H1 7731   1.530   4.978   1.140  1.1858 -0.1989 -1.2561
 2589TIP3    H2 7732   1.614   5.103   1.156 -0.2735  0.5769  0.6889
 2590TIP3   OH2 7733   6.617   3.555   1.299  0.7719  0.0088  0.1629
 2590TIP3    H1 7734   6.672   3.608   1.242 -1.3112  0.9801 -1.1023
 2590TIP3    H2 7735   6.527   3.582   1.277 -0.1735 -0.2140  3.3305
 2591TIP3   OH2 7736   1.818   1.311   0.614 -0.1221  0.0427 -0.2418
 2591TIP3    H1 7737   1.813   1.226   0.570  2.0399 -0.1120 -0.2975
 2591TIP3    H2 7738   1.730   1.347   0.607 -1.3540 -2.5582  0.5553
 2592TIP3   OH2 7739   6.388   0.462   2.685 -0.4626 -0.0365 -0.3160
 2592TIP3    H1 7740   6.403   0.554   2.707 -1.9801 -0.1608  1.6077
 2592TIP3    H2 7741   6.458   0.415   2.730  0.1604  0.1425 -1.0833
 2593TIP3   OH2 7742   4.721   5.959   3.815  0.0625 -0.1309 -0.2437
 2593TIP3    H1 7743   4.635   5.995   3.795 -0.3026 -0.2315  1.0417
 2593TIP3    H2 7744   4.779   5.998   3.751 -0.4857  1.9615  0.4681
 2594TIP3   OH2 7745   1.400   5.816   5.603  0.0418  0.2080  0.5880
 2594TIP3    H1 7746   1.315   5.858   5.602  0.1802  0.4916  0.6171
 2594TIP3    H2 7747   1.384   5.729   5.640 -0.1271  0.4989  1.2146
 2595TIP3   OH2 7748   4.863   3.590   5.390  0.2210 -0.1109 -0.9771
 2595TIP3    H1 7749   4.927   3.555   5.453 -1.2071 -0.1679  0.5356
 2595TIP3    H2 7750   4.802   3.641   5.444 -2.5960 -2.2867 -1.8130
 2596TIP3   OH2 7751   5.054   2.983   0.366  0.5658  0.0670  0.3323
 2596TIP3    H1 7752   5.078   2.947   0.280 -0.4531 -0.2481  0.1752
 2596TIP3    H2 7753   4.971   3.027   0.351 -1.0556 -2.3131  1.6987
 2597TIP3   OH2 7754   1.144   0.786   2.707 -0.0974 -0.7596 -0.5443
 2597TIP3    H1 7755   1.108   0.732   2.778  0.8722 -0.0919  0.4852
 2597TIP3    H2 7756   1.087   0.767   2.632 -2.2024 -0.2531  0.8124
 2598TIP3   OH2 7757   5.362   6.767   3.637 -0.5180  0.0161  0.2881
 2598TIP3    H1 7758   5.333   6.768   3.546 -1.0983  0.0260  0.4649
 2598TIP3    H2 7759   5.297   6.821   3.682  1.0715  1.9813  0.3256
 2599TIP3   OH2 7760   5.834   2.409   3.036  0.5769 -0.3245 -0.2577
 2599TIP3    H1 7761   5.893   2.471   2.994 -0.2025  0.2619 -0.5261
 2599TIP3    H2 7762   5.755   2.411   2.982  0.0695 -0.5971  0.4505
 2600TIP3   OH2 7763   0.128   1.518   4.801  0.2244 -0.0695 -0.1775
 2600TIP3    H1 7764   0.180   1.516   4.720 -0.1662  0.1264 -0.4351
 2600TIP3    H2 7765   0.193   1.525   4.871  0.6275 -1.2190 -0.4058
 2601TIP3   OH2 7766   0.125   5.924   0.448 -0.4726  0.1279  0.1788
 2601TIP3    H1 7767   0.063   5.997   0.454 -0.7686 -0.0651 -0.5148
 2601TIP3    H2 7768   0.191   5.954   0.386  0.0187  0.2410  0.7407
 2602TIP3   OH2 7769   7.017   2.976   0.430  0.4399  0.4147 -0.9423
 2602TIP3    H1 7770   7.080   3.011   0.493  0.1655  1.0349 -1.0024
 2602TIP3    H2 7771   6.937   2.963   0.481  0.0628  1.4078 -1.2630
 2603TIP3   OH2 7772   3.848   5.425   0.991  0.0647  0.3778  0.2360
 2603TIP3    H1 7773   3.912   5.363   1.025  0.1946 -0.2775 -1.1185
 2603TIP3    H2 7774   3.893   5.469   0.918 -0.9214  0.0907 -0.5701
 2604TIP3   OH2 7775   6.313   2.355   0.661  0.1196  0.5388  0.4944
 2604TIP3    H1 7776   6.222   2.331   0.673 -0.3827  2.8152  1.6627
 2604TIP3    H2 7777   6.361   2.295   0.719 -0.7028 -0.1242  0.5080
 2605TIP3   OH2 7778   0.207   1.338   0.764  0.1807 -0.0755 -0.3047
 2605TIP3    H1 7779   0.296   1.335   0.801 -0.0762  0.1446  0.3420
 2605TIP3    H2 7780   0.193   1.251   0.728  0.9060  0.0841 -1.0060
 2606TIP3   OH2 7781   0.697   2.510   0.896  0.1280  0.0782 -0.0991
 2606TIP3    H1 7782   0.646   2.432   0.919 -0.2790  0.2031 -0.5625
 2606TIP3    H2 7783   0.750   2.528   0.974 -0.9241  0.2553  0.6067
 2607TIP3   OH2 7784   4.767   3.793   0.245 -0.1147 -0.1027  0.1835
 2607TIP3    H1 7785   4.684   3.826   0.281  0.6977  0.9488  1.1384
 2607TIP3    H2 7786   4.742   3.711   0.201 -2.0498  1.2443 -1.4527
 2608TIP3   OH2 7787   2.865   0.720   2.964 -0.1199  0.4393 -0.3979
 2608TIP3    H1 7788   2.851   0.687   3.053 -0.4513 -0.5759 -0.8032
 2608TIP3    H2 7789   2.957   0.745   2.961  0.0622 -0.1671  0.0402
 2609TIP3   OH2 7790   5.640   3.807   3.797 -0.0430 -0.3440  0.1736
 2609TIP3    H1 7791   5.690   3.837   3.873  0.7531 -1.3641  0.0768
 2609TIP3    H2 7792   5.578   3.743   3.832  1.3461 -1.9588 -0.1939
 2610TIP3   OH2 7793   4.915   4.882   2.883 -0.0914 -0.0755  0.0226
 2610TIP3    H1 7794   4.864   4.811   2.922 -2.8471  2.1445  0.7807
 2610TIP3    H2 7795   4.908   4.954   2.946 -0.0576  1.8668 -2.0672
 2611TIP3   OH2 7796   3.902   0.798   4.288 -0.2486  0.4569 -0.0755
 2611TIP3    H1 7797   3.852   0.847   4.222 -0.9737  0.5820  0.5541
 2611TIP3    H2 7798   3.897   0.852   4.367 -1.2061 -0.6939  0.6822
 2612TIP3   OH2 7799   5.940   0.702   2.761  0.0431  0.6920  0.0085
 2612TIP3    H1 7800   5.996   0.641   2.714  0.4867  1.3553 -0.3288
 2612TIP3    H2 7801   5.972   0.700   2.851  0.9007  1.3818 -0.2644
 2613TIP3   OH2 7802   1.594   2.478   0.909 -0.7396 -0.1005  0.2386
 2613TIP3    H1 7803   1.664   2.511   0.966 -1.0192  1.2500 -0.1599
 2613TIP3    H2 7804   1.516   2.524   0.938 -0.7904  1.0117 -1.5443
 2614TIP3   OH2 7805   4.010   6.074   4.405 -0.1660  0.0087  0.3000
 2614TIP3    H1 7806   3.981   6.071   4.314 -0.4163 -0.5898  0.3926
 2614TIP3    H2 7807   3.998   5.984   4.437  2.4139 -0.4779  0.1410
 2615TIP3   OH2 7808   6.008   0.520   5.780 -0.8061  0.2442  0.3797
 2615TIP3    H1 7809   5.966   0.507   5.695 -1.8038 -0.0167  0.8897
 2615TIP3    H2 7810   6.011   0.615   5.791 -1.7071  0.2702  0.5282
 2616TIP3   OH2 7811   6.652   5.175   4.714 -0.0602  0.1855  0.2753
 2616TIP3    H1 7812   6.609   5.217   4.640  0.0984 -0.3259 -0.1068
 2616TIP3    H2 7813   6.640   5.237   4.786 -2.7998 -0.5633  0.6064
 2617TIP3   OH2 7814   3.806   4.444   1.485 -0.7741  0.0457  0.1470
 2617TIP3    H1 7815   3.794   4.413   1.575  0.4689  1.9539  1.0317
 2617TIP3    H2 7816   3.864   4.379   1.445 -1.6500 -1.0299  0.5872
 2618TIP3   OH2 7817   5.086   3.933   5.526 -0.1457  0.1177  0.3485
 2618TIP3    H1 7818   5.083   3.911   5.433 -0.5390 -0.4566  0.4871
 2618TIP3    H2 7819   5.171   3.974   5.539  0.0567 -0.1307 -0.1935
 2619TIP3   OH2 7820   3.295   5.956   0.784  0.2348  0.2727  0.1695
 2619TIP3    H1 7821   3.257   5.880   0.828 -0.7168  1.4080  1.3924
 2619TIP3    H2 7822   3.220   6.000   0.744  0.5776  1.2455  0.5721
 2620TIP3   OH2 7823   0.168   3.168   5.350  0.1269  0.3111 -0.2631
 2620TIP3    H1 7824   0.173   3.084   5.303  0.3437  0.1798 -0.0084
 2620TIP3    H2 7825   0.255   3.207   5.339 -0.2195  0.8775 -1.0632
 2621TIP3   OH2 7826   2.665   4.666   1.018  0.5468  0.2441 -1.1454
 2621TIP3    H1 7827   2.648   4.760   1.010  0.4953  0.4902  1.1755
 2621TIP3    H2 7828   2.752   4.661   1.057  0.1084 -0.6205 -0.2372
 2622TIP3   OH2 7829   4.802   2.688   3.542 -0.0297 -0.1298  0.0179
 2622TIP3    H1 7830   4.725   2.653   3.497 -0.6139 -0.4275  1.2223
 2622TIP3    H2 7831   4.770   2.716   3.627  1.5213 -2.0854  1.3436
 2623TIP3   OH2 7832   6.330   5.700   3.056 -0.1070 -0.6921 -0.2333
 2623TIP3    H1 7833   6.335   5.796   3.050  0.5593 -0.6017  1.4037
 2623TIP3    H2 7834   6.277   5.684   3.134 -1.3825 -1.6990 -1.2517
 2624TIP3   OH2 7835   4.128   4.100   2.004 -0.5422 -0.4089 -0.0415
 2624TIP3    H1 7836   4.161   4.189   1.989 -1.3017 -0.3564 -1.6347
 2624TIP3    H2 7837   4.201   4.054   2.044  0.4983  0.4659 -0.8633
 2625TIP3   OH2 7838   6.789   3.808   5.592 -0.2786  0.0757 -0.2285
 2625TIP3    H1 7839   6.799   3.827   5.499 -3.7211 -1.2154 -1.0446
 2625TIP3    H2 7840   6.773   3.893   5.632 -1.1298  0.4456 -1.2908
 2626TIP3   OH2 7841   4.410   5.843   3.043 -0.4611 -0.0332 -0.1853
 2626TIP3    H1 7842   4.380   5.761   3.004 -1.3074  0.4186 -0.4896
 2626TIP3    H2 7843   4.336   5.903   3.035 -0.0293  0.6135  0.5001
 2627TIP3   OH2 7844   4.697   6.351   0.226  0.0084  0.0858 -0.1065
 2627TIP3    H1 7845   4.687   6.444   0.205 -2.3009  0.5507  2.4775
 2627TIP3    H2 7846   4.748   6.350   0.307  0.0303 -0.8999 -0.1183
 2628TIP3   OH2 7847   3.695   2.057   5.699 -0.5123  0.1730  0.1977
 2628TIP3    H1 7848   3.789   2.074   5.694 -0.2680 -0.8813  0.8353
 2628TIP3    H2 7849   3.657   2.116   5.634  0.8149 -1.0889 -1.8395
 2629TIP3   OH2 7850   6.865   1.822   0.834  0.2273 -0.3189 -0.2657
 2629TIP3    H1 7851   6.775   1.790   0.838 -0.3714  1.3790  0.9763
 2629TIP3    H2 7852   6.900   1.785   0.753 -1.5475 -1.0789 -0.7338
 2630TIP3   OH2 7853   4.370   0.211   3.227 -0.3057  0.0359 -0.1410
 2630TIP3    H1 7854   4.450   0.230   3.179  0.1480  0.3934  0.7311
 2630TIP3    H2 7855   4.363   0.116   3.226 -0.1739  0.0297 -0.6945
 2631TIP3   OH2 7856   7.117   5.420   3.480 -0.3530  0.1069  0.6570
 2631TIP3    H1 7857   7.122   5.513   3.458 -0.7134 -0.0255 -0.0030
 2631TIP3    H2 7858   7.023   5.400   3.477 -0.1681 -0.6722 -0.9449
 2632TIP3   OH2 7859   7.138   5.642   5.840  0.5113  0.2669 -0.1594
 2632TIP3    H1 7860   7.175   5.570   5.790  1.2551  0.2348  0.4124
 2632TIP3    H2 7861   7.194   5.717   5.820 -1.1284  1.1049 -1.9250
 2633TIP3   OH2 7862   2.399   2.931   4.342 -0.0477 -0.0704 -0.3702
 2633TIP3    H1 7863   2.383   2.857   4.400  0.5109 -1.0381 -1.4168
 2633TIP3    H2 7864   2.352   3.004   4.382  0.7993 -0.5570  1.5875
 2634TIP3   OH2 7865   0.933   0.982   2.017 -0.1743  0.5160  0.6892
 2634TIP3    H1 7866   0.910   1.039   2.090 -1.3910  1.5731 -0.4758
 2634TIP3    H2 7867   0.904   0.895   2.044  1.2133  0.4895  2.2607
 2635TIP3   OH2 7868   5.351   2.776   4.435 -0.1739  0.2514  0.1319
 2635TIP3    H1 7869   5.374   2.862   4.399  0.0351  0.1317 -0.0230
 2635TIP3    H2 7870   5.366   2.715   4.362  0.6926 -0.0544  0.5592
 2636TIP3   OH2 7871   5.451   0.835   0.835 -0.4940 -0.6505 -0.0005
 2636TIP3    H1 7872   5.532   0.829   0.886 -0.5591  1.0544  0.3320
 2636TIP3    H2 7873   5.469   0.782   0.757  1.1295  0.1051 -0.1831
 2637TIP3   OH2 7874   1.430   4.403   1.277 -0.0386  0.2793 -0.6471
 2637TIP3    H1 7875   1.355   4.361   1.235  0.2022  0.0664 -0.8770
 2637TIP3    H2 7876   1.454   4.343   1.349  0.3933 -0.0613 -1.0634
 2638TIP3   OH2 7877   7.122   1.761   3.499 -0.0287 -0.4437 -0.1238
 2638TIP3    H1 7878   7.039   1.767   3.546  0.0202 -1.9293  0.2080
 2638TIP3    H2 7879   7.188   1.773   3.568  0.0322 -1.1778 -0.0461
 2639TIP3   OH2 7880   0.736   4.990   1.838 -0.0847  0.6734 -0.2283
 2639TIP3    H1 7881   0.780   5.031   1.912 -0.3774  0.6321 -0.0309
 2639TIP3    H2 7882   0.678   4.925   1.877 -0.5792  0.9647 -0.4638
 2640TIP3   OH2 7883   0.371   3.758   1.351 -0.2029  0.7276  0.5479
 2640TIP3    H1 7884   0.322   3.814   1.290 -0.0725  1.2131  0.8867
 2640TIP3    H2 7885   0.457   3.800   1.358  0.1308  0.1163  0.2898
 2641TIP3   OH2 7886   5.612   2.402   2.866 -0.3792  0.6906  0.1299
 2641TIP3    H1 7887   5.581   2.319   2.902 -1.4836  1.3124  0.6460
 2641TIP3    H2 7888   5.652   2.378   2.782 -1.4093 -0.2629 -0.1038
 2642TIP3   OH2 7889   1.384   0.940   5.141 -0.0311 -0.1951  0.1306
 2642TIP3    H1 7890   1.308   0.914   5.193 -0.3468  1.3707  0.4811
 2642TIP3    H2 7891   1.368   0.901   5.055 -2.1441  1.5302 -0.3501
 2643TIP3   OH2 7892   2.328   2.524   5.464  0.1197  0.3834  0.3577
 2643TIP3    H1 7893   2.418   2.491   5.457 -0.6065 -1.5361 -0.5552
 2643TIP3    H2 7894   2.284   2.489   5.387 -1.5019  1.0458  0.9516
 2644TIP3   OH2 7895   7.020   5.570   2.231  0.4288  0.6172  1.1105
 2644TIP3    H1 7896   6.976   5.653   2.212  0.6165  0.9041  1.8834
 2644TIP3    H2 7897   7.110   5.595   2.252  0.8132  0.0913  0.1212
 2645TIP3   OH2 7898   1.315   4.223   4.467  0.3961 -0.4750 -0.6558
 2645TIP3    H1 7899   1.320   4.297   4.406 -1.5592 -1.1042 -1.6430
 2645TIP3    H2 7900   1.225   4.224   4.500  0.2685 -2.5075 -0.8262
 2646TIP3   OH2 7901   0.717   5.778   2.333 -0.0808  0.5920  0.4051
 2646TIP3    H1 7902   0.800   5.807   2.371 -0.8348  2.8015  0.4979
 2646TIP3    H2 7903   0.662   5.856   2.333 -1.2048 -0.0691 -2.3284
 2647TIP3   OH2 7904   6.057   0.274   5.601 -0.1106 -0.2622  0.0371
 2647TIP3    H1 7905   6.146   0.238   5.611  0.8705  2.1107  0.5732
 2647TIP3    H2 7906   6.008   0.239   5.675  0.6512 -0.8423  0.2788
 2648TIP3   OH2 7907   6.867   6.576   3.879 -0.3998  0.4944  0.9125
 2648TIP3    H1 7908   6.840   6.517   3.949  0.3385 -0.9202  0.0574
 2648TIP3    H2 7909   6.930   6.635   3.920  0.4428 -0.6715  1.3595
 2649TIP3   OH2 7910   1.541   6.771   2.568  0.2715  0.5385  0.7766
 2649TIP3    H1 7911   1.559   6.861   2.596  0.2759  0.3201  1.5004
 2649TIP3    H2 7912   1.628   6.731   2.562  0.2572  0.5252  0.6698
 2650TIP3   OH2 7913   6.472   3.702   3.393  0.0776 -0.4418 -0.1122
 2650TIP3    H1 7914   6.378   3.712   3.408  0.3860  2.1477  0.6814
 2650TIP3    H2 7915   6.505   3.662   3.473 -0.3572 -1.4738 -0.4432
 2651TIP3   OH2 7916   6.191   3.954   3.321 -0.0164 -0.6840 -0.0288
 2651TIP3    H1 7917   6.271   3.957   3.268 -0.3439 -0.2178 -0.5017
 2651TIP3    H2 7918   6.153   4.041   3.313  0.0592 -0.5289  1.1878
 2652TIP3   OH2 7919   1.401   2.707   3.338  0.7885  0.0789  0.4884
 2652TIP3    H1 7920   1.472   2.651   3.369  1.0325  0.4404  0.5841
 2652TIP3    H2 7921   1.352   2.651   3.277  0.5788 -0.4854  1.1630
 2653TIP3   OH2 7922   5.160   6.291   4.623  0.2339  0.3113 -0.4537
 2653TIP3    H1 7923   5.238   6.346   4.631  0.2793  0.1026  0.8081
 2653TIP3    H2 7924   5.194   6.202   4.617  0.1047  0.0976  1.3845
 2654TIP3   OH2 7925   6.392   0.269   5.274 -0.2435 -0.1000 -0.7628
 2654TIP3    H1 7926   6.416   0.357   5.304 -0.1235 -0.4493  0.1646
 2654TIP3    H2 7927   6.296   0.266   5.283 -0.1718 -0.3337 -0.0597
 2655TIP3   OH2 7928   5.472   3.087   1.578  0.0921 -0.3427 -0.7776
 2655TIP3    H1 7929   5.526   3.011   1.602  1.2751  0.1599 -1.7554
 2655TIP3    H2 7930   5.423   3.058   1.502 -0.1568 -0.4274 -0.5849
 2656TIP3   OH2 7931   0.399   0.834   3.563  0.0307 -0.1519  0.1884
 2656TIP3    H1 7932   0.484   0.812   3.601  1.2158  1.5559 -1.2929
 2656TIP3    H2 7933   0.363   0.902   3.620  0.5567  0.4633 -0.1948
 2657TIP3   OH2 7934   0.749   0.443   2.243  0.0104 -0.1432 -0.0525
 2657TIP3    H1 7935   0.757   0.357   2.201  0.4762 -0.5326  0.8175
 2657TIP3    H2 7936   0.670   0.481   2.204  0.5408 -0.4092 -1.4282
 2658TIP3   OH2 7937   5.222   3.948   0.989  0.0498 -0.0297  0.5235
 2658TIP3    H1 7938   5.298   3.978   1.038  0.6158 -1.5343  0.6248
 2658TIP3    H2 7939   5.254   3.940   0.899  0.2409 -1.3446  0.6893
 2659TIP3   OH2 7940   3.607   2.396   3.172  0.1837  0.1625 -0.6027
 2659TIP3    H1 7941   3.640   2.485   3.164 -0.2706  0.2554 -1.5183
 2659TIP3    H2 7942   3.617   2.375   3.265  0.8268  0.9537 -0.4866
 2660TIP3   OH2 7943   3.968   4.303   2.908 -0.4599 -0.3248 -0.2151
 2660TIP3    H1 7944   3.915   4.383   2.911  0.8297  0.5235  0.3710
 2660TIP3    H2 7945   3.991   4.294   2.815  1.4127  1.3741  0.0280
 2661TIP3   OH2 7946   1.224   2.505   3.909 -0.0981  0.4600 -0.8638
 2661TIP3    H1 7947   1.162   2.543   3.847  0.9113  1.9724 -1.0286
 2661TIP3    H2 7948   1.298   2.477   3.855  1.2997  2.8471 -0.3449
 2662TIP3   OH2 7949   2.250   2.554   4.135  0.1336  0.3189 -0.2856
 2662TIP3    H1 7950   2.176   2.602   4.096  0.8006  0.6804 -1.1442
 2662TIP3    H2 7951   2.209   2.485   4.186 -0.8009  0.3300 -0.9867
 2663TIP3   OH2 7952   3.149   0.485   1.005 -0.1387 -0.4468  0.1149
 2663TIP3    H1 7953   3.126   0.568   0.964 -2.6231 -1.8043 -1.5094
 2663TIP3    H2 7954   3.226   0.455   0.957  1.1757  1.1514  1.1429
 2664TIP3   OH2 7955   2.854   0.951   5.477  0.2037  0.0055 -0.3764
 2664TIP3    H1 7956   2.925   0.918   5.532 -1.8316 -1.2425  1.6729
 2664TIP3    H2 7957   2.846   1.043   5.501  0.6278 -0.0421 -0.0493
 2665TIP3   OH2 7958   1.284   2.226   2.567 -0.0370  0.1470  0.2208
 2665TIP3    H1 7959   1.228   2.256   2.495  1.0049 -0.9364 -1.0994
 2665TIP3    H2 7960   1.223   2.203   2.637 -1.2025 -0.1441 -0.8453
 2666TIP3   OH2 7961   0.039   0.196   2.881  0.2740 -0.0043 -0.7610
 2666TIP3    H1 7962   0.110   0.214   2.819  2.5842 -1.1304  1.3604
 2666TIP3    H2 7963   0.040   0.272   2.940  0.6257 -0.5997  0.0185
 2667TIP3   OH2 7964   1.750   5.123   4.841  0.0190 -0.2051 -0.4360
 2667TIP3    H1 7965   1.706   5.178   4.776  1.0317  1.5095  0.2598
 2667TIP3    H2 7966   1.831   5.095   4.797 -0.1819 -0.5807 -0.5632
 2668TIP3   OH2 7967   0.621   1.509   4.508 -0.2824  0.8515  0.2488
 2668TIP3    H1 7968   0.702   1.558   4.489 -0.5203  0.5146 -1.9471
 2668TIP3    H2 7969   0.567   1.522   4.430 -0.6922 -2.2198 -0.0903
 2669TIP3   OH2 7970   5.321   4.979   3.231  0.3840 -0.1313  0.2774
 2669TIP3    H1 7971   5.264   4.951   3.159 -0.5774  1.3310  0.4333
 2669TIP3    H2 7972   5.284   4.936   3.308  0.3696 -0.3332  0.1586
 2670TIP3   OH2 7973   6.258   1.963   1.052  0.2905 -0.1780  0.0095
 2670TIP3    H1 7974   6.308   1.949   0.972 -0.0629  1.4845 -0.5570
 2670TIP3    H2 7975   6.324   1.984   1.118  0.5288 -0.8373 -0.0110
 2671TIP3   OH2 7976   5.662   4.860   4.455 -0.8783  0.0417 -0.4908
 2671TIP3    H1 7977   5.712   4.837   4.533  0.4880 -1.3264 -1.7084
 2671TIP3    H2 7978   5.570   4.854   4.483 -0.4272 -0.5563  0.9529
 2672TIP3   OH2 7979   1.103   1.042   3.802 -0.4709 -0.4085 -0.4225
 2672TIP3    H1 7980   1.129   1.083   3.720 -0.3133  1.3847  0.4941
 2672TIP3    H2 7981   1.045   1.105   3.843 -1.0401 -1.5542  0.5701
 2673TIP3   OH2 7982   1.976   5.298   5.388  0.4195 -0.3548  0.2529
 2673TIP3    H1 7983   1.901   5.241   5.403  0.6463 -0.5016  0.8800
 2673TIP3    H2 7984   1.967   5.366   5.456  0.1340  0.3845 -0.4965
 2674TIP3   OH2 7985   0.615   6.296   2.495  0.0549  0.0312  0.7458
 2674TIP3    H1 7986   0.630   6.239   2.571  1.3154 -0.4739  0.1410
 2674TIP3    H2 7987   0.670   6.259   2.426  0.3884  1.5985  0.1317
 2675TIP3   OH2 7988   0.679   6.084   0.155  0.2785 -0.1265  1.1569
 2675TIP3    H1 7989   0.643   6.004   0.194  0.3467 -0.1423  1.1881
 2675TIP3    H2 7990   0.772   6.066   0.147  0.5240  0.4440  2.4151
 2676TIP3   OH2 7991   5.594   3.861   1.144  0.0174  0.0856 -0.0567
 2676TIP3    H1 7992   5.548   3.916   1.080 -1.3627 -2.2083 -1.2004
 2676TIP3    H2 7993   5.525   3.807   1.183  1.2146 -0.4577  1.3995
 2677TIP3   OH2 7994   7.080   0.254   3.262  0.2612 -0.0393 -0.0008
 2677TIP3    H1 7995   7.142   0.182   3.268 -2.5498 -2.7266 -0.6259
 2677TIP3    H2 7996   7.013   0.234   3.328 -0.5953  2.0925 -0.1319
 2678TIP3   OH2 7997   6.923   0.396   2.085  0.0933 -0.3054  0.1152
 2678TIP3    H1 7998   6.841   0.402   2.036 -0.3031  1.1066  0.8724
 2678TIP3    H2 7999   6.911   0.458   2.158  1.8489 -0.0395  0.2112
 2679TIP3   OH2 8000   1.762   4.212   1.247 -0.1956 -0.4040  0.3233
 2679TIP3    H1 8001   1.782   4.169   1.164  0.1495 -0.8800  0.6474
 2679TIP3    H2 8002   1.723   4.296   1.222 -0.2594 -0.6196 -0.3162
 2680TIP3   OH2 8003   3.260   1.231   5.063 -0.2079 -0.5562 -0.0763
 2680TIP3    H1 8004   3.262   1.268   4.974  2.5436  0.7084  0.4126
 2680TIP3    H2 8005   3.223   1.301   5.117  3.0851  0.9309  0.5131
 2681TIP3   OH2 8006   2.423   2.118   5.820 -0.3419 -0.0363 -0.6017
 2681TIP3    H1 8007   2.418   2.147   5.729 -0.0175 -2.0487 -1.3128
 2681TIP3    H2 8008   2.440   2.024   5.814 -0.8396 -0.3087  1.5465
 2682TIP3   OH2 8009   4.033   1.281   2.311  0.1088 -0.4471 -0.2848
 2682TIP3    H1 8010   4.128   1.285   2.326  0.4494  1.6426 -2.3843
 2682TIP3    H2 8011   3.998   1.353   2.363  0.0514  0.4484 -1.5215
 2683TIP3   OH2 8012   5.656   0.489   2.449 -0.3916  0.1009 -0.1798
 2683TIP3    H1 8013   5.661   0.412   2.505  0.6976  0.4645  0.2304
 2683TIP3    H2 8014   5.745   0.504   2.418 -0.9055  0.0631 -1.8242
 2684TIP3   OH2 8015   2.945   4.223   1.570  0.0077  0.3826  0.3723
 2684TIP3    H1 8016   2.958   4.214   1.475  1.2860 -1.2841  0.6421
 2684TIP3    H2 8017   2.994   4.301   1.594  1.2569 -0.2209 -0.1118
 2685TIP3   OH2 8018   3.410   1.368   3.800 -0.4522 -0.7039  0.2129
 2685TIP3    H1 8019   3.326   1.332   3.775 -0.6256 -0.1216 -0.0802
 2685TIP3    H2 8020   3.459   1.294   3.836 -0.7120 -1.2693 -0.5643
 2686TIP3   OH2 8021   1.693   6.665   5.818 -0.1504 -0.1192 -0.0395
 2686TIP3    H1 8022   1.753   6.734   5.845  0.4661 -1.6094  2.6739
 2686TIP3    H2 8023   1.665   6.692   5.730 -0.2515  3.7607  0.9871
 2687TIP3   OH2 8024   6.521   1.445   1.498  0.3649  0.0334 -0.8561
 2687TIP3    H1 8025   6.477   1.528   1.480  1.3355  1.0009  0.9488
 2687TIP3    H2 8026   6.523   1.438   1.593  1.3162 -1.5164 -0.9480
 2688TIP3   OH2 8027   0.500   5.410   4.730 -0.2912  0.7562  0.1200
 2688TIP3    H1 8028   0.477   5.318   4.746  0.3332  0.5628 -0.0347
 2688TIP3    H2 8029   0.564   5.431   4.798 -0.7145  1.1949  0.3864
 2689TIP3   OH2 8030   3.906   4.003   1.193 -0.4525 -0.2861  0.2054
 2689TIP3    H1 8031   3.851   4.045   1.127  0.1747  0.1964 -0.0207
 2689TIP3    H2 8032   3.951   3.932   1.146 -0.5450 -0.3946  0.2816
 2690TIP3   OH2 8033   1.615   2.265   4.038 -0.0222  0.4790  0.1282
 2690TIP3    H1 8034   1.540   2.225   3.995  0.5827  0.0910 -0.5914
 2690TIP3    H2 8035   1.614   2.356   4.007  0.2371  0.2780 -0.4997
 2691TIP3   OH2 8036   1.525   2.870   2.067 -0.1339 -0.7322  0.5899
 2691TIP3    H1 8037   1.546   2.916   1.985 -0.6951 -0.6648  0.4768
 2691TIP3    H2 8038   1.429   2.872   2.071 -0.1180  2.6243  3.1348
 2692TIP3   OH2 8039   5.107   1.674   3.912  0.1439 -0.2407  0.3275
 2692TIP3    H1 8040   5.197   1.707   3.914  0.8507 -2.0464  0.3211
 2692TIP3    H2 8041   5.064   1.715   3.987  0.8461  0.9496  0.0982
 2693TIP3   OH2 8042   0.582   3.195   1.336 -0.8793 -0.1373  0.5684
 2693TIP3    H1 8043   0.551   3.282   1.313  0.7124 -0.1237 -1.8341
 2693TIP3    H2 8044   0.627   3.207   1.420 -0.7612  1.3210  0.3210
 2694TIP3   OH2 8045   4.643   4.199   0.037  0.5181 -0.3461 -0.2553
 2694TIP3    H1 8046   4.721   4.148   0.020  1.0777  0.6617 -0.8244
 2694TIP3    H2 8047   4.667   4.289   0.012 -0.5104  0.1464  0.4520
 2695TIP3   OH2 8048   3.768   5.812   1.628 -0.1568 -0.5195  0.5288
 2695TIP3    H1 8049   3.827   5.817   1.553 -1.8177  1.1566 -0.7992
 2695TIP3    H2 8050   3.681   5.805   1.588 -1.0724  0.2403  2.2980
 2696TIP3   OH2 8051   4.931   4.661   3.479  0.0585  0.3547 -0.0779
 2696TIP3    H1 8052   4.943   4.566   3.476  0.7516  0.4022  0.7946
 2696TIP3    H2 8053   4.841   4.675   3.448 -0.2624 -0.6344  0.3599
 2697TIP3   OH2 8054   6.096   6.481   2.913 -0.1816 -0.6349  0.8322
 2697TIP3    H1 8055   6.027   6.444   2.969 -0.2029 -1.9734 -0.0168
 2697TIP3    H2 8056   6.143   6.542   2.969 -0.1814 -1.9541  2.3440
 2698TIP3   OH2 8057   5.555   0.659   3.043  0.5190 -0.3476 -0.0011
 2698TIP3    H1 8058   5.506   0.731   3.082 -0.4292 -0.4402 -0.9899
 2698TIP3    H2 8059   5.519   0.581   3.085  1.5437 -0.2820  1.0673
 2699TIP3   OH2 8060   7.122   2.479   4.938 -0.0588  0.3044 -0.0247
 2699TIP3    H1 8061   7.030   2.453   4.929 -0.1086  0.2504  0.6038
 2699TIP3    H2 8062   7.145   2.455   5.028  0.0746  1.8230  0.3782
 2700TIP3   OH2 8063   0.610   2.245   1.576  0.2328  0.5388  0.2218
 2700TIP3    H1 8064   0.677   2.313   1.576  0.3448  0.4297  0.6150
 2700TIP3    H2 8065   0.635   2.186   1.505 -0.7823  1.7950 -1.2757
 2701TIP3   OH2 8066   2.656   0.805   0.411 -0.1356  0.2468 -0.2284
 2701TIP3    H1 8067   2.744   0.776   0.385  0.0005  2.4388 -2.6170
 2701TIP3    H2 8068   2.671   0.884   0.463 -0.6620  0.9450 -1.1121
 2702TIP3   OH2 8069   6.934   4.901   0.540  0.7235  0.4474  0.0763
 2702TIP3    H1 8070   6.881   4.879   0.616 -1.3152 -0.4702 -1.5033
 2702TIP3    H2 8071   6.903   4.988   0.514  0.0426 -0.0311 -0.7676
 2703TIP3   OH2 8072   2.342   5.379   4.496 -0.0761 -0.4849 -0.1702
 2703TIP3    H1 8073   2.398   5.328   4.555 -1.1604 -1.2490  0.2316
 2703TIP3    H2 8074   2.334   5.464   4.539 -0.5944 -0.9271  0.6500
 2704TIP3   OH2 8075   3.544   4.306   4.255  0.3932  0.2394 -0.5856
 2704TIP3    H1 8076   3.518   4.370   4.188 -1.1360  0.1195 -0.1442
 2704TIP3    H2 8077   3.537   4.221   4.211 -2.6967 -0.0282  0.2467
 2705TIP3   OH2 8078   4.930   3.928   3.105  0.1891 -0.1422  0.3173
 2705TIP3    H1 8079   4.970   4.000   3.057  1.5030 -0.3937  0.9938
 2705TIP3    H2 8080   4.906   3.966   3.190 -0.3948 -0.1650  0.1670
 2706TIP3   OH2 8081   0.021   1.022   5.128  0.1788 -0.2435  0.4470
 2706TIP3    H1 8082  -0.039   1.019   5.053  1.2361 -0.4105 -0.4128
 2706TIP3    H2 8083   0.044   0.931   5.144  2.1556 -0.0323 -0.8704
 2707TIP3   OH2 8084   1.700   5.870   3.426 -0.1134 -0.4491  0.1592
 2707TIP3    H1 8085   1.751   5.831   3.497  0.0877  0.1254  0.3326
 2707TIP3    H2 8086   1.649   5.797   3.391 -1.2812 -0.4813  1.8044
 2708TIP3   OH2 8087   3.560   2.952   0.743  0.1845  0.5978 -0.5084
 2708TIP3    H1 8088   3.494   3.011   0.707 -0.3358 -0.6962 -1.8083
 2708TIP3    H2 8089   3.644   2.985   0.710  0.0891  1.6023  0.2294
 2709TIP3   OH2 8090   5.658   4.124   5.086 -0.1072 -0.2135  0.0333
 2709TIP3    H1 8091   5.695   4.056   5.029  0.8920 -0.5707  1.0595
 2709TIP3    H2 8092   5.712   4.202   5.068 -1.7014  0.5723 -1.6655
 2710TIP3   OH2 8093   1.804   4.068   2.751  0.4073 -0.5969 -0.0282
 2710TIP3    H1 8094   1.744   4.012   2.800  1.7861 -2.1467 -0.0358
 2710TIP3    H2 8095   1.747   4.115   2.689 -1.0693 -0.2114  1.5589
 2711TIP3   OH2 8096   0.216   5.066   1.696  0.7043 -0.4071 -0.3251
 2711TIP3    H1 8097   0.310   5.085   1.696  0.4968  0.6331 -0.7894
 2711TIP3    H2 8098   0.195   5.046   1.605  0.1305  1.1361 -0.5488
 2712TIP3   OH2 8099   4.610   4.404   3.408 -0.6120 -0.0046 -0.5848
 2712TIP3    H1 8100   4.531   4.420   3.357 -0.5309  1.3411 -0.3289
 2712TIP3    H2 8101   4.682   4.413   3.345 -0.5980 -0.0691 -0.5787
 2713TIP3   OH2 8102   3.046   4.340   5.618 -0.4592  0.3358 -0.4920
 2713TIP3    H1 8103   3.061   4.402   5.690  0.4718 -0.0500 -0.3442
 2713TIP3    H2 8104   3.116   4.276   5.626 -1.3004 -0.6506 -0.7528
 2714TIP3   OH2 8105   6.976   1.172   3.742  0.3620 -0.3923 -0.2359
 2714TIP3    H1 8106   6.965   1.226   3.664  1.5312  0.9623  0.4962
 2714TIP3    H2 8107   7.030   1.098   3.713  0.6438  0.0131 -0.7483
 2715TIP3   OH2 8108   0.674   1.960   2.939 -0.2832 -0.0873  0.2364
 2715TIP3    H1 8109   0.700   1.890   2.879 -0.7365 -0.3860  0.3851
 2715TIP3    H2 8110   0.586   1.986   2.909 -0.9667 -0.9721  1.4176
 2716TIP3   OH2 8111   6.594   1.801   5.612 -0.1163  0.1324  0.3128
 2716TIP3    H1 8112   6.537   1.877   5.613  0.0515  0.3103 -1.2868
 2716TIP3    H2 8113   6.566   1.749   5.687 -0.7561  1.3785  0.9608
 2717TIP3   OH2 8114   2.426   0.780   3.291 -0.1416 -0.0602  0.5043
 2717TIP3    H1 8115   2.359   0.820   3.346 -1.2685  0.2114 -1.0097
 2717TIP3    H2 8116   2.470   0.854   3.248  0.1500 -0.2995  0.3819
 2718TIP3   OH2 8117   2.189   4.602   5.409 -0.2528  0.0697 -0.0121
 2718TIP3    H1 8118   2.156   4.672   5.351 -0.8173  0.5622  0.8899
 2718TIP3    H2 8119   2.196   4.644   5.495 -1.7047 -1.2859  0.8029
 2719TIP3   OH2 8120   3.547   2.945   1.441  0.6112 -0.0599 -0.1159
 2719TIP3    H1 8121   3.460   2.973   1.469  0.8356 -1.0394  1.7159
 2719TIP3    H2 8122   3.579   3.017   1.387 -1.6962 -0.1126 -1.7056
 2720TIP3   OH2 8123   3.086   1.746   3.854  0.0561 -0.3996  0.0530
 2720TIP3    H1 8124   3.025   1.683   3.816 -0.9356  0.5810 -0.0163
 2720TIP3    H2 8125   3.171   1.722   3.818 -0.4021 -1.3305 -0.4260
 2721TIP3   OH2 8126   7.187   2.356   5.459  0.2088 -0.1620 -0.0156
 2721TIP3    H1 8127   7.101   2.332   5.425  0.3739 -0.3199 -0.3226
 2721TIP3    H2 8128   7.185   2.452   5.462  0.0252 -0.1649 -0.0267
 2722TIP3   OH2 8129   4.444   0.560   4.827  0.1368 -0.3598  0.6018
 2722TIP3    H1 8130   4.529   0.575   4.787 -0.2797  1.1528  0.2395
 2722TIP3    H2 8131   4.384   0.618   4.780 -1.0470 -1.1784  1.0425
 2723TIP3   OH2 8132   1.417   5.734   4.096 -0.2625 -0.4241  0.3630
 2723TIP3    H1 8133   1.462   5.651   4.112  0.9739  0.1174 -0.1608
 2723TIP3    H2 8134   1.476   5.782   4.039 -0.6560  1.0946  1.1959
 2724TIP3   OH2 8135   5.416   0.508   4.197 -0.2701  0.5411  0.5005
 2724TIP3    H1 8136   5.360   0.572   4.153 -0.7921  1.0691  1.8524
 2724TIP3    H2 8137   5.505   0.541   4.184 -0.4487  0.9000  0.1848
 2725TIP3   OH2 8138   4.087   0.089   4.531 -0.1977 -0.2514 -0.0413
 2725TIP3    H1 8139   4.051   0.001   4.543 -1.0971  0.0178 -0.6480
 2725TIP3    H2 8140   4.023   0.147   4.573 -0.0518  0.1794 -0.4105
 2726TIP3   OH2 8141   1.415   0.638   1.122 -0.4097 -0.2397 -0.3722
 2726TIP3    H1 8142   1.405   0.602   1.210 -1.5228  0.9900  0.0586
 2726TIP3    H2 8143   1.339   0.605   1.074 -0.4656  0.0670 -0.5000
 2727TIP3   OH2 8144   3.788   5.481   5.316 -0.3224 -0.3545 -0.3216
 2727TIP3    H1 8145   3.809   5.450   5.404 -0.7260  0.6676  0.1466
 2727TIP3    H2 8146   3.693   5.490   5.315 -0.2237  0.9119 -0.4000
 2728TIP3   OH2 8147   3.990   3.801   0.985 -0.0343 -0.0159  0.0007
 2728TIP3    H1 8148   3.990   3.846   0.900  0.6043 -1.0294 -0.5614
 2728TIP3    H2 8149   3.925   3.733   0.975 -2.2151  1.7398  1.4240
 2729TIP3   OH2 8150   1.115   3.017   0.387 -0.4683  0.0540  0.1740
 2729TIP3    H1 8151   1.104   3.070   0.466  3.3174 -0.6883  1.4204
 2729TIP3    H2 8152   1.153   3.078   0.323  0.7988 -0.3490  0.5181
 2730TIP3   OH2 8153   2.275   1.114   3.398 -0.4212 -0.7077  0.2239
 2730TIP3    H1 8154   2.259   1.180   3.465  0.8046 -2.1062  2.0133
 2730TIP3    H2 8155   2.190   1.073   3.383 -1.2691  1.4172 -1.1734
 2731TIP3   OH2 8156   1.162   1.250   3.616  0.3615 -0.5053 -0.2488
 2731TIP3    H1 8157   1.208   1.277   3.537  0.2298 -1.0315 -0.5057
 2731TIP3    H2 8158   1.109   1.327   3.640  0.9689 -0.0824 -0.2403
 2732TIP3   OH2 8159   5.383   0.970   3.649 -0.4889 -0.0014  0.0705
 2732TIP3    H1 8160   5.347   0.889   3.686  0.3237 -0.9674 -1.1552
 2732TIP3    H2 8161   5.448   0.998   3.713 -0.4040 -0.6171  0.2637
 2733TIP3   OH2 8162   5.082   6.486   4.153 -0.2394 -0.8761 -0.0277
 2733TIP3    H1 8163   4.997   6.530   4.164  0.1689 -0.2294  0.5851
 2733TIP3    H2 8164   5.059   6.399   4.122 -1.2559 -1.3596  1.9013
 2734TIP3   OH2 8165   0.953   3.519   4.197 -0.6709  0.4738 -0.1775
 2734TIP3    H1 8166   0.959   3.425   4.181 -0.3178  0.5329 -0.4296
 2734TIP3    H2 8167   1.025   3.556   4.144  0.3949  0.7054  1.3615
 2735TIP3   OH2 8168   0.827   4.727   4.069 -0.0246  0.7425 -0.5014
 2735TIP3    H1 8169   0.787   4.759   3.988 -1.8745 -1.0091 -0.3436
 2735TIP3    H2 8170   0.765   4.750   4.137 -0.3139 -1.0732 -0.0981
 2736TIP3   OH2 8171   1.864   5.321   0.085 -0.1350  0.0462  0.5458
 2736TIP3    H1 8172   1.812   5.247   0.055  0.0915  0.4431 -0.8646
 2736TIP3    H2 8173   1.953   5.287   0.090  0.2072  0.5529 -1.4425
 2737TIP3   OH2 8174   5.469   2.515   5.491  0.3119 -0.0260 -0.0735
 2737TIP3    H1 8175   5.475   2.607   5.466 -2.4056 -0.0717 -1.1667
 2737TIP3    H2 8176   5.376   2.493   5.484  0.8681 -2.8817  0.1158
 2738TIP3   OH2 8177   1.380   3.448   2.870 -0.4283  0.4499  0.1805
 2738TIP3    H1 8178   1.323   3.428   2.944  0.1788 -0.1391  0.4972
 2738TIP3    H2 8179   1.376   3.370   2.815 -2.7897  1.7445 -1.7156
 2739TIP3   OH2 8180   3.620   2.805   3.809  0.0283  0.7325 -0.4657
 2739TIP3    H1 8181   3.594   2.747   3.880  0.9270  1.2222  0.2898
 2739TIP3    H2 8182   3.539   2.850   3.783 -0.1470  1.3018  0.9595
 2740TIP3   OH2 8183   5.683   3.865   0.143 -0.1993 -0.8728  0.4697
 2740TIP3    H1 8184   5.643   3.778   0.148  0.4457 -1.2534 -0.5367
 2740TIP3    H2 8185   5.777   3.847   0.143 -0.0628 -0.2711 -0.8279
 2741TIP3   OH2 8186   5.877   4.092   3.931 -0.0088  0.4105  0.1446
 2741TIP3    H1 8187   5.968   4.091   3.959  0.9966 -1.4354 -2.7131
 2741TIP3    H2 8188   5.837   4.017   3.975  0.3868  0.0633 -0.0837
 2742TIP3   OH2 8189   5.258   5.899   1.697  0.4710 -0.2648  0.2104
 2742TIP3    H1 8190   5.173   5.910   1.655  1.1378 -2.3546 -1.9617
 2742TIP3    H2 8191   5.255   5.955   1.774 -2.2367  0.9856 -0.6856
 2743TIP3   OH2 8192   5.397   0.406   3.134 -0.2464 -0.3091 -0.6414
 2743TIP3    H1 8193   5.320   0.393   3.078 -0.1518 -0.8685 -0.6460
 2743TIP3    H2 8194   5.469   0.369   3.084 -0.0201 -0.0470 -0.5102
 2744TIP3   OH2 8195   0.341   5.177   3.887  0.2951 -0.4037  0.0788
 2744TIP3    H1 8196   0.435   5.190   3.892  0.3394  0.0948 -1.4151
 2744TIP3    H2 8197   0.320   5.191   3.794 -1.0925 -1.5516  0.1871
 2745TIP3   OH2 8198   5.243   3.422   1.183 -0.1542  0.2635 -0.1951
 2745TIP3    H1 8199   5.169   3.362   1.183 -1.0834  1.3371 -1.8099
 2745TIP3    H2 8200   5.228   3.478   1.259 -1.2747  0.7505 -0.7460
 2746TIP3   OH2 8201   2.800   2.825   0.092  0.1462  0.1520 -0.1046
 2746TIP3    H1 8202   2.748   2.878   0.152  1.2528  0.7978  0.3181
 2746TIP3    H2 8203   2.816   2.744   0.140 -0.8496 -0.2503 -0.4261
 2747TIP3   OH2 8204   2.198   3.028   4.140  0.5779  0.5637 -0.5024
 2747TIP3    H1 8205   2.287   3.003   4.163 -0.4415 -3.1042  0.0930
 2747TIP3    H2 8206   2.170   2.964   4.075 -2.2677  0.1708  0.9065
 2748TIP3   OH2 8207   6.139   1.680   4.748  0.5434  0.1016  0.2077
 2748TIP3    H1 8208   6.132   1.605   4.807 -0.0324 -0.1095 -0.1248
 2748TIP3    H2 8209   6.052   1.720   4.749  0.4341 -0.1000 -0.7527
 2749TIP3   OH2 8210   4.218   1.509   2.405  0.1380 -0.1275  0.3008
 2749TIP3    H1 8211   4.127   1.528   2.428  0.4882 -0.3025  1.9251
 2749TIP3    H2 8212   4.219   1.416   2.385  0.3822 -0.6803  2.6753
 2750TIP3   OH2 8213   7.179   1.661   3.134 -0.1448  0.2893  0.5559
 2750TIP3    H1 8214   7.203   1.730   3.072 -3.2038  0.5415 -0.5011
 2750TIP3    H2 8215   7.238   1.589   3.113  0.5635  1.2525 -0.9331
 2751TIP3   OH2 8216   2.215   2.287   5.294 -0.0162 -0.1389  0.4634
 2751TIP3    H1 8217   2.310   2.281   5.308 -0.0541  0.3155  0.9381
 2751TIP3    H2 8218   2.205   2.295   5.199  0.3260 -1.8513  0.2499
 2752TIP3   OH2 8219   5.427   5.242   0.917  0.0191  0.6855 -0.0021
 2752TIP3    H1 8220   5.423   5.207   1.006 -2.6176 -2.7651 -1.2832
 2752TIP3    H2 8221   5.338   5.272   0.899  0.2030  0.2430 -1.8367
 2753TIP3   OH2 8222   4.250   0.361   1.227  0.6858 -0.3779  0.3745
 2753TIP3    H1 8223   4.273   0.364   1.320  0.4727  1.0147  0.4124
 2753TIP3    H2 8224   4.316   0.415   1.184 -1.0885  1.8376  0.2091
 2754TIP3   OH2 8225   7.061   2.702   3.448  0.2996 -0.4457  0.2411
 2754TIP3    H1 8226   7.077   2.793   3.423  1.6531 -1.3162 -2.3927
 2754TIP3    H2 8227   6.966   2.698   3.463  0.2435  1.4118  0.6117
 2755TIP3   OH2 8228   3.670   0.923   0.365  0.2356 -0.1079 -0.0360
 2755TIP3    H1 8229   3.765   0.925   0.351  0.0886  1.7490 -1.0531
 2755TIP3    H2 8230   3.634   0.901   0.279 -0.2730 -1.0526  0.4018
 2756TIP3   OH2 8231   6.271   6.093   0.842  0.1171 -0.5217  0.0608
 2756TIP3    H1 8232   6.292   6.003   0.816  2.1386 -0.4349  1.1693
 2756TIP3    H2 8233   6.308   6.147   0.773  2.5194 -0.4386  1.2941
 2757TIP3   OH2 8234   5.681   4.035   0.384  0.1253  0.0527 -0.1853
 2757TIP3    H1 8235   5.683   3.980   0.305 -1.6337  3.4758 -2.9208
 2757TIP3    H2 8236   5.587   4.043   0.404  0.3703  1.4453  0.5094
 2758TIP3   OH2 8237   3.398   6.559   5.478  0.2789  0.0578 -0.2457
 2758TIP3    H1 8238   3.323   6.587   5.530  0.2758  0.3758 -0.4159
 2758TIP3    H2 8239   3.468   6.546   5.542  0.5314  1.3085 -0.2360
 2759TIP3   OH2 8240   0.411   0.161   5.416 -0.1601 -0.1913  0.2233
 2759TIP3    H1 8241   0.359   0.113   5.480 -1.0779  2.2065  1.4089
 2759TIP3    H2 8242   0.346   0.211   5.366  0.7922  0.4011 -0.4540
 2760TIP3   OH2 8243   7.139   0.458   4.169  0.1754  0.3532  0.1057
 2760TIP3    H1 8244   7.207   0.483   4.232 -0.6376  0.1647  1.0818
 2760TIP3    H2 8245   7.152   0.517   4.095  2.3148 -0.6340 -0.3721
 2761TIP3   OH2 8246   2.889   6.032   3.992 -0.3375 -0.6272 -0.4767
 2761TIP3    H1 8247   2.926   6.042   3.905  0.1553  0.0465 -0.1923
 2761TIP3    H2 8248   2.912   6.112   4.038 -1.5338 -0.5041 -0.0609
 2762TIP3   OH2 8249   6.946   4.450   3.794  0.1450 -0.0519  0.0835
 2762TIP3    H1 8250   7.022   4.507   3.806  0.2889 -0.3415  0.5184
 2762TIP3    H2 8251   6.907   4.442   3.881 -0.4833  0.2311 -0.1627
 2763TIP3   OH2 8252   0.683   5.955   3.729 -0.0237 -0.2484 -0.3039
 2763TIP3    H1 8253   0.739   6.022   3.689 -1.0648  0.3323 -0.8518
 2763TIP3    H2 8254   0.730   5.873   3.715  1.7216  0.4218  1.1590
 2764TIP3   OH2 8255   0.694   0.418   5.756  0.3520  0.1087 -0.2915
 2764TIP3    H1 8256   0.790   0.417   5.762  0.3899 -0.2985 -0.9165
 2764TIP3    H2 8257   0.675   0.390   5.666 -0.4066 -1.6497  0.3743
 2765TIP3   OH2 8258   0.281   5.148   1.050  0.0073 -0.6192  0.2853
 2765TIP3    H1 8259   0.218   5.169   0.982 -0.4833 -1.9110  0.3134
 2765TIP3    H2 8260   0.261   5.058   1.075  0.7748 -0.4824  1.4913
 2766TIP3   OH2 8261   6.859   1.830   3.598  0.2005  0.1020 -0.1902
 2766TIP3    H1 8262   6.765   1.812   3.597  0.1982  0.0860 -1.3514
 2766TIP3    H2 8263   6.866   1.924   3.613 -0.0996  0.4441 -1.9459
 2767TIP3   OH2 8264   4.235   1.731   3.494 -0.0720 -0.4958  0.2406
 2767TIP3    H1 8265   4.233   1.636   3.503  0.9564 -0.5205  0.3826
 2767TIP3    H2 8266   4.290   1.760   3.567  1.3527  0.0245 -0.9771
 2768TIP3   OH2 8267   4.688   1.328   0.291 -0.1801 -0.3165  0.1197
 2768TIP3    H1 8268   4.767   1.338   0.345 -0.4973  1.2048  0.3397
 2768TIP3    H2 8269   4.627   1.280   0.346  1.1660 -3.2459 -0.7069
 2769TIP3   OH2 8270   2.852   6.109   5.463 -1.0349  0.5308  0.0438
 2769TIP3    H1 8271   2.790   6.171   5.423 -0.8949  0.6911  0.0753
 2769TIP3    H2 8272   2.879   6.151   5.544 -0.8227  0.4959 -0.0094
 2770TIP3   OH2 8273   4.324   0.350   2.606  0.0584 -0.7648 -0.5290
 2770TIP3    H1 8274   4.326   0.273   2.662 -0.3044 -0.6510 -0.3589
 2770TIP3    H2 8275   4.269   0.412   2.652 -2.2172 -1.5069 -2.0916
 2771TIP3   OH2 8276   5.326   2.455   5.782  0.0136 -0.1938  0.1005
 2771TIP3    H1 8277   5.382   2.482   5.710  0.4365 -1.1783  0.0399
 2771TIP3    H2 8278   5.386   2.417   5.846 -0.4878 -0.4350  0.4370
 2772TIP3   OH2 8279   2.019   4.358   5.070  0.0567 -0.1695  0.1717
 2772TIP3    H1 8280   2.081   4.357   5.143 -1.4411  1.5543  1.5909
 2772TIP3    H2 8281   1.989   4.267   5.063  0.3706 -0.4218  1.6250
 2773TIP3   OH2 8282   1.439   3.635   4.113  0.0168  0.7484  0.4656
 2773TIP3    H1 8283   1.493   3.565   4.147  0.5326  0.5496 -0.7128
 2773TIP3    H2 8284   1.472   3.714   4.156  1.1377  0.6025 -0.0802
 2774TIP3   OH2 8285   0.540   1.060   0.209 -0.5500 -0.0676  0.3824
 2774TIP3    H1 8286   0.601   1.066   0.282  0.2253 -0.3220 -0.2269
 2774TIP3    H2 8287   0.454   1.048   0.250 -0.0840 -0.5687  1.2384
 2775TIP3   OH2 8288   6.817   5.869   0.943  0.0303  0.0294 -0.4326
 2775TIP3    H1 8289   6.792   5.777   0.942  1.1159 -0.2842 -1.7013
 2775TIP3    H2 8290   6.734   5.917   0.942 -0.5918 -0.8828  1.4879
 2776TIP3   OH2 8291   1.082   4.629   3.702 -0.8970 -0.0913  0.5713
 2776TIP3    H1 8292   1.112   4.563   3.765 -1.0369 -0.1630  0.5620
 2776TIP3    H2 8293   1.069   4.708   3.754  1.3302  0.5629  0.2682
 2777TIP3   OH2 8294   3.943   5.502   3.105  0.2255  0.8841 -0.1199
 2777TIP3    H1 8295   3.909   5.590   3.120  0.5744  1.2823 -1.4963
 2777TIP3    H2 8296   3.906   5.476   3.020 -0.5347 -0.6433  0.6390
 2778TIP3   OH2 8297   4.633   3.948   4.523 -0.2185 -0.5330 -0.2644
 2778TIP3    H1 8298   4.547   3.971   4.560 -0.4826 -0.0074 -1.1772
 2778TIP3    H2 8299   4.696   3.985   4.585 -0.6364  2.1412 -1.2981
 2779TIP3   OH2 8300   3.576   5.072   4.979  0.0592 -0.3405 -0.5804
 2779TIP3    H1 8301   3.659   5.024   4.968  0.7095  0.6078  0.0376
 2779TIP3    H2 8302   3.540   5.077   4.890  0.3190 -1.3594 -0.7561
 2780TIP3   OH2 8303   4.235   6.319   4.781 -0.0963  0.1834  0.4281
 2780TIP3    H1 8304   4.306   6.345   4.723 -0.5355 -0.5319 -0.4505
 2780TIP3    H2 8305   4.161   6.301   4.723 -0.5100 -0.6820  1.1814
 2781TIP3   OH2 8306   2.163   2.817   0.781  0.5603  0.2054  0.3537
 2781TIP3    H1 8307   2.083   2.868   0.765  0.0526 -1.2098 -2.0929
 2781TIP3    H2 8308   2.152   2.782   0.869 -2.0529 -0.7759 -0.2698
 2782TIP3   OH2 8309   2.043   4.777   0.860 -0.0403 -0.1602 -0.4749
 2782TIP3    H1 8310   2.097   4.759   0.783  0.2565 -3.7995  0.4055
 2782TIP3    H2 8311   1.981   4.843   0.831  1.8957  0.7321 -2.9177
 2783TIP3   OH2 8312   4.617   0.231   1.503  0.6927 -0.0562 -0.3051
 2783TIP3    H1 8313   4.703   0.272   1.491 -0.7704  3.1528 -0.8086
 2783TIP3    H2 8314   4.580   0.275   1.579 -0.9268 -0.5664 -0.7556
 2784TIP3   OH2 8315   6.270   0.512   2.150  0.0247 -0.4618 -0.3846
 2784TIP3    H1 8316   6.288   0.469   2.234 -0.8394  0.9297  0.5659
 2784TIP3    H2 8317   6.327   0.589   2.150 -2.0990  1.2140  0.3655
 2785TIP3   OH2 8318   5.552   3.626   0.122  0.1787 -0.3878  0.1122
 2785TIP3    H1 8319   5.470   3.629   0.172 -0.0970  0.5050 -0.3752
 2785TIP3    H2 8320   5.562   3.533   0.100 -0.6422 -0.5325  0.2862
 2786TIP3   OH2 8321   5.810   5.101   3.307 -0.1089 -0.2108  0.1412
 2786TIP3    H1 8322   5.806   5.183   3.259 -0.3303  0.1202  0.7162
 2786TIP3    H2 8323   5.835   5.036   3.241 -1.1217  0.1083 -0.5775
 2787TIP3   OH2 8324   1.410   2.628   1.826 -0.0297 -0.1832 -0.4929
 2787TIP3    H1 8325   1.338   2.575   1.861 -0.2360  0.2153 -0.3034
 2787TIP3    H2 8326   1.453   2.571   1.762  0.1465 -0.8069  0.1615
 2788TIP3   OH2 8327   1.859   3.379   0.166  0.4117  0.1625  0.4835
 2788TIP3    H1 8328   1.883   3.293   0.132  1.2045  0.8433 -0.7547
 2788TIP3    H2 8329   1.764   3.382   0.160  0.5247  0.5207 -2.4831
 2789TIP3   OH2 8330   1.160   3.439   5.390 -0.3406  0.2682  0.2531
 2789TIP3    H1 8331   1.240   3.402   5.351 -0.1876  1.9719 -1.2086
 2789TIP3    H2 8332   1.097   3.441   5.317 -2.2478 -2.2328  1.6600
 2790TIP3   OH2 8333   1.335   0.273   2.403 -0.2688 -0.0653 -0.4664
 2790TIP3    H1 8334   1.341   0.189   2.448  0.2101 -1.2624 -2.6248
 2790TIP3    H2 8335   1.385   0.333   2.458  1.4772 -1.7660 -0.1020
 2791TIP3   OH2 8336   2.811   3.499   1.775  0.0809  0.2802  0.1616
 2791TIP3    H1 8337   2.734   3.445   1.756  0.6571 -0.5515  0.1218
 2791TIP3    H2 8338   2.803   3.573   1.715 -2.3594  1.9660  2.3293
 2792TIP3   OH2 8339   5.337   1.047   0.954  0.4373  0.4868  0.0966
 2792TIP3    H1 8340   5.269   1.006   1.008 -0.0883  0.7813 -0.3299
 2792TIP3    H2 8341   5.372   0.975   0.901  0.6263  0.2888  0.4836
 2793TIP3   OH2 8342   2.233   1.914   0.222 -0.1852  0.0551  0.2892
 2793TIP3    H1 8343   2.297   1.976   0.187 -0.5367 -0.8079 -2.0805
 2793TIP3    H2 8344   2.285   1.850   0.271  0.5687  0.3670 -0.0909
 2794TIP3   OH2 8345   3.446   0.781   0.482  0.7443 -0.2464 -0.0058
 2794TIP3    H1 8346   3.534   0.816   0.464  1.1333 -1.6302 -0.9472
 2794TIP3    H2 8347   3.406   0.771   0.395  0.8592 -2.5950  0.1671
 2795TIP3   OH2 8348   4.322   5.715   0.057 -0.4019  0.2136 -0.4962
 2795TIP3    H1 8349   4.309   5.624   0.085 -2.4210  0.7973  0.6751
 2795TIP3    H2 8350   4.279   5.720  -0.029 -0.1416  0.0274 -0.6381
 2796TIP3   OH2 8351   2.095   0.940   1.555 -0.3590  0.4421 -0.4500
 2796TIP3    H1 8352   2.066   1.032   1.562 -2.3409 -0.0952 -0.8876
 2796TIP3    H2 8353   2.089   0.906   1.644  1.3140  0.9517 -0.1058
 2797TIP3   OH2 8354   0.737   6.725   4.882  0.1417  0.0060 -0.3940
 2797TIP3    H1 8355   0.833   6.729   4.882  0.1246  0.6322 -1.0690
 2797TIP3    H2 8356   0.716   6.641   4.924  0.9741  0.0006  0.0313
 2798TIP3   OH2 8357   1.548   1.605   1.799  0.2881 -0.4397  0.0061
 2798TIP3    H1 8358   1.602   1.542   1.751 -0.6131 -0.2118 -1.3476
 2798TIP3    H2 8359   1.532   1.563   1.883  1.1087 -1.2689 -0.2318
 2799TIP3   OH2 8360   1.943   6.106   0.072 -0.5442 -0.2815 -0.3160
 2799TIP3    H1 8361   2.001   6.148   0.135 -2.4579  1.3212  0.4904
 2799TIP3    H2 8362   2.001   6.071   0.005  1.4503 -0.5121  1.4222
 2800TIP3   OH2 8363   5.311   2.063   4.924  0.1755 -0.2952 -0.1368
 2800TIP3    H1 8364   5.396   2.047   4.884 -0.5905 -0.6839 -1.7024
 2800TIP3    H2 8365   5.290   2.153   4.901  0.0005 -0.3175 -0.0642
 2801TIP3   OH2 8366   0.514   0.507   4.440  0.0949 -0.2285 -0.0648
 2801TIP3    H1 8367   0.443   0.444   4.451 -0.1339 -0.5464 -2.5967
 2801TIP3    H2 8368   0.478   0.589   4.474 -2.3506  0.0729 -2.9114
 2802TIP3   OH2 8369   4.718   6.715   3.114  0.1215  0.0480 -0.1270
 2802TIP3    H1 8370   4.789   6.746   3.169 -0.3079  0.2817  0.3029
 2802TIP3    H2 8371   4.710   6.622   3.136  0.0364  0.1107  0.1109
 2803TIP3   OH2 8372   0.471   5.557   4.282 -0.1451 -0.0597 -0.0442
 2803TIP3    H1 8373   0.432   5.629   4.330 -2.0098  0.7186 -2.5344
 2803TIP3    H2 8374   0.523   5.598   4.213 -1.6766 -1.0035 -1.8497
 2804TIP3   OH2 8375   1.384   6.570   0.164 -0.2627 -0.6491  0.4347
 2804TIP3    H1 8376   1.440   6.527   0.230 -1.0050 -0.9112  0.9086
 2804TIP3    H2 8377   1.303   6.589   0.211  0.1911  1.6882  0.3525
 2805TIP3   OH2 8378   5.289   4.242   2.017 -0.4392 -0.5315 -0.3857
 2805TIP3    H1 8379   5.271   4.244   1.923 -2.7668 -2.6589 -0.0986
 2805TIP3    H2 8380   5.336   4.160   2.030 -1.9701 -1.3173  0.4973
 2806TIP3   OH2 8381   0.079   1.236   0.280  0.0945  0.1551  0.1766
 2806TIP3    H1 8382   0.010   1.175   0.254 -0.2448  1.1311 -1.3471
 2806TIP3    H2 8383   0.075   1.306   0.215  2.5016  0.2704  0.0404
 2807TIP3   OH2 8384   2.506   2.743   1.450  0.0579  0.1282  0.1319
 2807TIP3    H1 8385   2.600   2.743   1.433 -0.2323 -1.9786 -2.1547
 2807TIP3    H2 8386   2.471   2.806   1.387 -0.2239 -0.9885 -0.8778
 2808TIP3   OH2 8387   5.043   4.629   0.052  0.1995 -0.0876 -0.4046
 2808TIP3    H1 8388   5.015   4.592   0.136  1.3050  1.4304  0.6748
 2808TIP3    H2 8389   5.109   4.567   0.019  1.2899  0.3420  0.8886
 2809TIP3   OH2 8390   2.347   0.236   2.061 -0.2676  0.0194 -0.2242
 2809TIP3    H1 8391   2.416   0.269   2.118 -1.4023  4.0468 -0.8606
 2809TIP3    H2 8392   2.371   0.266   1.973 -1.9278 -0.0048 -0.7293
 2810TIP3   OH2 8393   3.583   1.018   3.651 -0.5619  0.1702 -0.1710
 2810TIP3    H1 8394   3.530   1.062   3.719  0.6476  0.4075  0.6484
 2810TIP3    H2 8395   3.648   1.084   3.626 -1.7020  0.5350 -2.4830
 2811TIP3   OH2 8396   3.176   0.215   4.364 -0.2594 -0.1797  0.0516
 2811TIP3    H1 8397   3.115   0.266   4.416 -0.2842  2.6810 -2.4776
 2811TIP3    H2 8398   3.121   0.172   4.298  0.1628 -0.0420 -0.3954
 2812TIP3   OH2 8399   1.628   1.834   3.292  0.1428  0.1541  0.4502
 2812TIP3    H1 8400   1.539   1.867   3.310  0.5559  1.1192  0.7905
 2812TIP3    H2 8401   1.616   1.741   3.277 -0.8702  0.1821  0.9941
 2813TIP3   OH2 8402   3.107   2.399  -0.018 -0.3565  0.8536 -0.3464
 2813TIP3    H1 8403   3.018   2.414   0.014 -0.1757  0.7339  0.2207
 2813TIP3    H2 8404   3.163   2.416   0.058  0.1338  1.3186 -0.8021
 2814TIP3   OH2 8405   2.852   5.761   3.427  0.3270  0.3239  0.2307
 2814TIP3    H1 8406   2.938   5.748   3.466  0.3391 -0.1085  0.0649
 2814TIP3    H2 8407   2.848   5.699   3.354 -0.5431 -0.4674  0.9168
 2815TIP3   OH2 8408   0.968   6.360   3.026 -0.2859  0.5662 -0.1113
 2815TIP3    H1 8409   0.913   6.403   3.092  0.3331  3.8499 -1.5524
 2815TIP3    H2 8410   1.057   6.364   3.062 -0.3393 -0.4923  0.1737
 2816TIP3   OH2 8411   6.408   3.427   3.330  0.2682  0.1127  0.5861
 2816TIP3    H1 8412   6.444   3.509   3.364  1.8949 -1.0640  1.8282
 2816TIP3    H2 8413   6.331   3.411   3.385  0.5654  0.2780  1.0598
 2817TIP3   OH2 8414   6.744   4.546   0.005  0.1553 -0.1970 -0.8762
 2817TIP3    H1 8415   6.678   4.596  -0.043 -1.7488 -0.9650  0.7641
 2817TIP3    H2 8416   6.788   4.610   0.060  0.8696  0.3340 -2.0266
 2818TIP3   OH2 8417   2.539   0.207   0.900 -0.6942 -0.1155 -0.0605
 2818TIP3    H1 8418   2.623   0.180   0.864 -0.9660 -0.0597 -0.7406
 2818TIP3    H2 8419   2.475   0.152   0.855 -0.9881 -0.5370  0.8378
 2819TIP3   OH2 8420   2.128   4.962   5.783 -0.2122 -0.0407 -0.9055
 2819TIP3    H1 8421   2.035   4.951   5.801  0.3845 -0.3508  2.9343
 2819TIP3    H2 8422   2.137   5.054   5.756 -1.4554  0.5927  0.6878
 2820TIP3   OH2 8423   6.673   2.493   3.945 -0.1249  0.2381 -0.3114
 2820TIP3    H1 8424   6.660   2.401   3.967 -3.2334  0.9140  1.2740
 2820TIP3    H2 8425   6.744   2.522   4.003  0.5385 -1.0038 -0.4782
 2821TIP3   OH2 8426   6.157   5.134   0.897  0.2988 -0.1952  0.0424
 2821TIP3    H1 8427   6.114   5.095   0.973  0.2786 -1.3681 -0.5368
 2821TIP3    H2 8428   6.151   5.066   0.829  3.0868 -0.4517 -0.0632
 2822TIP3   OH2 8429   6.003   0.411   2.239  0.0644 -0.0516 -0.7477
 2822TIP3    H1 8430   6.077   0.462   2.206 -0.0615  0.3323 -0.4398
 2822TIP3    H2 8431   5.959   0.380   2.160  1.0107 -0.9645 -0.9483
 2823TIP3   OH2 8432   1.740   4.795   2.787  0.1291 -0.2552 -0.3756
 2823TIP3    H1 8433   1.832   4.804   2.761  0.4476 -0.0936  0.7750
 2823TIP3    H2 8434   1.720   4.876   2.833 -0.9107  0.1517 -1.4939
 2824TIP3   OH2 8435   6.354   4.135   1.895 -0.3375 -0.2281  0.2045
 2824TIP3    H1 8436   6.288   4.185   1.942 -1.0574 -0.8756 -0.0867
 2824TIP3    H2 8437   6.304   4.078   1.836  0.5321  0.5542 -1.3589
 2825TIP3   OH2 8438   2.092   3.463   5.165 -0.3723  0.6103 -0.2191
 2825TIP3    H1 8439   2.101   3.448   5.071 -0.1620  0.4048 -0.1689
 2825TIP3    H2 8440   2.001   3.442   5.184 -0.3343  0.3374 -0.3255
 2826TIP3   OH2 8441   3.554   1.660   0.666  0.6408  0.1017  0.1919
 2826TIP3    H1 8442   3.505   1.579   0.677 -2.6845  1.8237 -0.4388
 2826TIP3    H2 8443   3.594   1.653   0.579 -1.0056 -0.2566 -0.5728
 2827TIP3   OH2 8444   5.234   6.804   3.372  0.5803 -0.3845 -0.8126
 2827TIP3    H1 8445   5.230   6.717   3.333 -1.1410  0.0659 -1.7170
 2827TIP3    H2 8446   5.261   6.862   3.300  0.4687  0.0143 -0.5385
 2828TIP3   OH2 8447   1.724   0.397   2.919 -0.1335  0.3908 -0.6947
 2828TIP3    H1 8448   1.807   0.357   2.894 -0.3608  0.2413 -1.2335
 2828TIP3    H2 8449   1.720   0.387   3.014  0.3409  0.1565 -0.6975
 2829TIP3   OH2 8450   4.713   2.566   2.081  0.0433 -0.5844 -0.6923
 2829TIP3    H1 8451   4.653   2.540   2.011  0.2603  1.5898 -1.7791
 2829TIP3    H2 8452   4.655   2.584   2.155 -0.5905  0.4343 -1.3988
 2830TIP3   OH2 8453   1.996   0.079   2.791  0.4885 -0.2930 -0.1850
 2830TIP3    H1 8454   1.994   0.072   2.696  0.1517 -0.4585 -0.1698
 2830TIP3    H2 8455   2.087   0.100   2.812  1.0081 -2.1443 -0.4102
 2831TIP3   OH2 8456   4.313   2.465   4.536 -0.6342 -0.3284 -0.3409
 2831TIP3    H1 8457   4.292   2.487   4.627  0.9954  0.1726 -0.0618
 2831TIP3    H2 8458   4.249   2.514   4.484 -0.2921  1.0455  0.4737
 2832TIP3   OH2 8459   4.321   0.501   5.851  0.1386  0.0131  0.3288
 2832TIP3    H1 8460   4.340   0.545   5.769 -1.2569 -0.0850 -0.0791
 2832TIP3    H2 8461   4.236   0.535   5.878  1.3348  1.3658  2.6813
 2833TIP3   OH2 8462   6.643   2.444   4.469 -0.2753 -0.8403 -0.0557
 2833TIP3    H1 8463   6.682   2.527   4.443 -0.4564 -0.7082  0.0912
 2833TIP3    H2 8464   6.664   2.384   4.397  0.1695 -0.7664  0.0071
 2834TIP3   OH2 8465   0.873   1.386   1.558 -0.2186 -0.2425 -0.1235
 2834TIP3    H1 8466   0.957   1.425   1.584 -0.4152  0.0017  0.1488
 2834TIP3    H2 8467   0.808   1.454   1.576 -0.2549  0.3820 -2.3435
 2835TIP3   OH2 8468   1.707   3.599   0.413 -0.2577  0.1145 -0.1535
 2835TIP3    H1 8469   1.793   3.634   0.390  0.1260 -0.2841  0.6530
 2835TIP3    H2 8470   1.724   3.510   0.443 -1.1134 -0.4305 -1.2171
 2836TIP3   OH2 8471   0.298   3.179   2.524  0.2412  0.4765  0.0911
 2836TIP3    H1 8472   0.307   3.091   2.489 -1.7544  0.4995 -0.5842
 2836TIP3    H2 8473   0.353   3.233   2.468 -0.1803 -0.0259 -0.8281
 2837TIP3   OH2 8474   5.524   1.826   3.510  0.1154  0.3144 -0.6066
 2837TIP3    H1 8475   5.461   1.815   3.438  1.1146 -0.9392 -1.3396
 2837TIP3    H2 8476   5.606   1.851   3.466  0.5460  0.2936  0.1691
 2838TIP3   OH2 8477   6.626   5.610   2.238 -0.8800 -0.0310 -0.6233
 2838TIP3    H1 8478   6.659   5.640   2.153  1.4717 -2.3347 -0.6456
 2838TIP3    H2 8479   6.629   5.514   2.233  0.0318 -0.2650  2.2618
 2839TIP3   OH2 8480   1.630   4.713   4.609 -0.4462 -0.1550 -0.3193
 2839TIP3    H1 8481   1.651   4.621   4.628  3.1287  0.3848 -0.9817
 2839TIP3    H2 8482   1.581   4.709   4.527 -0.1963 -1.4863 -0.4413
 2840TIP3   OH2 8483   0.925   3.960   5.483  0.1271 -0.2374  0.1064
 2840TIP3    H1 8484   1.012   3.984   5.513  0.7484  0.4088 -2.0865
 2840TIP3    H2 8485   0.938   3.881   5.430 -0.4819  0.3454 -0.9409
 2841TIP3   OH2 8486   1.166   0.588   1.829  0.3576 -0.2373  0.4649
 2841TIP3    H1 8487   1.107   0.567   1.902  0.5966 -0.5057  0.5858
 2841TIP3    H2 8488   1.157   0.514   1.769  0.0972  0.0248  0.1796
 2842TIP3   OH2 8489   1.860   5.548   5.519 -0.1431 -0.1603 -0.6845
 2842TIP3    H1 8490   1.870   5.621   5.458  1.7581 -0.3841 -0.7011
 2842TIP3    H2 8491   1.948   5.537   5.557 -1.3406  0.4482  2.6254
 2843TIP3   OH2 8492   2.329   0.661   5.008  0.2757  0.0308 -0.6086
 2843TIP3    H1 8493   2.412   0.660   5.054  0.7564 -0.3505 -1.4553
 2843TIP3    H2 8494   2.304   0.753   5.004  0.3960  0.0967  0.1032
 2844TIP3   OH2 8495   2.203   4.702   3.087 -0.0486  0.4999  0.7004
 2844TIP3    H1 8496   2.111   4.708   3.064  0.0218  1.3421  0.6257
 2844TIP3    H2 8497   2.235   4.627   3.037 -0.5014  0.7029  0.0972
 2845TIP3   OH2 8498   4.391   5.963   2.099  0.2466 -0.1517  0.2890
 2845TIP3    H1 8499   4.433   6.038   2.057  0.9353 -0.0967  1.0450
 2845TIP3    H2 8500   4.463   5.915   2.140 -0.4241  0.0961  1.8581
 2846TIP3   OH2 8501   4.926   1.345   3.257 -0.1048  0.3530  0.1578
 2846TIP3    H1 8502   4.968   1.429   3.243  2.6464 -0.9341  0.0400
 2846TIP3    H2 8503   4.945   1.295   3.178 -1.4732 -0.4958  0.3298
 2847TIP3   OH2 8504   4.900   1.036   2.048  0.5028  0.0501 -0.0819
 2847TIP3    H1 8505   4.862   1.017   2.133 -0.5501  0.8966 -0.3515
 2847TIP3    H2 8506   4.861   1.119   2.021  0.3127 -0.5106 -1.6776
 2848TIP3   OH2 8507   6.866   2.747   5.059 -0.2758 -0.0031  0.1235
 2848TIP3    H1 8508   6.821   2.726   5.141 -3.3759  0.0930 -1.3928
 2848TIP3    H2 8509   6.835   2.835   5.037  2.7206  1.1661  0.1710
 2849TIP3   OH2 8510   3.742   1.572   4.306  0.8588  0.3146  1.0300
 2849TIP3    H1 8511   3.708   1.662   4.312 -0.6362 -0.2765  1.8910
 2849TIP3    H2 8512   3.758   1.559   4.212 -3.4761 -0.0578  0.1338
 2850TIP3   OH2 8513   2.659   5.328   0.274 -0.0394 -0.5267  0.0258
 2850TIP3    H1 8514   2.570   5.323   0.241  0.4533 -0.8332 -1.3252
 2850TIP3    H2 8515   2.681   5.421   0.267 -0.2474 -0.4497  0.3665
 2851TIP3   OH2 8516   4.155   4.379   5.588  0.3472 -0.0671 -0.1116
 2851TIP3    H1 8517   4.088   4.312   5.600 -1.2551  1.3638 -0.6040
 2851TIP3    H2 8518   4.188   4.364   5.500 -0.2783  0.0069 -0.3670
 2852TIP3   OH2 8519   6.039   0.487   3.262  0.2002  0.3553  0.1512
 2852TIP3    H1 8520   6.004   0.402   3.236  0.0285  0.1984  0.8827
 2852TIP3    H2 8521   6.108   0.505   3.198 -0.4338  0.1324 -0.6158
 2853TIP3   OH2 8522   1.101   2.298   5.374  0.3334  0.0480 -0.1802
 2853TIP3    H1 8523   1.037   2.253   5.430 -0.0690 -0.3662 -0.9528
 2853TIP3    H2 8524   1.131   2.372   5.427 -0.6486  0.1439  0.2720
 2854TIP3   OH2 8525   4.940   1.567   0.906  0.2386  0.6050  0.5038
 2854TIP3    H1 8526   4.962   1.609   0.823 -2.3229  4.2993  1.4181
 2854TIP3    H2 8527   4.888   1.491   0.882 -1.1466  2.0379 -1.3683
 2855TIP3   OH2 8528   1.944   2.290   0.563 -0.2508  0.0934  0.2127
 2855TIP3    H1 8529   1.893   2.313   0.641 -0.8891  0.2478 -0.2419
 2855TIP3    H2 8530   2.035   2.300   0.590 -0.3811  4.2011 -0.1990
 2856TIP3   OH2 8531   0.838   6.410   3.276  0.0978  0.4642  0.6076
 2856TIP3    H1 8532   0.767   6.348   3.294  1.9712 -1.5944  1.3251
 2856TIP3    H2 8533   0.793   6.494   3.261 -2.5191 -0.9616 -0.1141
 2857TIP3   OH2 8534   4.884   4.268   0.906 -0.3503  0.3441 -0.0746
 2857TIP3    H1 8535   4.914   4.179   0.923 -0.4705  0.1847 -0.6602
 2857TIP3    H2 8536   4.798   4.257   0.865  0.4604  0.6223 -1.9671
 2858TIP3   OH2 8537   4.894   1.798   1.659 -0.5136 -0.0529 -0.1173
 2858TIP3    H1 8538   4.903   1.817   1.753  0.2911 -0.6721 -0.0587
 2858TIP3    H2 8539   4.932   1.874   1.616 -0.0553 -0.1669  0.0766
 2859TIP3   OH2 8540   6.208   3.589   3.569 -0.3112 -0.0830 -0.3741
 2859TIP3    H1 8541   6.162   3.598   3.652  0.7571  1.5766  0.0693
 2859TIP3    H2 8542   6.300   3.591   3.592  0.0493  2.1384 -1.6991
 2860TIP3   OH2 8543   5.307   4.295   5.683 -0.9454  0.6505 -0.0220
 2860TIP3    H1 8544   5.288   4.260   5.771 -0.0655 -0.0324 -0.0930
 2860TIP3    H2 8545   5.294   4.221   5.625  0.7893  0.4625 -0.1951
 2861TIP3   OH2 8546   0.242   3.238   2.211 -0.1865  0.2242 -0.3699
 2861TIP3    H1 8547   0.230   3.331   2.194  0.5082  0.1166 -1.6045
 2861TIP3    H2 8548   0.317   3.213   2.157 -0.1143 -0.9680  0.2379
 2862TIP3   OH2 8549   2.584   1.259   2.705 -0.0910 -0.2027 -0.1576
 2862TIP3    H1 8550   2.592   1.270   2.800 -0.4087  1.9273 -0.3130
 2862TIP3    H2 8551   2.500   1.215   2.693 -0.5826  0.5096  0.5387
 2863TIP3   OH2 8552   2.926   6.425   5.093  0.3639 -0.0018  0.0708
 2863TIP3    H1 8553   2.932   6.515   5.124  1.9733 -0.5657  1.5248
 2863TIP3    H2 8554   2.990   6.419   5.022  0.8542 -0.2172  0.5317
 2864TIP3   OH2 8555   4.596   3.015   5.203 -0.8697 -0.3136  0.3298
 2864TIP3    H1 8556   4.558   3.060   5.279 -0.5185 -2.6910  2.0347
 2864TIP3    H2 8557   4.527   3.018   5.137 -0.6981  3.0093  0.1187
 2865TIP3   OH2 8558   5.210   2.029   2.618  0.0404  0.2032  0.0015
 2865TIP3    H1 8559   5.253   2.033   2.533 -0.6028  0.4282 -0.3138
 2865TIP3    H2 8560   5.253   1.956   2.663 -0.8244 -1.0724 -1.1762
 2866TIP3   OH2 8561   5.342   1.877   5.676  0.6163 -0.5271  0.2706
 2866TIP3    H1 8562   5.334   1.895   5.582 -0.8346  0.0988  0.4805
 2866TIP3    H2 8563   5.332   1.782   5.683 -0.8002 -0.4311 -0.1053
 2867TIP3   OH2 8564   1.614   4.621   0.193 -0.2370  0.3740 -0.2111
 2867TIP3    H1 8565   1.645   4.666   0.272 -2.9661 -0.5431  1.5302
 2867TIP3    H2 8566   1.579   4.691   0.138  0.8271  0.9331 -0.1950
 2868TIP3   OH2 8567   4.910   1.148   3.043 -0.2207 -0.0579 -0.3950
 2868TIP3    H1 8568   4.906   1.055   3.023  0.4635 -0.1827 -0.0178
 2868TIP3    H2 8569   5.003   1.170   3.035 -0.4943  0.8068 -1.3805
 2869TIP3   OH2 8570   5.449   3.356   2.220  0.4002  0.4594  0.0650
 2869TIP3    H1 8571   5.391   3.351   2.296  1.0941 -0.4984  0.5530
 2869TIP3    H2 8572   5.536   3.374   2.257  0.8736 -0.7524 -0.4232
 2870TIP3   OH2 8573   5.434   2.399   1.172 -0.1407  0.0158 -0.0068
 2870TIP3    H1 8574   5.415   2.314   1.133 -0.9665 -0.6040  1.6365
 2870TIP3    H2 8575   5.529   2.407   1.169 -0.1345 -0.4055 -1.2763
 2871TIP3   OH2 8576   1.725   1.699   5.596  0.1052 -0.2710 -0.2366
 2871TIP3    H1 8577   1.718   1.669   5.687 -1.6882  3.7336  1.1315
 2871TIP3    H2 8578   1.819   1.713   5.584  0.2542  0.6915  1.6202
 2872TIP3   OH2 8579   1.137   1.744   4.645  0.3937 -0.5801  0.2097
 2872TIP3    H1 8580   1.074   1.797   4.597 -1.5500 -0.9732  2.1711
 2872TIP3    H2 8581   1.201   1.807   4.677  0.9012 -0.1321 -1.5580
 2873TIP3   OH2 8582   4.051   5.558   1.619 -0.1317 -0.7143  0.5102
 2873TIP3    H1 8583   4.075   5.621   1.687 -0.8528 -0.1491  0.2544
 2873TIP3    H2 8584   4.099   5.586   1.542  0.4962 -1.2112  0.7104
 2874TIP3   OH2 8585   0.282   5.480   3.653 -0.0461  0.5823  0.3490
 2874TIP3    H1 8586   0.361   5.521   3.616  0.8501 -1.2084  0.1193
 2874TIP3    H2 8587   0.277   5.513   3.742  0.5382  1.3067  0.1253
 2875TIP3   OH2 8588   4.696   6.616   5.354 -0.3865 -0.1597  0.0716
 2875TIP3    H1 8589   4.673   6.557   5.282 -0.2862 -1.0062  0.7210
 2875TIP3    H2 8590   4.788   6.636   5.341 -0.3320 -0.4274  0.0369
 2876TIP3   OH2 8591   1.572   1.053   5.744 -0.7834 -0.0940 -0.2361
 2876TIP3    H1 8592   1.661   1.041   5.710 -1.1315 -0.7659 -0.9540
 2876TIP3    H2 8593   1.521   0.986   5.698 -1.0779 -1.8889  2.4630
 2877TIP3   OH2 8594   5.986   1.427   2.782  0.2108  0.9877  0.2194
 2877TIP3    H1 8595   6.000   1.509   2.735 -1.7280  1.9155  1.1447
 2877TIP3    H2 8596   5.891   1.422   2.794  0.3333 -1.0799  0.7700
 2878TIP3   OH2 8597   0.639   4.159   0.922 -0.3016  0.2559 -0.0357
 2878TIP3    H1 8598   0.564   4.134   0.868  1.1867  0.2869 -2.2760
 2878TIP3    H2 8599   0.705   4.093   0.904  1.0522  1.5604 -0.0874
 2879TIP3   OH2 8600   6.851   4.207   1.370 -0.1909  0.0330  0.6228
 2879TIP3    H1 8601   6.914   4.143   1.337  0.4138  0.9343 -0.0342
 2879TIP3    H2 8602   6.788   4.217   1.299  1.5760  2.5956 -0.7425
 2880TIP3   OH2 8603   5.579   6.068   3.489  0.2253 -0.3889  0.7524
 2880TIP3    H1 8604   5.609   6.148   3.533  0.5536 -0.8071  1.3108
 2880TIP3    H2 8605   5.488   6.057   3.517 -0.6888  1.1391 -1.3118
 2881TIP3   OH2 8606   1.915   1.341   4.617 -0.0351  0.0669  0.1124
 2881TIP3    H1 8607   1.944   1.337   4.526 -0.1266 -0.7008  0.1067
 2881TIP3    H2 8608   1.926   1.432   4.642 -1.7487  0.7213 -1.2568
 2882TIP3   OH2 8609   3.182   0.689   1.242  0.0632 -0.0868  0.4829
 2882TIP3    H1 8610   3.210   0.780   1.251  1.1575 -0.4604  1.1520
 2882TIP3    H2 8611   3.214   0.661   1.156  3.0347 -0.8645  1.6946
 2883TIP3   OH2 8612   1.196   0.400   0.219  0.2721 -0.1276 -0.0438
 2883TIP3    H1 8613   1.211   0.408   0.313 -0.3658  0.1284  0.0424
 2883TIP3    H2 8614   1.151   0.316   0.209 -1.1758  0.5990  0.0850
 2884TIP3   OH2 8615   0.687   6.380   3.703 -0.1731 -0.1479  0.2818
 2884TIP3    H1 8616   0.740   6.441   3.652 -0.6758  0.8062  0.8505
 2884TIP3    H2 8617   0.600   6.421   3.706 -0.4387 -0.7349  0.9564
 2885TIP3   OH2 8618   5.930   2.963   3.933  0.5899  0.2925  0.1303
 2885TIP3    H1 8619   5.997   3.030   3.949  0.1705  0.2667  2.3284
 2885TIP3    H2 8620   5.863   3.008   3.881  1.7019  0.6607 -1.0486
 2886TIP3   OH2 8621   6.781   5.947   0.567  0.0139 -0.1381 -0.1826
 2886TIP3    H1 8622   6.692   5.973   0.543  0.8398  0.1524 -3.2584
 2886TIP3    H2 8623   6.832   5.956   0.487  2.6214 -1.3472  1.2040
 2887TIP3   OH2 8624   2.837   6.263   4.887 -0.0589  0.7293  0.0227
 2887TIP3    H1 8625   2.897   6.310   4.829  3.4648 -0.6642  2.2460
 2887TIP3    H2 8626   2.841   6.311   4.969 -0.4161 -0.5654  0.8192
 2888TIP3   OH2 8627   2.583   0.578   3.151  0.6098 -0.6242 -0.2432
 2888TIP3    H1 8628   2.530   0.639   3.203  2.0152 -0.9308  1.6449
 2888TIP3    H2 8629   2.673   0.605   3.166  1.3929 -3.7777  1.6345
 2889TIP3   OH2 8630   5.366   4.964   1.425  0.0435  0.0324  0.0434
 2889TIP3    H1 8631   5.391   4.968   1.517 -0.1835 -2.5029  0.2872
 2889TIP3    H2 8632   5.429   4.905   1.385  0.7361  1.8439 -1.7032
 2890TIP3   OH2 8633   4.052   0.305   1.788 -0.0694 -0.0534  0.4672
 2890TIP3    H1 8634   4.088   0.393   1.777 -0.2889 -0.0350 -0.1067
 2890TIP3    H2 8635   3.972   0.318   1.840 -0.3841  0.1496 -0.0624
 2891TIP3   OH2 8636   6.330   0.479   5.494  0.0547 -0.2132 -0.1263
 2891TIP3    H1 8637   6.270   0.537   5.541  0.6068  0.1020  0.1958
 2891TIP3    H2 8638   6.310   0.392   5.529 -1.5641 -0.4139 -1.4224
 2892TIP3   OH2 8639   5.402   5.853   4.511  0.0807  0.2106  0.1541
 2892TIP3    H1 8640   5.401   5.776   4.454  1.5040 -0.0251  0.3880
 2892TIP3    H2 8641   5.404   5.928   4.452 -1.2192  0.0732 -0.0770
 2893TIP3   OH2 8642   6.189   3.936   5.510 -0.3885  0.3395 -0.2720
 2893TIP3    H1 8643   6.109   3.987   5.518 -0.4691 -0.0602  2.2144
 2893TIP3    H2 8644   6.260   4.000   5.522 -0.3786  0.4100 -0.6922
 2894TIP3   OH2 8645   1.716   2.189   0.453  0.0806 -0.3979 -1.0405
 2894TIP3    H1 8646   1.722   2.155   0.363  1.2431 -3.0049 -0.0766
 2894TIP3    H2 8647   1.803   2.223   0.472 -0.5725  1.5787 -1.3440
 2895TIP3   OH2 8648   5.958   1.738   4.429  0.4180 -0.1309 -0.2148
 2895TIP3    H1 8649   6.011   1.816   4.447  2.1004 -1.1616 -0.4947
 2895TIP3    H2 8650   5.950   1.736   4.334 -0.2897  0.0928 -0.1709
 2896TIP3   OH2 8651   6.220   2.253   5.326 -0.0876  0.1650 -0.4580
 2896TIP3    H1 8652   6.274   2.260   5.247  0.9364 -0.5401  0.1510
 2896TIP3    H2 8653   6.139   2.212   5.295  0.3995 -0.3472 -1.1063
 2897TIP3   OH2 8654   4.007   6.319   5.731  0.0963  1.0810 -0.0277
 2897TIP3    H1 8655   3.964   6.258   5.671  3.2136 -0.7653 -0.6135
 2897TIP3    H2 8656   4.055   6.379   5.675  1.5505  0.5029  0.5406
 2898TIP3   OH2 8657   3.323   4.202   3.961  0.1292  0.2502  0.7782
 2898TIP3    H1 8658   3.306   4.153   4.041 -1.3894 -0.4951  0.0498
 2898TIP3    H2 8659   3.402   4.162   3.924 -0.1907 -0.6124  1.0075
 2899TIP3   OH2 8660   5.721   5.044   3.625 -0.3353 -0.0967  0.1192
 2899TIP3    H1 8661   5.668   5.010   3.554  1.3960 -3.5177  0.2517
 2899TIP3    H2 8662   5.775   5.112   3.585 -0.4491 -0.9331 -1.5338
 2900TIP3   OH2 8663   0.834   4.567   1.409 -0.1380 -0.0173 -0.0190
 2900TIP3    H1 8664   0.846   4.563   1.314 -0.0495 -0.7347  0.0194
 2900TIP3    H2 8665   0.917   4.534   1.444  0.1887  1.1132  0.3254
 2901TIP3   OH2 8666   3.777   5.043   1.988  0.1839 -0.4886 -0.5679
 2901TIP3    H1 8667   3.864   5.007   1.970  0.3191 -0.3708 -0.1368
 2901TIP3    H2 8668   3.718   4.967   1.982  0.4582 -0.7772  0.2519
 2902TIP3   OH2 8669   6.788   1.617   1.567  0.3590  0.1285  0.1013
 2902TIP3    H1 8670   6.726   1.675   1.612  0.4197 -0.6651  1.2734
 2902TIP3    H2 8671   6.733   1.562   1.510 -0.1474 -0.9866  1.5822
 2903TIP3   OH2 8672   1.901   1.787   4.439  0.0025  0.1238 -0.2918
 2903TIP3    H1 8673   1.849   1.849   4.389  2.0628  1.7569 -0.5295
 2903TIP3    H2 8674   1.944   1.732   4.373  2.1602  1.8214 -0.4251
 2904TIP3   OH2 8675   2.775   4.295   1.980 -0.0063 -0.4598  0.0054
 2904TIP3    H1 8676   2.723   4.285   2.060 -0.0526  1.0406  0.1923
 2904TIP3    H2 8677   2.847   4.353   2.006  1.2313 -1.7187 -0.5037
 2905TIP3   OH2 8678   0.870   5.222   3.734 -0.2543  0.2146 -0.4491
 2905TIP3    H1 8679   0.822   5.199   3.813  0.2599  0.3384 -0.0983
 2905TIP3    H2 8680   0.948   5.165   3.736  0.8180  1.6445  0.1995
 2906TIP3   OH2 8681   5.214   0.531   0.635  0.4915 -1.0428  0.1642
 2906TIP3    H1 8682   5.182   0.495   0.552  0.6388 -1.1499  0.1552
 2906TIP3    H2 8683   5.165   0.483   0.702 -0.9651  0.2727  0.1145
 2907TIP3   OH2 8684   3.229   3.757   4.796 -0.6696  0.0911 -0.1916
 2907TIP3    H1 8685   3.134   3.746   4.789 -0.7056 -0.3298  0.7908
 2907TIP3    H2 8686   3.260   3.675   4.834 -0.0900  0.7398  0.7908
 2908TIP3   OH2 8687   3.762   4.656   3.970  0.5335  0.2860  0.0007
 2908TIP3    H1 8688   3.815   4.688   4.042 -1.0527  0.3620  1.2007
 2908TIP3    H2 8689   3.675   4.641   4.009 -0.1830 -0.3547 -1.7292
 2909TIP3   OH2 8690   3.760   2.888   2.723 -0.0952  0.3457  0.6951
 2909TIP3    H1 8691   3.736   2.970   2.766  0.2172  1.2344 -0.7842
 2909TIP3    H2 8692   3.731   2.899   2.632 -0.9794 -1.5898  0.6944
 2910TIP3   OH2 8693   4.425  -0.001   3.887  0.2271 -0.0388  0.6555
 2910TIP3    H1 8694   4.351  -0.056   3.913  0.5889 -0.3183  1.1114
 2910TIP3    H2 8695   4.393   0.089   3.896  0.0434 -0.1533  1.1540
 2911TIP3   OH2 8696   0.688   3.847   4.718 -0.4419 -0.0966 -0.0120
 2911TIP3    H1 8697   0.769   3.796   4.731 -1.0836 -1.2806 -0.5015
 2911TIP3    H2 8698   0.664   3.875   4.806 -1.0373 -2.2172  0.5689
 2912TIP3   OH2 8699   0.324   0.178   2.432  0.1179 -0.1058  0.2199
 2912TIP3    H1 8700   0.320   0.243   2.363  0.3725 -0.7442 -0.4124
 2912TIP3    H2 8701   0.407   0.194   2.476 -0.2196  0.5432  0.6238
 2913TIP3   OH2 8702   4.906   6.126   1.294  0.6525  0.4642 -0.0634
 2913TIP3    H1 8703   4.993   6.152   1.264  0.5618 -0.5503 -1.2843
 2913TIP3    H2 8704   4.849   6.197   1.266  0.4830 -0.6657 -2.9366
 2914TIP3   OH2 8705   6.149   2.852   4.215  0.3094  0.4995  0.3370
 2914TIP3    H1 8706   6.185   2.792   4.280  0.2001  1.8317  1.6897
 2914TIP3    H2 8707   6.138   2.798   4.137 -0.8518 -1.5442  1.7884
 2915TIP3   OH2 8708   1.791   3.860   1.534  0.1304  0.0628 -0.1706
 2915TIP3    H1 8709   1.718   3.900   1.486  0.2532 -0.4244 -0.7731
 2915TIP3    H2 8710   1.820   3.929   1.594 -0.8090  0.2685  0.0613
 2916TIP3   OH2 8711   3.216   2.709   5.476 -0.0429  0.3770  0.3126
 2916TIP3    H1 8712   3.184   2.704   5.566  0.4557  0.0493  0.4751
 2916TIP3    H2 8713   3.248   2.798   5.466 -0.6120  0.5845  0.2772
 2917TIP3   OH2 8714   1.131   2.953   4.829 -0.1521  0.0362  0.3423
 2917TIP3    H1 8715   1.197   2.943   4.761  0.3004  0.3876  0.7173
 2917TIP3    H2 8716   1.151   2.885   4.893  0.4570  0.7439  0.9283
 2918TIP3   OH2 8717   3.530   3.926   5.706  0.0178  0.6710 -0.3284
 2918TIP3    H1 8718   3.556   3.908   5.616 -0.7758  1.4845 -0.7356
 2918TIP3    H2 8719   3.586   3.999   5.733 -0.3468  1.0110 -0.4756
 2919TIP3   OH2 8720   1.058   6.504   1.145 -0.1524 -0.1054  0.7845
 2919TIP3    H1 8721   1.015   6.517   1.229  0.7011 -0.7746  1.3451
 2919TIP3    H2 8722   1.052   6.410   1.129 -1.6678  0.1922 -0.6779
 2920TIP3   OH2 8723   0.490   2.369   2.315  0.4769  0.0867  0.4543
 2920TIP3    H1 8724   0.519   2.331   2.232  0.0517  0.6478  0.0435
 2920TIP3    H2 8725   0.506   2.463   2.305  0.5269  0.1459  1.0500
 2921TIP3   OH2 8726   3.149   4.160   3.660 -0.1665  0.1226  0.4186
 2921TIP3    H1 8727   3.239   4.142   3.632 -0.1153  0.4763  0.3495
 2921TIP3    H2 8728   3.158   4.208   3.742 -0.3339 -1.8578  1.6435
 2922TIP3   OH2 8729   6.593   6.102   3.671 -0.4051  0.3554 -0.2624
 2922TIP3    H1 8730   6.507   6.138   3.652 -0.4015  0.5044 -0.0008
 2922TIP3    H2 8731   6.577   6.010   3.693 -0.4388  0.2505 -0.7135
 2923TIP3   OH2 8732   6.418   5.241   0.893  0.0167  0.2640 -0.1063
 2923TIP3    H1 8733   6.489   5.186   0.858  0.9559 -0.3782  2.5828
 2923TIP3    H2 8734   6.339   5.188   0.882  0.2841  0.0469 -1.0957
 2924TIP3   OH2 8735   6.408   3.095   2.254 -0.0622 -0.8224 -0.5157
 2924TIP3    H1 8736   6.351   3.039   2.307  1.7644 -3.0761 -0.7798
 2924TIP3    H2 8737   6.471   3.035   2.214  2.8102  1.5463  0.0926
 2925TIP3   OH2 8738   4.703   5.207   4.057  0.0164  0.3606 -0.3629
 2925TIP3    H1 8739   4.684   5.284   4.004  0.7946  0.6598 -0.2100
 2925TIP3    H2 8740   4.792   5.181   4.032 -0.3275 -0.6389 -0.5981
 2926TIP3   OH2 8741   1.760   6.539   4.427  0.1054 -0.3770 -0.2210
 2926TIP3    H1 8742   1.704   6.519   4.502  1.1861  0.2331  0.7738
 2926TIP3    H2 8743   1.731   6.625   4.398  0.2830 -0.2160  0.0726
 2927TIP3   OH2 8744   6.970   0.293   5.156  0.3628 -0.0413 -0.2589
 2927TIP3    H1 8745   6.978   0.387   5.137  0.1061 -0.0512 -0.4179
 2927TIP3    H2 8746   6.912   0.260   5.088 -1.3170  0.0900  1.0537
 2928TIP3   OH2 8747   4.838   2.831   2.117 -0.3414  0.2332  0.5336
 2928TIP3    H1 8748   4.781   2.798   2.047  1.4685  0.0661 -0.9483
 2928TIP3    H2 8749   4.818   2.776   2.193 -2.2578  0.3121  0.1408
 2929TIP3   OH2 8750   3.490   3.071   2.679 -0.4789 -1.1160 -0.5668
 2929TIP3    H1 8751   3.516   3.154   2.720 -2.5142 -1.2958  1.2793
 2929TIP3    H2 8752   3.559   3.053   2.615  2.7121 -0.4831  2.3830
 2930TIP3   OH2 8753   3.245   4.574   1.648  0.4893 -0.0501  0.1834
 2930TIP3    H1 8754   3.191   4.621   1.711 -0.1795 -1.2126  0.5183
 2930TIP3    H2 8755   3.184   4.517   1.602  1.0387  0.4705 -1.2485
 2931TIP3   OH2 8756   5.973   4.008   4.393  0.2245 -0.4145  0.0246
 2931TIP3    H1 8757   5.928   4.059   4.326  0.1572  0.1075  0.4699
 2931TIP3    H2 8758   6.055   3.982   4.352  0.4812  0.4680 -0.0334
 2932TIP3   OH2 8759   5.815   3.198   0.942 -0.6243  0.0071  0.0222
 2932TIP3    H1 8760   5.753   3.199   1.014 -0.5794 -0.5250  0.0716
 2932TIP3    H2 8761   5.767   3.155   0.870 -1.2687  2.0053 -0.8204
 2933TIP3   OH2 8762   2.002   1.613   4.243 -0.2389 -0.0112 -0.4289
 2933TIP3    H1 8763   1.959   1.679   4.189  1.2710  0.8287 -0.6900
 2933TIP3    H2 8764   2.093   1.612   4.211  0.9739  1.1346  2.5560
 2934TIP3   OH2 8765   4.499   6.293   5.571 -0.1713 -0.3010  0.3126
 2934TIP3    H1 8766   4.486   6.305   5.477  1.1482  1.7831  0.3160
 2934TIP3    H2 8767   4.432   6.349   5.611 -2.1475 -2.8036  0.7437
 2935TIP3   OH2 8768   2.780   2.041   5.357  0.3602 -0.0594  0.1597
 2935TIP3    H1 8769   2.778   1.946   5.357  1.1254 -0.0917 -0.6589
 2935TIP3    H2 8770   2.788   2.065   5.265  0.6198  0.7779  0.3908
 2936TIP3   OH2 8771   0.865   1.981   2.092 -0.0748  0.3861  0.6287
 2936TIP3    H1 8772   0.904   2.066   2.113 -1.8514  0.9797  1.8341
 2936TIP3    H2 8773   0.851   1.984   1.998  1.8664  0.5205  0.3195
 2937TIP3   OH2 8774   2.929   0.017   5.262  0.0344  0.5057  0.2121
 2937TIP3    H1 8775   3.018   0.028   5.230 -0.0812  0.2078 -0.2280
 2937TIP3    H2 8776   2.874   0.034   5.186 -0.3657  2.3071  0.8572
 2938TIP3   OH2 8777   0.573   5.274   1.670 -0.3368 -0.2862 -0.2084
 2938TIP3    H1 8778   0.539   5.187   1.648 -1.1170  0.1577 -0.8375
 2938TIP3    H2 8779   0.504   5.334   1.641 -0.2111  0.4982  1.0485
 2939TIP3   OH2 8780   1.475   0.251   2.105 -0.1667  0.2651  0.2551
 2939TIP3    H1 8781   1.440   0.338   2.121 -1.1608 -0.4695  2.4540
 2939TIP3    H2 8782   1.420   0.193   2.158  1.4205 -1.5162  0.0640
 2940TIP3   OH2 8783   4.088   2.605   0.065 -1.0748 -0.0397 -0.0632
 2940TIP3    H1 8784   4.133   2.606  -0.020  2.1712  0.0785  1.4959
 2940TIP3    H2 8785   4.102   2.516   0.098 -0.7196  0.4252  1.0780
 2941TIP3   OH2 8786   0.421   3.929   4.421  0.2553 -0.3140 -0.2717
 2941TIP3    H1 8787   0.427   4.019   4.451 -0.7719 -1.3010  3.3491
 2941TIP3    H2 8788   0.510   3.907   4.393  1.5305  0.6913  2.6486
 2942TIP3   OH2 8789   6.072   2.145   0.905  0.2540  0.0777  0.0840
 2942TIP3    H1 8790   6.047   2.202   0.977  2.9181 -0.3567  1.4902
 2942TIP3    H2 8791   6.131   2.081   0.944 -0.9481 -2.3940 -1.8513
 2943TIP3   OH2 8792   3.124   2.688   4.879 -0.0220  0.4052 -0.2535
 2943TIP3    H1 8793   3.086   2.744   4.947  0.1316 -0.5268  0.6362
 2943TIP3    H2 8794   3.081   2.603   4.891  0.1409  0.1748 -1.2103
 2944TIP3   OH2 8795   1.618   3.476   5.726 -0.2708 -0.2444 -0.3172
 2944TIP3    H1 8796   1.688   3.540   5.716  0.0058 -0.6351 -0.9784
 2944TIP3    H2 8797   1.560   3.493   5.651 -1.1295  0.3689  0.4667
 2945TIP3   OH2 8798   6.853   4.862   1.503 -0.1816  1.0648 -0.4214
 2945TIP3    H1 8799   6.858   4.923   1.576  1.6627  1.4865 -0.8576
 2945TIP3    H2 8800   6.944   4.848   1.476 -0.7567  0.3721 -2.1810
 2946TIP3   OH2 8801   1.335   1.795   4.385  0.1104  0.2638  0.1492
 2946TIP3    H1 8802   1.346   1.726   4.450 -0.0794  0.0193 -0.0803
 2946TIP3    H2 8803   1.340   1.750   4.301 -1.7361  0.2679  0.0050
 2947TIP3   OH2 8804   5.315   5.791   2.089  0.0465 -0.0477  0.7946
 2947TIP3    H1 8805   5.297   5.702   2.059 -0.3151 -0.0794  1.1109
 2947TIP3    H2 8806   5.270   5.799   2.172 -0.5214  0.6677  0.4314
 2948TIP3   OH2 8807   6.227   4.996   2.701 -0.0733 -0.1529  0.3387
 2948TIP3    H1 8808   6.261   5.069   2.649  0.1774 -0.0220  0.6814
 2948TIP3    H2 8809   6.295   4.929   2.694  0.9361  0.6144  2.1481
 2949TIP3   OH2 8810   3.311   2.863   4.568  0.2252  0.8239 -0.3755
 2949TIP3    H1 8811   3.390   2.877   4.516 -0.9003 -1.8994 -3.1612
 2949TIP3    H2 8812   3.308   2.768   4.581 -1.7905  1.0259  1.0938
 2950TIP3   OH2 8813   6.699   0.835   5.605  0.2856  0.2323  0.7169
 2950TIP3    H1 8814   6.637   0.889   5.654 -1.9945  0.1038 -1.7877
 2950TIP3    H2 8815   6.646   0.763   5.570  1.3637  0.9904 -2.9417
 2951TIP3   OH2 8816   2.889   4.878   2.170  0.4994 -0.0985  0.6619
 2951TIP3    H1 8817   2.822   4.920   2.224  1.1921  0.2714  1.2550
 2951TIP3    H2 8818   2.936   4.951   2.130 -0.2365 -0.3674 -0.7602
 2952TIP3   OH2 8819   5.318   5.912   0.575 -0.1775 -0.3273 -0.2905
 2952TIP3    H1 8820   5.318   5.825   0.535  2.4028 -0.6257  0.2082
 2952TIP3    H2 8821   5.354   5.970   0.508  1.1325 -0.2518  0.4474
 2953TIP3   OH2 8822   3.603   6.142   2.334 -0.3056  0.4389 -0.1583
 2953TIP3    H1 8823   3.559   6.104   2.259 -1.5140  1.6133 -0.0724
 2953TIP3    H2 8824   3.686   6.176   2.299 -1.1261  1.5333 -1.1068
 2954TIP3   OH2 8825   6.475   2.648   5.477 -0.1613  0.1351  0.4874
 2954TIP3    H1 8826   6.409   2.626   5.411  0.8519  2.2566 -1.3887
 2954TIP3    H2 8827   6.554   2.601   5.448  0.2407  0.9310  0.2585
 2955TIP3   OH2 8828   5.981   3.264   2.606  0.4262 -0.4341  0.2347
 2955TIP3    H1 8829   6.075   3.266   2.620  0.4555 -0.2357  0.0021
 2955TIP3    H2 8830   5.950   3.194   2.665  0.5896  0.1452  1.0222
 2956TIP3   OH2 8831   5.370   2.845   3.213 -0.2146  0.0250 -0.3992
 2956TIP3    H1 8832   5.308   2.894   3.267  0.9304  2.2009 -0.9845
 2956TIP3    H2 8833   5.422   2.795   3.277  0.3110  1.6035  0.4454
 2957TIP3   OH2 8834   6.300   6.577   3.805 -0.5538  0.0826  0.0890
 2957TIP3    H1 8835   6.246   6.570   3.884 -1.4470  2.5446 -0.2073
 2957TIP3    H2 8836   6.379   6.528   3.826 -0.6196  0.9140  2.6470
 2958TIP3   OH2 8837   0.463   0.763   1.517  0.1517 -0.0121 -0.3786
 2958TIP3    H1 8838   0.552   0.740   1.490 -0.6563 -3.7636 -0.3231
 2958TIP3    H2 8839   0.418   0.785   1.435  0.9128  1.2249 -0.4856
 2959TIP3   OH2 8840   2.343   4.213   3.415  0.0723 -0.1406  0.2249
 2959TIP3    H1 8841   2.301   4.171   3.340  1.0526 -1.3810  0.3283
 2959TIP3    H2 8842   2.273   4.221   3.480 -0.4075 -0.5499 -0.2292
 2960TIP3   OH2 8843   2.822   4.746   1.922  0.2744 -0.3559 -0.1049
 2960TIP3    H1 8844   2.854   4.765   2.010  0.4596  1.4652 -0.5244
 2960TIP3    H2 8845   2.733   4.712   1.935  0.7248 -1.2135  0.8250
 2961TIP3   OH2 8846   4.388   0.543   3.318  0.6360 -0.0704  0.1575
 2961TIP3    H1 8847   4.361   0.559   3.409  0.8053  1.5632 -0.0521
 2961TIP3    H2 8848   4.448   0.469   3.324 -0.5297 -0.9996  1.1740
 2962TIP3   OH2 8849   3.210   0.579   1.499 -0.3127 -0.2583  0.0183
 2962TIP3    H1 8850   3.190   0.662   1.541  1.0185 -0.2819  0.7580
 2962TIP3    H2 8851   3.221   0.601   1.406  2.3621  0.8853  0.5156
 2963TIP3   OH2 8852   3.030   3.881   1.916  0.1238 -0.0615 -0.2919
 2963TIP3    H1 8853   3.039   3.828   1.837 -1.5225 -0.2180 -0.4160
 2963TIP3    H2 8854   2.976   3.955   1.888 -2.0703 -1.0634  1.0599
 2964TIP3   OH2 8855   5.847   0.268   5.071  0.3707 -0.2798 -0.1996
 2964TIP3    H1 8856   5.927   0.306   5.107  0.3794 -1.2127  0.8083
 2964TIP3    H2 8857   5.783   0.340   5.074 -0.6593 -0.9917  4.9362
 2965TIP3   OH2 8858   5.984   1.402   0.946  0.2485  0.1161  0.2675
 2965TIP3    H1 8859   6.033   1.399   1.028  1.5747  0.1435 -0.4998
 2965TIP3    H2 8860   5.894   1.420   0.972  0.5299 -0.5634  1.7608
 2966TIP3   OH2 8861   1.239   3.485   0.006  0.0937 -0.0675  0.8261
 2966TIP3    H1 8862   1.307   3.505   0.071  0.4752 -1.9367  1.0610
 2966TIP3    H2 8863   1.219   3.392   0.020 -1.1228 -0.0512 -0.5432
 2967TIP3   OH2 8864   2.253   2.572   0.653  0.0062  0.1037 -0.2610
 2967TIP3    H1 8865   2.226   2.647   0.706  0.1318 -0.4114  0.5502
 2967TIP3    H2 8866   2.200   2.578   0.573  0.5390  1.4625 -0.5360
 2968TIP3   OH2 8867   4.080   0.925   2.580  0.3883 -0.1545 -0.1506
 2968TIP3    H1 8868   4.081   0.946   2.674  1.3996 -0.7065 -0.0288
 2968TIP3    H2 8869   3.991   0.948   2.552 -0.4543 -1.4122  1.2753
 2969TIP3   OH2 8870   0.116   4.028   2.051  0.1101 -0.0478 -0.1233
 2969TIP3    H1 8871   0.160   3.981   1.981 -0.4542 -1.6811  0.5745
 2969TIP3    H2 8872   0.069   4.099   2.006 -0.0503 -0.9086 -1.3636
 2970TIP3   OH2 8873   1.786   2.026   3.967  0.3026 -0.1595 -0.2137
 2970TIP3    H1 8874   1.735   1.994   3.893  0.7053  0.8762 -0.9684
 2970TIP3    H2 8875   1.742   2.107   3.994  0.4226 -0.2887  0.3971
 2971TIP3   OH2 8876   5.742   3.184   4.459  0.6303 -0.6099  0.2570
 2971TIP3    H1 8877   5.750   3.107   4.404 -0.9841 -0.3125 -0.4430
 2971TIP3    H2 8878   5.732   3.150   4.548  2.1009 -1.1105  0.2675
 2972TIP3   OH2 8879   3.517   2.098   3.580 -0.6810 -0.8436  0.4374
 2972TIP3    H1 8880   3.441   2.068   3.531 -0.6953 -0.1924  0.0502
 2972TIP3    H2 8881   3.494   2.186   3.610 -0.2106 -0.7711  0.6031
 2973TIP3   OH2 8882   2.932   2.985   4.079 -0.3791  0.3639 -0.3815
 2973TIP3    H1 8883   2.924   2.904   4.130  0.3644  0.3176 -0.3144
 2973TIP3    H2 8884   3.019   3.019   4.103 -0.2842  0.6753 -1.1411
 2974TIP3   OH2 8885   4.356   3.906   3.453 -0.0842 -0.0139  0.1048
 2974TIP3    H1 8886   4.400   3.854   3.387 -0.3656 -0.4675  0.2689
 2974TIP3    H2 8887   4.334   3.988   3.408 -2.0270 -1.0540 -0.9853
 2975TIP3   OH2 8888   6.950   2.534   4.626 -0.5142 -0.4511  0.5301
 2975TIP3    H1 8889   6.882   2.474   4.657 -1.1695 -0.0410 -0.0870
 2975TIP3    H2 8890   6.941   2.534   4.531 -0.7356  0.8443  0.5338
 2976TIP3   OH2 8891   2.774   0.703   1.019  0.0228  0.0237  0.4912
 2976TIP3    H1 8892   2.775   0.607   1.021  1.1259  0.0323  0.9883
 2976TIP3    H2 8893   2.804   0.729   1.106  1.1967  0.7979 -0.1213
 2977TIP3   OH2 8894   2.882   3.266   4.638 -0.2080  0.0444  0.0666
 2977TIP3    H1 8895   2.842   3.218   4.566  0.9581 -2.0501  0.7500
 2977TIP3    H2 8896   2.926   3.200   4.691  0.5045  1.7328  1.7225
 2978TIP3   OH2 8897   2.646   1.549   1.196  0.1761  0.2830  0.0748
 2978TIP3    H1 8898   2.597   1.620   1.237 -0.5972  0.0110 -0.3623
 2978TIP3    H2 8899   2.733   1.587   1.179  0.5112  0.4217  1.8779
 2979TIP3   OH2 8900   0.617   2.815   1.113 -0.1327 -0.4770 -0.0033
 2979TIP3    H1 8901   0.567   2.865   1.177  0.9549  0.0538  0.4667
 2979TIP3    H2 8902   0.655   2.742   1.163 -0.3816 -0.8365 -0.3344
 2980TIP3   OH2 8903   1.157   1.498   5.589 -0.0308 -0.3098  0.6835
 2980TIP3    H1 8904   1.120   1.414   5.561  0.8510  0.3166 -2.8657
 2980TIP3    H2 8905   1.244   1.500   5.549 -0.3973  2.6297 -0.1896
 2981TIP3   OH2 8906   3.798   4.966   5.126 -0.2272  0.3274 -0.2660
 2981TIP3    H1 8907   3.738   4.907   5.170 -0.3663  0.1888 -0.6382
 2981TIP3    H2 8908   3.817   4.923   5.042  2.3820 -0.9216  0.8354
 2982TIP3   OH2 8909   4.530   1.773   3.346  0.0568  0.0548 -0.3650
 2982TIP3    H1 8910   4.586   1.850   3.355  0.2030  0.1079 -1.5761
 2982TIP3    H2 8911   4.442   1.806   3.364  0.4224 -0.1817  2.2832
 2983TIP3   OH2 8912   5.966   2.334   3.791  0.4326  0.4017  0.1923
 2983TIP3    H1 8913   5.968   2.246   3.829 -1.9793  0.6994  1.1565
 2983TIP3    H2 8914   6.056   2.365   3.799  1.3458 -1.9465 -0.1524
 2984TIP3   OH2 8915   5.815   2.489   3.982 -0.1678  0.2693 -0.0298
 2984TIP3    H1 8916   5.849   2.478   4.071  1.3688 -0.2951 -0.6447
 2984TIP3    H2 8917   5.863   2.424   3.930 -0.6748  0.9173 -1.3580
 2985TIP3   OH2 8918   2.831   1.570   1.537  0.0777  0.4989  0.2221
 2985TIP3    H1 8919   2.745   1.586   1.497  1.1417 -0.2116 -2.5804
 2985TIP3    H2 8920   2.847   1.477   1.522  2.2599  1.0598 -1.4072
 2986TIP3   OH2 8921   4.825   4.762   2.494  0.5710 -0.1760  0.7298
 2986TIP3    H1 8922   4.835   4.667   2.491  1.9243 -0.0915  1.6452
 2986TIP3    H2 8923   4.742   4.775   2.541  0.6867 -0.9042  1.1650
 2987TIP3   OH2 8924   3.510   6.778   0.765  0.5560 -0.3223  0.2341
 2987TIP3    H1 8925   3.547   6.801   0.680 -0.3761  0.1240 -0.0664
 2987TIP3    H2 8926   3.415   6.775   0.749  0.2010  1.5621  1.6516
 2988TIP3   OH2 8927   6.871   2.903   0.666  0.6605 -0.4826 -0.2719
 2988TIP3    H1 8928   6.805   2.844   0.703  1.2211 -0.6921  0.4295
 2988TIP3    H2 8929   6.923   2.931   0.741 -0.4995  2.1400 -0.3298
 2989TIP3   OH2 8930   3.407   1.896   4.999  0.7834  0.2433 -0.1517
 2989TIP3    H1 8931   3.485   1.932   4.957 -0.0793  1.3763 -0.8355
 2989TIP3    H2 8932   3.373   1.968   5.051 -0.5870  0.2219 -0.9831
 2990TIP3   OH2 8933   5.938   2.692   2.703 -0.1574  0.2328  0.8756
 2990TIP3    H1 8934   5.901   2.739   2.627 -1.8738 -0.1473  1.4312
 2990TIP3    H2 8935   5.980   2.615   2.665  1.1291  1.2739  0.1150
 2991TIP3   OH2 8936   6.709   0.397   1.912  0.5968  0.0993  0.1357
 2991TIP3    H1 8937   6.680   0.313   1.878  2.0880  0.5377 -2.5622
 2991TIP3    H2 8938   6.634   0.455   1.901  0.1033 -0.4889  0.3992
 2992TIP3   OH2 8939   6.293   5.076   0.087 -0.1848 -0.3871 -0.1985
 2992TIP3    H1 8940   6.283   5.105  -0.004 -1.3605 -1.7975 -0.5674
 2992TIP3    H2 8941   6.388   5.081   0.103 -0.1982  2.4927 -0.5388
 2993TIP3   OH2 8942   5.488   4.035   0.968 -0.0960  0.1848 -0.2082
 2993TIP3    H1 8943   5.465   4.127   0.956  1.1007  0.6932  1.0674
 2993TIP3    H2 8944   5.538   4.012   0.890  0.7124  1.0115  0.0570
 2994TIP3   OH2 8945   0.112   1.466   0.148 -0.0751 -0.1798  0.3191
 2994TIP3    H1 8946   0.067   1.498   0.070  0.5477 -0.5559 -0.2057
 2994TIP3    H2 8947   0.173   1.537   0.171  1.4145 -1.0097 -0.9346
 2995TIP3   OH2 8948   4.073   5.190   3.610 -0.3691 -1.0649  0.5331
 2995TIP3    H1 8949   4.043   5.264   3.557 -0.4092 -1.4612 -0.0040
 2995TIP3    H2 8950   4.094   5.229   3.696 -0.0736 -0.3759  0.1614
 2996TIP3   OH2 8951   1.423   5.064   4.655  0.3578 -0.5461 -0.2240
 2996TIP3    H1 8952   1.438   5.057   4.749 -0.7673  1.2302  0.1347
 2996TIP3    H2 8953   1.499   5.113   4.622 -0.4663  1.0753  0.2089
 2997TIP3   OH2 8954   5.182   0.992   1.950 -0.0524  0.2993 -0.1656
 2997TIP3    H1 8955   5.182   0.899   1.926 -0.1664  0.6674 -1.6634
 2997TIP3    H2 8956   5.090   1.010   1.972 -0.5578  0.6364 -2.3624
 2998TIP3   OH2 8957   3.591   2.263   1.996 -0.0187 -0.1610 -0.2783
 2998TIP3    H1 8958   3.672   2.310   2.014  0.4316 -0.6476 -0.9460
 2998TIP3    H2 8959   3.577   2.275   1.902 -0.2556 -0.7902 -0.3311
 2999TIP3   OH2 8960   5.420   4.235   2.621 -0.4762 -0.5037  0.5436
 2999TIP3    H1 8961   5.356   4.179   2.577 -0.3514 -0.4907  0.3443
 2999TIP3    H2 8962   5.502   4.185   2.616  0.0024  0.3626 -1.0274
 3000TIP3   OH2 8963   1.557   5.812   0.075  0.1697  0.2267 -0.5573
 3000TIP3    H1 8964   1.564   5.805   0.170 -0.9821 -2.1881 -0.5903
 3000TIP3    H2 8965   1.632   5.866   0.050  1.8251 -0.9702  1.5074
 3001TIP3   OH2 8966   4.437   6.001   1.587 -0.8835 -0.2475 -0.2509
 3001TIP3    H1 8967   4.389   5.995   1.504 -0.9788 -1.3413 -0.1314
 3001TIP3    H2 8968   4.505   6.066   1.570  1.0535 -2.5760 -2.2290
 3002TIP3   OH2 8969   1.594   5.614   5.442 -0.9089  0.3920  0.6464
 3002TIP3    H1 8970   1.550   5.653   5.517 -0.3681 -1.1273  1.8015
 3002TIP3    H2 8971   1.686   5.605   5.469 -0.4919  0.7107 -0.5732
 3003TIP3   OH2 8972   1.800   0.695   1.812  0.0935 -0.0621 -0.4712
 3003TIP3    H1 8973   1.748   0.669   1.888  2.0114  0.3881  1.0832
 3003TIP3    H2 8974   1.857   0.620   1.795 -0.5322 -0.2929 -1.7329
 3004TIP3   OH2 8975   2.423   3.338   2.555  0.1688  0.0067  0.2398
 3004TIP3    H1 8976   2.422   3.345   2.460  0.4211  1.9902  0.3267
 3004TIP3    H2 8977   2.375   3.415   2.585 -0.7715 -1.1093  1.7197
 3005TIP3   OH2 8978   0.750   3.042   5.289 -0.4113 -0.2641  0.0152
 3005TIP3    H1 8979   0.812   3.078   5.225  0.3205 -0.0516  0.8136
 3005TIP3    H2 8980   0.778   3.080   5.372 -2.3868  0.8020  0.2502
 3006TIP3   OH2 8981   1.078   4.803   4.802  0.3804  0.3514  0.0403
 3006TIP3    H1 8982   1.117   4.730   4.850 -1.5115 -0.4779  0.4147
 3006TIP3    H2 8983   1.002   4.765   4.758  0.8406  1.5600 -1.9043
 3007TIP3   OH2 8984   0.577   1.359   1.122 -0.1400  0.0812  0.1422
 3007TIP3    H1 8985   0.632   1.396   1.053 -0.6599 -0.1117 -0.3882
 3007TIP3    H2 8986   0.526   1.433   1.155 -0.0264  0.1379  0.1896
 3008TIP3   OH2 8987   6.038   3.136   4.557  0.1351 -0.0663  0.0991
 3008TIP3    H1 8988   6.075   3.051   4.582  1.5216  0.8232  1.2932
 3008TIP3    H2 8989   5.963   3.148   4.614 -0.3391 -0.6792 -0.3896
 3009TIP3   OH2 8990   0.956   5.822   3.205  0.2911 -0.2607  0.1572
 3009TIP3    H1 8991   0.925   5.772   3.280  0.7827 -0.4700  0.2245
 3009TIP3    H2 8992   0.922   5.911   3.219 -0.8074 -0.6306 -0.0970
 3010TIP3   OH2 8993   1.946   5.090   4.026 -0.4213  0.1596  0.2019
 3010TIP3    H1 8994   1.863   5.077   4.071  0.0679  1.1614  1.4728
 3010TIP3    H2 8995   1.996   5.011   4.045  0.0723  0.8856  2.1800
 3011TIP3   OH2 8996   0.160   2.071   5.187  0.3612  0.0510  0.0950
 3011TIP3    H1 8997   0.071   2.102   5.168 -0.5396 -2.1790  0.3352
 3011TIP3    H2 8998   0.180   2.107   5.273 -1.5337 -1.6876  1.3670
 3012TIP3   OH2 8999   5.808   5.912   0.461 -0.4608 -0.2877  0.0720
 3012TIP3    H1 9000   5.869   5.949   0.524 -0.2813 -0.1889 -0.1594
 3012TIP3    H2 9001   5.722   5.928   0.499 -0.4056  0.7127 -0.2132
 3013TIP3   OH2 9002   3.850   6.009   4.159  0.1226 -0.0982 -0.6030
 3013TIP3    H1 9003   3.764   6.046   4.141  0.6342  1.8069  0.6419
 3013TIP3    H2 9004   3.889   5.998   4.072  0.0549  2.6521 -1.0657
 3014TIP3   OH2 9005   6.604   1.287   3.273  0.1481  0.5114  0.5676
 3014TIP3    H1 9006   6.669   1.356   3.259  0.4576  0.1454  0.1733
 3014TIP3    H2 9007   6.650   1.206   3.252  0.1335  0.0674  2.1740
 3015TIP3   OH2 9008   3.718   6.267   0.289  0.1940  0.8622  0.2058
 3015TIP3    H1 9009   3.788   6.202   0.273  0.6700  0.0766  4.2489
 3015TIP3    H2 9010   3.765   6.349   0.302 -0.1040  1.3218 -1.4539
 3016TIP3   OH2 9011   2.142   0.069   5.649  0.1297  0.3246  0.0077
 3016TIP3    H1 9012   2.216   0.053   5.591  0.0264  0.9517 -0.3094
 3016TIP3    H2 9013   2.135  -0.010   5.702  1.3340  0.4527  0.3852
 3017TIP3   OH2 9014   2.834   5.088   0.302 -0.6898 -0.5790  0.5053
 3017TIP3    H1 9015   2.842   5.092   0.206  0.2367 -0.8239  0.5683
 3017TIP3    H2 9016   2.792   5.171   0.325 -0.8329 -0.4726 -0.1027
 3018TIP3   OH2 9017   4.921   1.912   5.906 -0.0836 -0.2266 -0.3776
 3018TIP3    H1 9018   4.961   1.940   5.823 -0.4521 -2.4278 -1.3666
 3018TIP3    H2 9019   4.905   1.818   5.895 -0.3963 -0.5379  2.1120
 3019TIP3   OH2 9020   7.137   3.724   3.844 -0.3842  0.4861  0.3693
 3019TIP3    H1 9021   7.183   3.772   3.776 -0.9774  1.7720  0.8392
 3019TIP3    H2 9022   7.044   3.739   3.826 -0.5557  0.3382  1.0810
 3020TIP3   OH2 9023   5.170   2.036   1.784 -0.1042  0.0348  0.8787
 3020TIP3    H1 9024   5.229   1.964   1.765 -2.3057 -1.1006 -2.4448
 3020TIP3    H2 9025   5.224   2.115   1.775  1.2567 -1.0007 -0.4109
 3021TIP3   OH2 9026   6.753   3.535   2.905  0.0329  0.2607 -0.7223
 3021TIP3    H1 9027   6.780   3.617   2.945 -0.4265 -0.5246  1.3275
 3021TIP3    H2 9028   6.658   3.531   2.920 -0.0698 -0.2862 -1.4709
 3022TIP3   OH2 9029   4.314   0.966   2.405 -0.1516 -0.1884 -0.3228
 3022TIP3    H1 9030   4.363   0.887   2.383  2.2218  0.1368  3.0242
 3022TIP3    H2 9031   4.239   0.934   2.456 -0.8156 -0.4044 -1.4097
 3023TIP3   OH2 9032   0.581   4.459   0.395  0.0197  0.1605  0.0298
 3023TIP3    H1 9033   0.548   4.497   0.477 -0.6288 -1.6827  0.6752
 3023TIP3    H2 9034   0.633   4.529   0.356  0.2904  1.1338  1.9817
 3024TIP3   OH2 9035   1.219   2.571   3.576 -0.1706  0.4022  0.4095
 3024TIP3    H1 9036   1.213   2.626   3.499 -1.2861 -2.0625 -1.4025
 3024TIP3    H2 9037   1.133   2.577   3.617 -0.2757  0.0847  0.2411
 3025TIP3   OH2 9038   4.879   4.547   2.136  0.3258  0.1047 -0.2594
 3025TIP3    H1 9039   4.928   4.544   2.054 -0.3043  0.2281 -0.6431
 3025TIP3    H2 9040   4.873   4.455   2.164  0.5921  0.0697 -0.3143
 3026TIP3   OH2 9041   2.114   4.930   4.905 -0.2272 -0.2590  0.1332
 3026TIP3    H1 9042   2.059   4.949   4.981  2.6109 -1.3080  2.6027
 3026TIP3    H2 9043   2.165   5.010   4.892  1.3265 -1.0265  1.2369
 3027TIP3   OH2 9044   5.570   1.199   1.882 -0.3928  0.1800  0.3039
 3027TIP3    H1 9045   5.515   1.141   1.829 -0.7298  0.3907  0.4177
 3027TIP3    H2 9046   5.635   1.233   1.820 -0.5644  0.1462  0.1007
 3028TIP3   OH2 9047   3.153   4.635   0.058  0.2663  0.1487  0.4425
 3028TIP3    H1 9048   3.182   4.664  -0.029 -1.2735  0.0990 -0.1256
 3028TIP3    H2 9049   3.120   4.714   0.100  0.0776 -0.0104  0.5920
 3029TIP3   OH2 9050   1.891   2.843   4.709 -0.0106  0.6517  0.2548
 3029TIP3    H1 9051   1.854   2.931   4.708  2.1994  1.6391 -0.2798
 3029TIP3    H2 9052   1.986   2.856   4.711  0.4063 -1.7127 -0.4625
 3030TIP3   OH2 9053   2.887   5.860   0.961  0.1069  0.0264  0.6428
 3030TIP3    H1 9054   2.922   5.799   1.025  0.6241  0.3470  0.6710
 3030TIP3    H2 9055   2.915   5.825   0.876 -1.3986 -0.9367  0.4979
 3031TIP3   OH2 9056   4.537   4.460   5.559  0.1632 -0.2493  0.0283
 3031TIP3    H1 9057   4.580   4.489   5.478 -0.6943 -2.4112 -1.2787
 3031TIP3    H2 9058   4.559   4.367   5.566  0.0476 -0.1683  2.2102
 3032TIP3   OH2 9059   1.038   0.223   3.135  0.1869 -0.1819  0.1910
 3032TIP3    H1 9060   0.985   0.146   3.153  1.1898 -0.8126  0.5341
 3032TIP3    H2 9061   1.117   0.211   3.188  0.2713  1.1809  0.3971
 3033TIP3   OH2 9062   1.836   5.541   4.109  1.0875 -0.1790 -0.5850
 3033TIP3    H1 9063   1.893   5.480   4.156  0.6525  0.3025  0.6165
 3033TIP3    H2 9064   1.896   5.605   4.071  1.5105 -1.0571 -1.4536
 3034TIP3   OH2 9065   5.322   1.614   0.370  0.1023 -0.9246 -0.0313
 3034TIP3    H1 9066   5.406   1.629   0.414  1.2558 -1.7554 -1.8550
 3034TIP3    H2 9067   5.325   1.523   0.342 -2.3991 -1.7094  1.7784
 3035TIP3   OH2 9068   4.985   2.438   0.650  0.2416  0.1638  0.2582
 3035TIP3    H1 9069   4.945   2.385   0.718  1.6006  0.2118  1.1298
 3035TIP3    H2 9070   4.929   2.515   0.642  0.9520  1.0129  2.5815
 3036TIP3   OH2 9071   4.420   5.199   2.087  0.1188 -0.2722 -0.2603
 3036TIP3    H1 9072   4.480   5.239   2.150 -2.2035  1.6279  0.8649
 3036TIP3    H2 9073   4.345   5.170   2.138 -2.0587  1.7415 -2.0804
 3037TIP3   OH2 9074   5.785   6.202   3.245  0.4745  0.0747 -0.5161
 3037TIP3    H1 9075   5.693   6.225   3.262 -0.2881 -1.0804 -2.6105
 3037TIP3    H2 9076   5.827   6.206   3.331 -1.8673 -0.7697  0.7815
 3038TIP3   OH2 9077   4.473   3.157   3.090  0.1097 -0.1598  0.0286
 3038TIP3    H1 9078   4.411   3.115   3.149  0.4060 -0.7021 -0.0419
 3038TIP3    H2 9079   4.554   3.161   3.141  0.0195  0.5550  0.1259
 3039TIP3   OH2 9080   5.481   0.338   1.322 -0.4787  0.1649 -0.5754
 3039TIP3    H1 9081   5.454   0.353   1.232  1.4925 -1.6373 -1.5517
 3039TIP3    H2 9082   5.576   0.353   1.322 -0.3840 -0.1878  1.1316
 3040TIP3   OH2 9083   3.371   1.626   4.978 -0.0298 -0.0712  1.0264
 3040TIP3    H1 9084   3.362   1.716   5.010  0.8049 -0.6546  3.0246
 3040TIP3    H2 9085   3.323   1.573   5.041 -0.4499 -1.0677 -0.0923
 3041TIP3   OH2 9086   2.053   1.072   3.073 -0.6744  0.2222 -0.1714
 3041TIP3    H1 9087   2.063   1.114   3.158 -0.6833  0.4726 -0.2926
 3041TIP3    H2 9088   2.142   1.053   3.045 -0.3848  3.1535 -1.5994
 3042TIP3   OH2 9089   3.601   2.176   3.865  0.1228 -0.1618  0.2217
 3042TIP3    H1 9090   3.543   2.193   3.791  0.1145 -0.0864  0.2456
 3042TIP3    H2 9091   3.648   2.258   3.878 -0.8910  0.2815  1.2022
 3043TIP3   OH2 9092   3.551   3.095   3.910 -0.0164 -0.8162  0.0757
 3043TIP3    H1 9093   3.644   3.073   3.914 -0.0803 -1.3392 -0.8458
 3043TIP3    H2 9094   3.534   3.108   3.816 -0.7678 -0.2569  0.2824
 3044TIP3   OH2 9095   3.144   4.022   4.388  0.1662  0.5248 -0.3681
 3044TIP3    H1 9096   3.069   3.965   4.406 -0.2020  0.2046 -2.6761
 3044TIP3    H2 9097   3.214   3.989   4.445 -1.0005 -0.0557  0.7816
 3045TIP3   OH2 9098   6.952   0.750   3.349  0.0123 -0.3655 -0.1544
 3045TIP3    H1 9099   6.873   0.767   3.297  0.7758 -1.0774 -1.6068
 3045TIP3    H2 9100   6.921   0.747   3.440 -0.7990  5.0780  0.1005
 3046TIP3   OH2 9101   6.658   2.056   2.553  0.8137 -0.2308  0.7527
 3046TIP3    H1 9102   6.608   2.088   2.478  2.2008 -1.7218 -0.8969
 3046TIP3    H2 9103   6.684   2.135   2.600 -0.5555  0.7136 -0.0185
 3047TIP3   OH2 9104   5.836   2.895   0.588  0.6698  0.2550 -0.0322
 3047TIP3    H1 9105   5.849   2.949   0.510  0.3230  0.5116  0.0848
 3047TIP3    H2 9106   5.914   2.911   0.641  0.1084  1.4271  0.4611
 3048TIP3   OH2 9107   6.652   5.326   0.418  0.5283  0.1007  0.2072
 3048TIP3    H1 9108   6.619   5.350   0.505  1.7370  0.9142  0.4669
 3048TIP3    H2 9109   6.612   5.390   0.359  0.5981  0.2512  0.3231
 3049TIP3   OH2 9110   6.071   4.075   0.229 -0.4248  0.5396  0.3064
 3049TIP3    H1 9111   6.049   4.168   0.221 -0.1584  0.7228  1.5519
 3049TIP3    H2 9112   6.061   4.041   0.140 -0.7964  1.6952 -0.1181
 3050TIP3   OH2 9113   1.520   4.584   5.635 -0.1567 -0.1783 -0.2975
 3050TIP3    H1 9114   1.584   4.631   5.581  0.2081 -0.2735  0.0450
 3050TIP3    H2 9115   1.531   4.622   5.723  1.3110 -2.0353  0.3719
 3051TIP3   OH2 9116   0.301   3.281   0.073 -0.0397  0.0053  0.5432
 3051TIP3    H1 9117   0.366   3.229   0.025 -3.1598 -2.3642 -1.5437
 3051TIP3    H2 9118   0.239   3.216   0.107 -2.1249  2.1612  1.1425
 3052TIP3   OH2 9119   5.137   1.652   2.825  0.4549  0.1567  0.7230
 3052TIP3    H1 9120   5.151   1.629   2.733 -1.5917  0.4637  0.2916
 3052TIP3    H2 9121   5.153   1.746   2.829  0.3226  0.1841  0.6233
 3053TIP3   OH2 9122   0.223   3.836   3.339  0.2153  0.8553  0.0462
 3053TIP3    H1 9123   0.200   3.926   3.315  0.7710  0.6497 -1.3516
 3053TIP3    H2 9124   0.218   3.788   3.256 -0.2660 -0.4485  0.8157
 3054TIP3   OH2 9125   5.709   4.645   4.153 -0.0421  0.2553 -0.4238
 3054TIP3    H1 9126   5.728   4.738   4.160  1.7962 -0.1396  0.3728
 3054TIP3    H2 9127   5.754   4.616   4.073 -0.8122  0.0770 -0.8080
 3055TIP3   OH2 9128   5.150   4.364   1.484  0.2293 -0.4481  0.1302
 3055TIP3    H1 9129   5.104   4.409   1.414  1.1157  1.9015  0.9656
 3055TIP3    H2 9130   5.171   4.278   1.447 -0.6179  0.1541 -1.9124
 3056TIP3   OH2 9131   6.462   4.686   3.259 -0.0763 -0.2233  0.6722
 3056TIP3    H1 9132   6.376   4.695   3.218  0.4057 -0.1318 -0.3477
 3056TIP3    H2 9133   6.444   4.648   3.345 -1.1860  0.3822  0.7190
 3057TIP3   OH2 9134   2.593   4.633   4.795  0.7580 -0.2661  0.3585
 3057TIP3    H1 9135   2.654   4.560   4.785  0.8192 -0.1490 -0.1226
 3057TIP3    H2 9136   2.648   4.711   4.791  0.7507 -0.2008  1.3197
 3058TIP3   OH2 9137   4.254   4.244   4.835  0.5369  0.0790 -0.6123
 3058TIP3    H1 9138   4.160   4.232   4.849  0.7221 -0.0004  0.7399
 3058TIP3    H2 9139   4.271   4.334   4.862  0.9791 -0.1701 -0.0362
 3059TIP3   OH2 9140   5.406   1.716   0.835  0.3091 -0.0231 -0.4381
 3059TIP3    H1 9141   5.395   1.763   0.918 -1.7767 -0.4377 -0.4276
 3059TIP3    H2 9142   5.378   1.626   0.854  1.1163 -0.4702 -1.2741
 3060TIP3   OH2 9143   2.360   0.089   4.540  0.1642  0.0589 -0.1350
 3060TIP3    H1 9144   2.393   0.120   4.456  0.2488  1.0239  0.2430
 3060TIP3    H2 9145   2.273   0.056   4.520  0.8124 -1.2664 -0.8928
 3061TIP3   OH2 9146   4.996   0.188   3.755  0.5497 -0.3407 -0.7248
 3061TIP3    H1 9147   5.063   0.221   3.814  0.6575 -0.1382 -0.9618
 3061TIP3    H2 9148   4.915   0.192   3.806  0.4719  0.7886 -0.9288
 3062TIP3   OH2 9149   3.218   5.051   3.173  0.2243 -0.0610  0.3146
 3062TIP3    H1 9150   3.245   4.987   3.107  2.0113  1.5130 -0.5873
 3062TIP3    H2 9151   3.159   5.111   3.126  0.9497  0.6652  0.3023
 3063TIP3   OH2 9152   5.620   0.845   4.093 -0.1353  0.1127  0.3019
 3063TIP3    H1 9153   5.525   0.837   4.107  0.0317  1.2217  2.4226
 3063TIP3    H2 9154   5.630   0.847   3.998 -2.4853  2.1708 -0.0149
 3064TIP3   OH2 9155   5.716   0.640   0.657 -0.0580  0.1238 -0.4456
 3064TIP3    H1 9156   5.708   0.622   0.564  0.1610  1.5420 -0.7542
 3064TIP3    H2 9157   5.635   0.606   0.695 -0.9846  1.1800 -1.4158
 3065TIP3   OH2 9158   7.014   2.669   2.958  0.5422  0.5403  0.5298
 3065TIP3    H1 9159   7.084   2.658   3.022  0.3604 -0.7039  0.5414
 3065TIP3    H2 9160   6.943   2.710   3.006  0.7657  0.5153  0.8812
 3066TIP3   OH2 9161   6.107   6.266   2.742 -0.0144 -0.0927 -0.0477
 3066TIP3    H1 9162   6.042   6.196   2.752 -1.3763  0.8275 -1.7241
 3066TIP3    H2 9163   6.122   6.298   2.831 -0.2322 -1.7262  0.6130
 3067TIP3   OH2 9164   3.540   0.522   2.835 -0.0317 -0.5124  0.0837
 3067TIP3    H1 9165   3.516   0.431   2.815 -1.4624 -0.0384 -0.4902
 3067TIP3    H2 9166   3.539   0.526   2.931 -2.1748 -0.5939  0.1181
 3068TIP3   OH2 9167   2.724   2.070   0.130 -0.3097  0.1318 -0.5471
 3068TIP3    H1 9168   2.637   2.107   0.143 -0.3144  0.3125 -1.0367
 3068TIP3    H2 9169   2.772   2.092   0.210 -0.6805  0.1232 -0.3198
 3069TIP3   OH2 9170   6.699   0.678   2.218 -0.0847 -0.5635 -0.0108
 3069TIP3    H1 9171   6.790   0.706   2.202  0.5461 -2.5849 -0.1893
 3069TIP3    H2 9172   6.692   0.677   2.314 -0.2418  0.5205  0.0004
 3070TIP3   OH2 9173   2.763   1.671   4.718  0.7108  0.4538  0.1596
 3070TIP3    H1 9174   2.783   1.582   4.746 -0.7315  0.4807  1.4122
 3070TIP3    H2 9175   2.837   1.697   4.663  1.0082 -1.6107 -0.4716
 3071TIP3   OH2 9176   3.041   2.948   2.635 -0.2082 -0.0929  0.6278
 3071TIP3    H1 9177   3.069   2.891   2.563 -0.1935 -2.4896  2.4177
 3071TIP3    H2 9178   3.121   2.966   2.684 -0.2921  1.1453  0.3388
 3072TIP3   OH2 9179   4.805   5.842   1.178 -0.1497 -0.5213  0.4217
 3072TIP3    H1 9180   4.823   5.921   1.228 -1.2811 -0.1161  0.2142
 3072TIP3    H2 9181   4.890   5.798   1.171  0.9291  1.6373 -1.1193
 3073TIP3   OH2 9182   3.251   0.209   3.772 -0.8313  0.3596 -0.3972
 3073TIP3    H1 9183   3.320   0.242   3.830 -1.4266  0.0440  0.5197
 3073TIP3    H2 9184   3.275   0.117   3.758  0.0335  0.7652 -1.7623
 3074TIP3   OH2 9185   6.612   4.355   0.811 -0.5923 -0.5145  0.4019
 3074TIP3    H1 9186   6.586   4.424   0.873 -1.6359  0.1726 -0.7565
 3074TIP3    H2 9187   6.530   4.318   0.780 -0.0676 -1.2901 -0.1099
 3075TIP3   OH2 9188   5.442   5.081   3.002 -0.3006  0.0315  0.3649
 3075TIP3    H1 9189   5.380   5.053   3.069  0.1464  0.4391  0.9479
 3075TIP3    H2 9190   5.515   5.021   3.010  0.3580  0.9164  1.1638
 3076TIP3   OH2 9191   1.467   0.799   1.448 -0.2995 -0.6986 -0.2563
 3076TIP3    H1 9192   1.508   0.881   1.477 -0.4552 -1.2577  1.7319
 3076TIP3    H2 9193   1.378   0.804   1.483 -0.2645 -1.7545  0.0281
 3077TIP3   OH2 9194   6.085   5.759   1.406  0.5676  0.2317  0.0837
 3077TIP3    H1 9195   6.076   5.855   1.407  2.0254  0.4104  1.4882
 3077TIP3    H2 9196   6.167   5.743   1.360 -0.0392 -0.4075 -0.7967
 3078TIP3   OH2 9197   3.884   1.241   3.006  0.0561 -0.1008 -0.6940
 3078TIP3    H1 9198   3.816   1.264   2.943 -0.7897 -0.0447  0.2324
 3078TIP3    H2 9199   3.847   1.262   3.092  0.8848 -0.9322 -0.1127
 3079TIP3   OH2 9200   1.808   6.574   3.787 -0.2797  0.3837 -0.2037
 3079TIP3    H1 9201   1.816   6.645   3.724  0.8602 -1.0645 -1.7828
 3079TIP3    H2 9202   1.716   6.550   3.785 -0.7530  1.9785  0.6064
 3080TIP3   OH2 9203   7.105   2.845   5.180  0.4956  0.3182 -0.3778
 3080TIP3    H1 9204   7.051   2.775   5.143 -0.0610 -0.1576  1.2688
 3080TIP3    H2 9205   7.042   2.912   5.208  0.7059 -0.1899  1.4526
 3081TIP3   OH2 9206   3.163   0.236   1.107  0.4170  0.4068  0.5227
 3081TIP3    H1 9207   3.104   0.228   1.181  0.1476 -0.3188  0.2381
 3081TIP3    H2 9208   3.152   0.326   1.076 -0.6394  0.2376  0.3891
 3082TIP3   OH2 9209   1.679   3.760   5.460  0.0709  0.2384 -0.2080
 3082TIP3    H1 9210   1.673   3.855   5.458  0.9228  0.3995 -3.8211
 3082TIP3    H2 9211   1.642   3.732   5.376  0.1826 -2.6050  0.5719
 3083TIP3   OH2 9212   6.658   6.129   3.974  0.3231  0.7287 -0.5607
 3083TIP3    H1 9213   6.614   6.158   3.894  1.1259  0.5414 -1.0908
 3083TIP3    H2 9214   6.725   6.068   3.942  0.9596  1.0118  0.2185
 3084TIP3   OH2 9215   0.713   3.682   5.479  0.4172  0.0293 -0.5895
 3084TIP3    H1 9216   0.769   3.696   5.556  0.4698 -0.3152 -0.5674
 3084TIP3    H2 9217   0.735   3.595   5.448  0.2134  0.0688 -0.8489
 3085TIP3   OH2 9218   5.534   3.563   2.894 -0.1524 -0.1752  0.2963
 3085TIP3    H1 9219   5.591   3.603   2.959  0.3779 -0.6764  0.1411
 3085TIP3    H2 9220   5.446   3.590   2.920  0.1443  0.5228  0.5887
 3086TIP3   OH2 9221   2.017   3.725   4.311 -0.4477 -0.0747  0.2702
 3086TIP3    H1 9222   2.022   3.779   4.390 -0.2558  0.7195 -0.2756
 3086TIP3    H2 9223   2.103   3.735   4.269 -1.2481  1.2653 -1.1551
 3087TIP3   OH2 9224   1.346   4.795   1.482 -0.4692 -0.2696 -0.1339
 3087TIP3    H1 9225   1.330   4.877   1.434 -0.5520  0.1993  0.6886
 3087TIP3    H2 9226   1.379   4.823   1.567  0.5431 -1.1258 -0.2384
 3088TIP3   OH2 9227   5.008   5.108   2.278 -0.2357 -0.0174 -0.7093
 3088TIP3    H1 9228   5.015   5.013   2.270  0.2118  0.0056 -0.5880
 3088TIP3    H2 9229   4.935   5.132   2.220  1.1806 -0.1613 -2.6604
 3089TIP3   OH2 9230   3.945   2.966   5.424 -0.0484  0.2136  0.1446
 3089TIP3    H1 9231   3.973   3.031   5.487 -0.4226  0.7142 -0.1949
 3089TIP3    H2 9232   3.966   2.882   5.464  0.8829  0.5525  0.3719
 3090TIP3   OH2 9233   3.831   1.821   2.232  0.5341 -0.0917 -0.3329
 3090TIP3    H1 9234   3.764   1.756   2.251  0.1428  0.5668  0.6498
 3090TIP3    H2 9235   3.798   1.868   2.156 -0.2575  0.3778  0.2787
 3091TIP3   OH2 9236   0.029   4.734   1.925 -0.0641 -0.4573  0.1449
 3091TIP3    H1 9237   0.118   4.753   1.955  0.0496 -0.3696 -0.2390
 3091TIP3    H2 9238  -0.027   4.788   1.981  0.2753  1.3696 -1.1848
 3092TIP3   OH2 9239   6.221   5.018   2.065 -0.2418  0.5870 -0.8176
 3092TIP3    H1 9240   6.200   5.102   2.024 -2.3266  1.8322  2.4536
 3092TIP3    H2 9241   6.302   5.034   2.113 -0.4188  0.6162 -0.5267
 3093TIP3   OH2 9242   1.690   1.332   4.194 -0.7155 -0.4493  0.3154
 3093TIP3    H1 9243   1.739   1.290   4.122  0.2335  0.3579  0.4639
 3093TIP3    H2 9244   1.678   1.422   4.165 -1.3535 -0.4151  0.6792
 3094TIP3   OH2 9245   5.848   4.547   2.091 -0.3739 -0.7852 -0.6523
 3094TIP3    H1 9246   5.827   4.455   2.107 -2.1463 -0.3199 -0.0675
 3094TIP3    H2 9247   5.890   4.576   2.172 -1.0692 -0.7475 -0.2955
 3095TIP3   OH2 9248   6.572   5.819   3.766  0.2960  0.0578 -0.2025
 3095TIP3    H1 9249   6.483   5.793   3.792  0.5591  0.3356  1.0369
 3095TIP3    H2 9250   6.587   5.772   3.684  0.0603 -2.3197  1.0077
 3096TIP3   OH2 9251   3.913   2.396   3.530  0.0915  0.3300  0.3422
 3096TIP3    H1 9252   3.937   2.485   3.558  2.7242 -0.7059  1.7029
 3096TIP3    H2 9253   3.884   2.353   3.610  0.2963 -0.4676 -0.0055
 3097TIP3   OH2 9254   4.152   6.503   0.071 -0.3951  0.7882  0.0053
 3097TIP3    H1 9255   4.238   6.462   0.059 -1.2438 -0.5161 -2.3655
 3097TIP3    H2 9256   4.108   6.446   0.134  0.0349  0.7059  0.2360
 3098TIP3   OH2 9257   4.033   6.173   1.836  0.0573 -0.3869  0.1286
 3098TIP3    H1 9258   4.095   6.127   1.779  1.9300  2.6189 -0.4581
 3098TIP3    H2 9259   4.076   6.176   1.921 -0.0207  0.3021  0.1497
 3099TIP3   OH2 9260   4.022   3.530   3.583  0.1766  0.2958  0.3914
 3099TIP3    H1 9261   4.011   3.481   3.664 -0.9526  3.1364  2.0448
 3099TIP3    H2 9262   4.108   3.571   3.591 -0.0584  0.8140  0.2475
 3100TIP3   OH2 9263   5.514   3.516   4.592  0.0721 -0.0514 -0.3664
 3100TIP3    H1 9264   5.487   3.424   4.593  1.5572 -0.5237 -0.7435
 3100TIP3    H2 9265   5.573   3.523   4.517 -0.2241  1.2796 -0.4956
 3101TIP3   OH2 9266   2.752   3.564   0.478  0.7604 -0.9186  0.5754
 3101TIP3    H1 9267   2.731   3.480   0.518  2.3091 -1.0535  1.1878
 3101TIP3    H2 9268   2.832   3.593   0.523  0.7325  0.4755 -0.2027
 3102TIP3   OH2 9269   1.808   6.347   4.226  0.0459 -0.4399 -0.0579
 3102TIP3    H1 9270   1.787   6.421   4.284  0.6270 -0.1477 -0.2106
 3102TIP3    H2 9271   1.727   6.296   4.222 -0.5381  0.4777 -0.3744
 3103TIP3   OH2 9272   2.651   6.310   5.410 -0.3937  0.6823 -0.0244
 3103TIP3    H1 9273   2.617   6.383   5.358 -3.0689 -0.7578 -0.4669
 3103TIP3    H2 9274   2.592   6.303   5.484 -0.2471 -1.0499 -0.0260
 3104TIP3   OH2 9275   4.295   6.002   1.351 -0.2823 -0.1819  0.6592
 3104TIP3    H1 9276   4.326   6.019   1.262  1.9404 -1.6976  1.0771
 3104TIP3    H2 9277   4.268   6.088   1.384  3.2101  1.2735  0.0793
 3105TIP3   OH2 9278   6.926   5.071   4.683  0.1488  0.2814  0.3600
 3105TIP3    H1 9279   6.831   5.075   4.689  0.1570  0.8161  0.2085
 3105TIP3    H2 9280   6.947   5.112   4.599  0.3784 -2.0831 -0.8391
 3106TIP3   OH2 9281   3.585   2.529   1.103 -0.0838  0.6370  0.2789
 3106TIP3    H1 9282   3.601   2.617   1.069 -0.6069  0.7817  0.3937
 3106TIP3    H2 9283   3.514   2.541   1.166  0.3241  0.2448  0.8179
 3107TIP3   OH2 9284   2.093   5.361   1.389  0.1592 -0.5293  0.2944
 3107TIP3    H1 9285   2.172   5.350   1.443  1.0481 -1.1214 -1.0589
 3107TIP3    H2 9286   2.036   5.417   1.441  1.4574 -0.1170  1.3397
 3108TIP3   OH2 9287   2.330   1.004   3.035  0.2109  0.4863 -0.3261
 3108TIP3    H1 9288   2.402   1.007   3.098 -0.6738 -0.7522  0.8009
 3108TIP3    H2 9289   2.330   1.091   2.995  0.8657  1.3017  1.3459
 3109TIP3   OH2 9290   5.134   3.729   3.109  0.6223  0.0355 -0.3115
 3109TIP3    H1 9291   5.073   3.802   3.106  1.0942  0.5701  1.7825
 3109TIP3    H2 9292   5.078   3.651   3.114  0.0987  0.4520  0.4978
 3110TIP3   OH2 9293   2.282   5.309   3.227  0.1856  0.2177 -0.1235
 3110TIP3    H1 9294   2.287   5.318   3.132 -0.0874 -0.7675 -0.2484
 3110TIP3    H2 9295   2.359   5.356   3.260  0.1956  0.6999 -0.8216
 3111TIP3   OH2 9296   1.092   5.376   1.283  0.9872  0.0789  0.0470
 3111TIP3    H1 9297   1.000   5.380   1.257  1.1725 -0.9218 -0.8251
 3111TIP3    H2 9298   1.090   5.356   1.376  0.3229  1.0035  0.2477
 3112TIP3   OH2 9299   1.145   5.379   2.776  0.1093 -0.2257  0.7584
 3112TIP3    H1 9300   1.192   5.320   2.834 -0.3000 -0.4248  0.8867
 3112TIP3    H2 9301   1.090   5.432   2.834  1.1354  0.9038  0.7369
 3113TIP3   OH2 9302   2.511   3.745   4.162  0.4648  0.1694 -0.1655
 3113TIP3    H1 9303   2.568   3.669   4.149  0.1060 -0.0919 -0.2185
 3113TIP3    H2 9304   2.516   3.793   4.080 -3.1284 -2.3562 -2.1227
 3114TIP3   OH2 9305   3.949   1.863   0.249 -0.1053  0.0383 -0.8509
 3114TIP3    H1 9306   4.021   1.886   0.190 -0.4074  0.7274 -0.9581
 3114TIP3    H2 9307   3.942   1.768   0.242  0.5074  0.0103 -1.1728
 3115TIP3   OH2 9308   0.925   5.972   2.447 -0.2885 -0.1946 -0.1862
 3115TIP3    H1 9309   1.007   6.014   2.476 -0.6392 -0.1693  0.8255
 3115TIP3    H2 9310   0.883   6.039   2.393 -0.8413  0.8154  1.4148
 3116TIP3   OH2 9311   0.885   0.094   1.077  0.3155 -0.3850 -0.2581
 3116TIP3    H1 9312   0.853   0.019   1.127  1.1453 -2.0055 -2.0219
 3116TIP3    H2 9313   0.836   0.091   0.994  0.2280  1.1603 -0.3034
 3117TIP3   OH2 9314   0.133   0.581   4.575 -0.5058  0.2750  0.2687
 3117TIP3    H1 9315   0.090   0.658   4.611 -0.0578  0.7650 -0.2329
 3117TIP3    H2 9316   0.152   0.604   4.484  0.4635 -0.0775  0.3727
 3118TIP3   OH2 9317   2.582   0.432   4.238  1.1739 -0.5775  0.3109
 3118TIP3    H1 9318   2.504   0.401   4.192  0.0800 -0.4891  2.0351
 3118TIP3    H2 9319   2.551   0.501   4.296  2.7953  0.4676  0.0347
 3119TIP3   OH2 9320   0.289   5.872   1.119 -0.5621  0.4857  0.2516
 3119TIP3    H1 9321   0.289   5.965   1.095 -0.1836  0.3839 -0.1683
 3119TIP3    H2 9322   0.274   5.826   1.036 -1.9993  0.1987  0.6388
 3120TIP3   OH2 9323   1.508   3.724   2.280 -0.4474 -0.8661 -0.0232
 3120TIP3    H1 9324   1.500   3.726   2.376  2.0738 -1.6901  0.2622
 3120TIP3    H2 9325   1.529   3.633   2.260  0.7992 -0.3525 -1.1729
 3121TIP3   OH2 9326   1.711   3.794   2.044  0.0383  0.0657 -0.0635
 3121TIP3    H1 9327   1.712   3.735   2.119  3.2353 -0.7093 -0.5719
 3121TIP3    H2 9328   1.797   3.837   2.045 -0.6753  1.7458 -1.9858
 3122TIP3   OH2 9329   0.327   5.666   0.350  0.2018 -0.1777  0.0110
 3122TIP3    H1 9330   0.276   5.600   0.397  0.7755 -0.4075  0.3218
 3122TIP3    H2 9331   0.381   5.707   0.418 -0.3221  0.7864 -0.1343
 3123TIP3   OH2 9332   1.343   6.788   3.375 -0.3293 -0.4430 -0.1417
 3123TIP3    H1 9333   1.279   6.724   3.407 -0.8979 -0.1174 -0.6086
 3123TIP3    H2 9334   1.348   6.772   3.281  0.8957 -1.0051 -0.0008
 3124TIP3   OH2 9335   3.746   5.686   0.073 -0.2765 -0.0509 -0.2632
 3124TIP3    H1 9336   3.658   5.666   0.105 -0.0000 -0.2715  0.3739
 3124TIP3    H2 9337   3.733   5.708  -0.020 -0.9922 -0.1291 -0.1902
 3125TIP3   OH2 9338   3.410   4.953   5.258  0.5064 -0.4100  0.2651
 3125TIP3    H1 9339   3.460   4.893   5.203 -0.8014 -0.7309 -0.6164
 3125TIP3    H2 9340   3.351   4.896   5.307  2.1269 -0.2130  2.6181
 3126TIP3   OH2 9341   1.424   0.424   5.334 -0.1098  0.4177 -0.3894
 3126TIP3    H1 9342   1.458   0.513   5.342 -1.7459  0.9814  0.8059
 3126TIP3    H2 9343   1.384   0.421   5.248 -1.6074  1.4508  0.2289
 3127TIP3   OH2 9344   4.593   2.875   2.465  0.4648  0.0284  0.0006
 3127TIP3    H1 9345   4.601   2.893   2.559  1.4989  1.7561 -0.3640
 3127TIP3    H2 9346   4.683   2.880   2.433  0.0081  0.6032 -1.2456
 3128TIP3   OH2 9347   0.094   1.794   2.560  0.2765  0.6593 -0.0319
 3128TIP3    H1 9348   0.029   1.813   2.493 -0.3953 -1.7697 -0.1342
 3128TIP3    H2 9349   0.046   1.745   2.627  1.1365  2.1989  1.8472
 3129TIP3   OH2 9350   4.546   2.513   1.818 -0.1628  0.1521 -0.0102
 3129TIP3    H1 9351   4.530   2.478   1.731 -1.4795 -0.3981  0.4180
 3129TIP3    H2 9352   4.470   2.570   1.835  1.0209  1.7920  0.0395
 3130TIP3   OH2 9353   5.959   3.477   3.496  0.5082  0.2157 -0.1776
 3130TIP3    H1 9354   6.022   3.533   3.540  1.7683 -0.2069 -1.3785
 3130TIP3    H2 9355   5.924   3.421   3.565  0.4622  1.3193  0.7352
 3131TIP3   OH2 9356   1.821   4.582   4.965 -0.4737 -0.4127 -0.0121
 3131TIP3    H1 9357   1.769   4.556   5.042  0.8807  0.6751  1.3472
 3131TIP3    H2 9358   1.773   4.657   4.929 -0.5819 -0.2892  0.3816
 3132TIP3   OH2 9359   4.295   6.127   1.786  0.4288  0.1337  0.3585
 3132TIP3    H1 9360   4.317   6.168   1.703  0.0584  1.1471  0.7400
 3132TIP3    H2 9361   4.337   6.042   1.783 -0.9968 -0.5767 -1.5913
 3133TIP3   OH2 9362   2.795   4.784   0.700 -0.0607 -0.0237 -0.6113
 3133TIP3    H1 9363   2.713   4.830   0.721 -0.0462 -0.1184 -0.3434
 3133TIP3    H2 9364   2.849   4.795   0.778 -0.9896 -2.6200  0.4937
 3134TIP3   OH2 9365   6.024   2.935   5.864 -0.0405  0.0598 -0.2259
 3134TIP3    H1 9366   6.097   2.922   5.925 -1.5031 -0.7210  1.4464
 3134TIP3    H2 9367   6.053   3.007   5.807  1.8757  0.0013  0.6046
 3135TIP3   OH2 9368   6.632   0.106   5.535  0.1545 -0.0400  0.1333
 3135TIP3    H1 9369   6.623   0.166   5.610  0.3057 -0.6354  0.6362
 3135TIP3    H2 9370   6.710   0.138   5.489 -0.2535  0.6636 -0.0900
 3136TIP3   OH2 9371   6.393   1.753   0.384  0.3429 -0.2622  0.0948
 3136TIP3    H1 9372   6.441   1.720   0.461  0.7233  0.1482  0.0362
 3136TIP3    H2 9373   6.408   1.847   0.385  1.0387 -0.3503 -0.9509
 3137TIP3   OH2 9374   2.495   3.770   1.117  0.1356 -0.2421 -0.7190
 3137TIP3    H1 9375   2.448   3.847   1.150  1.0242 -1.0019  2.5990
 3137TIP3    H2 9376   2.471   3.766   1.024 -1.4781  2.8741 -0.5646
 3138TIP3   OH2 9377   4.546   5.798   1.740 -0.3921  0.5809  0.6477
 3138TIP3    H1 9378   4.494   5.728   1.702  2.7354 -1.1569 -0.8481
 3138TIP3    H2 9379   4.507   5.878   1.707 -2.1064 -0.5958 -0.3144
 3139TIP3   OH2 9380   3.755   2.772   0.445 -0.4025 -0.5185 -0.1254
 3139TIP3    H1 9381   3.836   2.807   0.408  0.0665 -0.0777  1.2446
 3139TIP3    H2 9382   3.740   2.825   0.524 -0.5080 -2.4135  1.1879
 3140TIP3   OH2 9383   1.285   1.301   3.335 -0.8360 -0.0614  0.2142
 3140TIP3    H1 9384   1.376   1.303   3.363 -0.5956 -1.0629 -0.4563
 3140TIP3    H2 9385   1.278   1.222   3.282 -1.7045  0.8344 -1.0497
 3141TIP3   OH2 9386   6.015   1.864   3.127  0.0455 -0.0011  0.5179
 3141TIP3    H1 9387   6.028   1.953   3.093 -0.6628  0.4905  1.4959
 3141TIP3    H2 9388   6.073   1.810   3.073  1.0975  1.1556  0.4261
 3142TIP3   OH2 9389   0.601   0.926   4.011  0.4966 -0.4007  0.3745
 3142TIP3    H1 9390   0.662   0.998   4.030 -1.9391  1.4730  1.6553
 3142TIP3    H2 9391   0.601   0.873   4.091  0.8720 -0.7443  0.1492
 3143TIP3   OH2 9392   2.754   3.065   2.129 -0.3984 -0.1790 -0.0274
 3143TIP3    H1 9393   2.732   3.028   2.214 -2.4311 -0.2678 -0.5257
 3143TIP3    H2 9394   2.837   3.110   2.142  0.1501 -1.5612  1.5822
 3144TIP3   OH2 9395   2.210   0.367   0.885 -0.4319  0.3601 -0.1989
 3144TIP3    H1 9396   2.234   0.439   0.944 -1.3190 -0.0683  0.7123
 3144TIP3    H2 9397   2.202   0.408   0.799  0.0828  1.1532  0.1175
 3145TIP3   OH2 9398   2.678   0.835   2.572 -0.3179 -0.2715 -0.1545
 3145TIP3    H1 9399   2.714   0.922   2.588  0.1963 -0.2419 -1.3804
 3145TIP3    H2 9400   2.608   0.826   2.636 -0.0234  0.8275  0.3432
 3146TIP3   OH2 9401   4.986   2.448   4.416  0.1160  0.3445  0.1770
 3146TIP3    H1 9402   4.939   2.514   4.365 -0.0387 -0.5816 -0.9296
 3146TIP3    H2 9403   4.979   2.478   4.507 -0.2850  1.6289 -0.2566
 3147TIP3   OH2 9404   2.229  -0.033   4.015  0.6504 -0.6119  0.0864
 3147TIP3    H1 9405   2.312  -0.013   3.971  0.8378 -0.7718  0.3666
 3147TIP3    H2 9406   2.202   0.050   4.054 -0.1294 -0.1666 -1.3334
 3148TIP3   OH2 9407   4.055   1.952   3.372  1.0131  0.3497  0.0719
 3148TIP3    H1 9408   4.010   1.867   3.373  0.0648  0.8401  0.5557
 3148TIP3    H2 9409   4.136   1.935   3.323  0.8263 -0.8191  0.1234
 3149TIP3   OH2 9410   4.338   2.439   5.238 -0.1043 -0.1436  0.5936
 3149TIP3    H1 9411   4.319   2.533   5.237  0.9784  0.0837 -1.1114
 3149TIP3    H2 9412   4.268   2.400   5.186 -1.1392 -0.4536  2.1348
 3150TIP3   OH2 9413   0.274   1.624   3.620 -0.2778  0.5200 -0.3267
 3150TIP3    H1 9414   0.278   1.549   3.680  0.3133  1.0157  0.2702
 3150TIP3    H2 9415   0.213   1.596   3.551 -2.4227  0.5949  1.4192
 3151TIP3   OH2 9416   3.525   3.082   2.145  0.0067  0.0576 -0.2554
 3151TIP3    H1 9417   3.579   3.018   2.097 -1.3491 -2.0801  0.8951
 3151TIP3    H2 9418   3.587   3.127   2.202  0.6251 -3.0172  1.7716
 3152TIP3   OH2 9419   0.139   2.245   3.738  0.6791  0.4523  0.3124
 3152TIP3    H1 9420   0.125   2.272   3.828 -0.0099  1.3875 -0.0547
 3152TIP3    H2 9421   0.100   2.158   3.731 -0.6400  1.0176  0.5344
 3153TIP3   OH2 9422   2.249   4.123   3.014 -0.0090 -0.0757  0.1859
 3153TIP3    H1 9423   2.267   4.068   3.091  1.0651 -0.3048 -0.2066
 3153TIP3    H2 9424   2.271   4.212   3.043  0.8992 -0.2321 -0.0075
 3154TIP3   OH2 9425   4.578   2.214   2.899  0.3519 -0.3132 -0.0324
 3154TIP3    H1 9426   4.498   2.164   2.912  0.7093 -1.0114 -0.4241
 3154TIP3    H2 9427   4.573   2.244   2.808  0.8023 -0.8730 -0.2516
 3155TIP3   OH2 9428   4.751   4.096   3.766 -0.0329  0.2919  0.1109
 3155TIP3    H1 9429   4.677   4.064   3.818  1.1860 -0.7703  1.3126
 3155TIP3    H2 9430   4.816   4.121   3.832  0.6743  1.1974 -0.9093
 3156TIP3   OH2 9431   6.400   4.063   2.968 -0.1723  0.7079  0.1837
 3156TIP3    H1 9432   6.478   4.043   3.020  0.4081 -0.9525 -1.2546
 3156TIP3    H2 9433   6.392   4.158   2.974  0.7775  0.7352  1.9807
 3157TIP3   OH2 9434   3.064   5.564   5.297 -0.7280  0.5691 -0.2020
 3157TIP3    H1 9435   2.999   5.605   5.240 -0.8579 -0.5715 -0.9186
 3157TIP3    H2 9436   3.137   5.625   5.299 -1.9319  2.0231  0.8687
 3158TIP3   OH2 9437   5.678   0.627   2.086  0.0138 -0.1513 -0.1804
 3158TIP3    H1 9438   5.614   0.578   2.034 -0.7744  0.1992  0.4414
 3158TIP3    H2 9439   5.659   0.719   2.068  0.6998 -0.0544 -0.4123
 3159TIP3   OH2 9440   3.378   5.861   3.008 -0.2047 -0.0542 -0.4972
 3159TIP3    H1 9441   3.310   5.865   2.941 -1.6450 -0.4507  0.8806
 3159TIP3    H2 9442   3.374   5.946   3.051  2.0305  0.9489 -2.0566
 3160TIP3   OH2 9443   0.395   1.008   2.400 -0.6376  0.0409  0.6704
 3160TIP3    H1 9444   0.352   1.085   2.363 -0.5658  0.5805  1.6646
 3160TIP3    H2 9445   0.444   0.970   2.327 -1.9598 -0.0147 -0.2466
 3161TIP3   OH2 9446   3.309   0.180   2.438  0.0229 -0.5301 -0.4504
 3161TIP3    H1 9447   3.382   0.119   2.449  0.7498  0.3131 -0.4351
 3161TIP3    H2 9448   3.232   0.132   2.468  0.6973 -1.1767  0.2882
 3162TIP3   OH2 9449   4.613   1.978   1.418 -0.0584 -0.1291 -0.3543
 3162TIP3    H1 9450   4.656   2.061   1.399  2.1455 -1.3247 -0.9154
 3162TIP3    H2 9451   4.578   1.988   1.507 -2.3889  2.3359 -1.4363
 3163TIP3   OH2 9452   5.164   4.932   0.525 -0.7616 -0.0606 -0.1344
 3163TIP3    H1 9453   5.115   5.011   0.549 -0.9301 -0.0210 -0.5957
 3163TIP3    H2 9454   5.214   4.910   0.604 -0.9790  0.3065  0.1106
 3164TIP3   OH2 9455   6.405   1.226   3.733  0.0693 -0.0291 -0.2364
 3164TIP3    H1 9456   6.360   1.142   3.721 -0.6517  0.3741 -0.4264
 3164TIP3    H2 9457   6.347   1.290   3.691  1.4440  0.3513 -1.6489
 3165TIP3   OH2 9458   2.050   2.027   4.929  0.1417 -0.4920  0.1074
 3165TIP3    H1 9459   2.039   2.114   4.968  2.2353  0.0854 -0.4814
 3165TIP3    H2 9460   1.989   2.026   4.855 -0.3342  0.2404  0.4735
 3166TIP3   OH2 9461   4.713   1.476   3.835 -0.5483  0.6353  0.6584
 3166TIP3    H1 9462   4.653   1.467   3.761 -1.0633  0.5860  1.0713
 3166TIP3    H2 9463   4.685   1.408   3.896 -0.4675  1.0157  1.1254
 3167TIP3   OH2 9464   0.265   6.504   4.497  0.1285 -0.2079 -0.1476
 3167TIP3    H1 9465   0.311   6.420   4.508  2.0188  0.8451  0.3427
 3167TIP3    H2 9466   0.216   6.515   4.578 -1.0908 -1.3528 -0.6817
 3168TIP3   OH2 9467   3.618   0.290   5.781 -0.3892 -0.3037  0.5935
 3168TIP3    H1 9468   3.630   0.375   5.739 -0.1391 -0.2474  0.7809
 3168TIP3    H2 9469   3.584   0.311   5.868  0.3620 -0.3646  0.9035
 3169TIP3   OH2 9470   1.076   4.648   0.503  0.9408  0.8212  0.3305
 3169TIP3    H1 9471   1.113   4.736   0.510  1.6699  0.6611 -1.1057
 3169TIP3    H2 9472   1.152   4.590   0.504  0.8845  0.5057 -3.0562
 3170TIP3   OH2 9473   3.871   6.671  -0.010 -0.0033 -0.3170 -0.4770
 3170TIP3    H1 9474   3.939   6.734  -0.034  0.0556 -0.7848 -1.6238
 3170TIP3    H2 9475   3.880   6.661   0.085  0.9889  0.2449 -0.4943
 3171TIP3   OH2 9476   6.860   6.273   2.958  0.6009  1.0258  0.3820
 3171TIP3    H1 9477   6.951   6.294   2.934  0.5625 -0.1656 -0.8629
 3171TIP3    H2 9478   6.839   6.194   2.909 -0.7617  0.6491  1.5085
 3172TIP3   OH2 9479   5.797   1.073   0.520  0.5332 -0.5162 -0.2716
 3172TIP3    H1 9480   5.728   1.050   0.582  1.5141  0.6514  1.3182
 3172TIP3    H2 9481   5.845   0.992   0.505  1.3177 -0.5103  1.8724
 3173TIP3   OH2 9482   0.658   3.871   4.350  0.1320  0.1853  0.4369
 3173TIP3    H1 9483   0.719   3.801   4.326 -0.8426 -0.7535  0.6015
 3173TIP3    H2 9484   0.687   3.899   4.437  1.2914  0.8883 -0.1492
 3174TIP3   OH2 9485   2.473   5.358   1.209  0.3300 -0.0862 -0.0745
 3174TIP3    H1 9486   2.478   5.345   1.303  1.5921  0.5675 -0.0310
 3174TIP3    H2 9487   2.432   5.444   1.198  0.7722  0.1299 -0.0862
 3175TIP3   OH2 9488   1.197   2.664   1.528 -0.3555 -0.3804 -0.0134
 3175TIP3    H1 9489   1.150   2.630   1.451 -0.0952  0.3880 -0.5286
 3175TIP3    H2 9490   1.179   2.758   1.527  3.1563  0.4709 -1.7391
 3176TIP3   OH2 9491   6.630   1.871   4.253  0.5234 -0.6574  0.3911
 3176TIP3    H1 9492   6.713   1.883   4.208 -0.0497  0.7124 -0.3460
 3176TIP3    H2 9493   6.580   1.950   4.234 -0.9837 -1.4745  0.7629
 3177TIP3   OH2 9494   3.058   2.225   1.951  0.7944  0.8925  0.3683
 3177TIP3    H1 9495   3.003   2.291   1.910 -1.0532  0.2188  1.6260
 3177TIP3    H2 9496   3.143   2.234   1.908 -0.5366  1.3079 -2.3818
 3178TIP3   OH2 9497   3.891   1.875   0.546 -0.0757 -0.1453 -0.0492
 3178TIP3    H1 9498   3.944   1.868   0.466 -1.6585  0.3030 -1.1797
 3178TIP3    H2 9499   3.955   1.889   0.615  1.3504 -0.5309 -1.2316
 3179TIP3   OH2 9500   1.362   0.285   4.411 -0.0374  0.2481  0.0666
 3179TIP3    H1 9501   1.363   0.318   4.501 -1.2064  0.7092 -0.0695
 3179TIP3    H2 9502   1.446   0.312   4.374 -0.1844  1.4184  0.5527
 3180TIP3   OH2 9503   3.179   6.275   5.205 -0.3575 -0.3423  0.7771
 3180TIP3    H1 9504   3.245   6.294   5.138 -0.2326  0.6814  1.1789
 3180TIP3    H2 9505   3.100   6.321   5.174 -0.8847 -1.5125  0.3260
 3181TIP3   OH2 9506   2.477   2.329   5.227  0.3353  0.9501  0.8414
 3181TIP3    H1 9507   2.554   2.295   5.183 -0.0573 -1.5007  1.9290
 3181TIP3    H2 9508   2.507   2.350   5.316 -0.4679 -1.2855  1.6947
 3182TIP3   OH2 9509   3.622   4.825   0.166 -0.2864 -0.3111 -0.1370
 3182TIP3    H1 9510   3.631   4.788   0.078  0.0556  0.7516 -0.5689
 3182TIP3    H2 9511   3.537   4.796   0.196 -1.1866  0.7290 -1.5459
 3183TIP3   OH2 9512   2.568   4.933   1.081  0.0298 -0.3329 -0.3526
 3183TIP3    H1 9513   2.583   5.023   1.051  0.1989 -0.0902  0.4175
 3183TIP3    H2 9514   2.631   4.921   1.152  0.1702 -1.1505 -0.6109
 3184TIP3   OH2 9515   2.895   6.306   3.904 -0.1195  0.3911 -0.0115
 3184TIP3    H1 9516   2.853   6.363   3.840  1.6930  0.1261 -1.5485
 3184TIP3    H2 9517   2.933   6.365   3.969 -1.7638  0.6756  0.7321
 3185TIP3   OH2 9518   3.060   6.127   4.909  0.3346  0.7200  0.4006
 3185TIP3    H1 9519   3.074   6.035   4.933  0.8609  1.2290  2.1762
 3185TIP3    H2 9520   2.965   6.138   4.914  0.3968  0.7247  2.1019
 3186TIP3   OH2 9521   1.081   3.499   5.764 -0.0476  0.3037  0.1374
 3186TIP3    H1 9522   1.121   3.413   5.750 -0.9288  0.2825 -3.0500
 3186TIP3    H2 9523   1.146   3.561   5.732 -0.4783  0.6322 -0.1160
 3187TIP3   OH2 9524   1.604   4.214   2.974 -0.4902 -0.0467 -0.2204
 3187TIP3    H1 9525   1.530   4.156   2.956 -0.2019 -0.0886 -1.3134
 3187TIP3    H2 9526   1.604   4.223   3.069 -2.8647  1.2134 -0.2571
 3188TIP3   OH2 9527   5.062   4.665   2.755 -0.2722  0.5205  0.7335
 3188TIP3    H1 9528   5.128   4.698   2.695 -0.5887 -0.7379 -0.3372
 3188TIP3    H2 9529   5.035   4.743   2.805 -0.0513  1.6202 -0.7795
 3189TIP3   OH2 9530   2.075   6.762   0.547  0.8185  0.1559  1.3871
 3189TIP3    H1 9531   1.995   6.796   0.506  1.2854  0.0842  0.3929
 3189TIP3    H2 9532   2.054   6.671   0.570  1.1423 -0.4071 -0.4239
 3190TIP3   OH2 9533   4.945   0.287   0.330  0.3282  0.6852 -0.7594
 3190TIP3    H1 9534   4.877   0.243   0.279 -1.1322  0.8641  0.9349
 3190TIP3    H2 9535   4.980   0.219   0.387  0.2581  1.0044 -0.3302
 3191TIP3   OH2 9536   3.384   3.951   0.778  0.0151 -0.3817  0.2544
 3191TIP3    H1 9537   3.369   4.022   0.840  3.4929 -0.2092  1.0528
 3191TIP3    H2 9538   3.400   3.994   0.694 -1.3420 -0.4564 -0.0661
 3192TIP3   OH2 9539   3.266   4.278   4.615  0.1346 -0.0596 -1.0682
 3192TIP3    H1 9540   3.205   4.263   4.687  0.4054 -0.2834 -0.8831
 3192TIP3    H2 9541   3.212   4.315   4.545 -0.1994 -0.1912 -0.8816
 3193TIP3   OH2 9542   0.683   2.781   5.851 -0.2089 -0.0509 -0.3314
 3193TIP3    H1 9543   0.727   2.775   5.766 -1.2009  0.7343 -0.9150
 3193TIP3    H2 9544   0.700   2.696   5.892 -0.1288 -0.6408 -1.5245
 3194TIP3   OH2 9545   2.605   6.276   1.778 -0.1991 -0.0837  0.4646
 3194TIP3    H1 9546   2.639   6.248   1.693 -2.4365 -1.5750 -0.0118
 3194TIP3    H2 9547   2.619   6.371   1.779  0.7903 -0.1745 -1.1008
 3195TIP3   OH2 9548   1.234   4.084   3.369 -0.0925 -0.7051  0.1510
 3195TIP3    H1 9549   1.243   4.052   3.459 -3.0251 -3.3580 -0.3088
 3195TIP3    H2 9550   1.140   4.099   3.358  0.4937  2.7106 -1.6017
 3196TIP3   OH2 9551   2.534   6.472   0.934 -0.8929 -1.0327  0.0696
 3196TIP3    H1 9552   2.521   6.424   1.016 -0.4923 -1.0364  0.1315
 3196TIP3    H2 9553   2.446   6.504   0.912 -0.9331 -0.6549  0.7359
 3197TIP3   OH2 9554   3.221   0.485   3.520 -0.0741 -0.7467  0.1999
 3197TIP3    H1 9555   3.222   0.393   3.491 -0.2457 -0.4374 -0.8187
 3197TIP3    H2 9556   3.158   0.527   3.462  0.4814  0.1589  0.2510
 3198TIP3   OH2 9557   7.061   5.259   2.496 -0.7266  0.0746  0.8900
 3198TIP3    H1 9558   7.105   5.177   2.514  0.7347  0.2564 -1.3998
 3198TIP3    H2 9559   6.968   5.236   2.493 -0.3511 -1.4829  0.3939
 3199TIP3   OH2 9560   5.552   3.474   3.748  0.6172 -0.0177 -0.3216
 3199TIP3    H1 9561   5.529   3.493   3.657  0.8774 -0.1961 -0.4229
 3199TIP3    H2 9562   5.517   3.548   3.797  2.6568  1.3868 -0.8487
 3200TIP3   OH2 9563   3.126   4.253   2.101 -0.2532 -0.1196 -0.1483
 3200TIP3    H1 9564   3.056   4.315   2.081  1.1608  1.5130 -0.3003
 3200TIP3    H2 9565   3.119   4.239   2.195 -1.1265 -0.4218 -0.2494
 3201TIP3   OH2 9566   2.239   6.008   5.501 -0.1172  0.0342 -0.6056
 3201TIP3    H1 9567   2.318   6.025   5.552 -1.6295 -1.3884  2.4702
 3201TIP3    H2 9568   2.255   5.924   5.458 -0.7801 -1.6503  2.1764
 3202TIP3   OH2 9569   7.024   2.406   1.558  0.2474  0.1545 -0.2520
 3202TIP3    H1 9570   7.028   2.395   1.653  0.3208 -0.2593 -0.3023
 3202TIP3    H2 9571   6.958   2.474   1.544 -0.0830 -0.0987  0.0734
 3203TIP3   OH2 9572   3.633   1.083   4.659 -0.1769 -0.0352 -0.0806
 3203TIP3    H1 9573   3.698   1.039   4.604 -0.3466  1.1843 -1.3041
 3203TIP3    H2 9574   3.667   1.073   4.748  0.3635 -1.6145 -0.4241
 3204TIP3   OH2 9575   5.768   6.459   4.865 -0.1868  0.0629 -0.2193
 3204TIP3    H1 9576   5.853   6.414   4.860 -1.1042 -1.7112 -0.8509
 3204TIP3    H2 9577   5.721   6.413   4.934 -0.8933  0.5369 -0.3777
 3205TIP3   OH2 9578   4.441   1.092   2.619  0.4646  0.2227 -0.3158
 3205TIP3    H1 9579   4.388   1.070   2.543  0.3798  2.1351 -0.8417
 3205TIP3    H2 9580   4.383   1.141   2.676  0.9981  0.2414  0.2242
 3206TIP3   OH2 9581   0.117   5.946   3.138 -0.4306 -0.7496  0.4200
 3206TIP3    H1 9582   0.119   6.041   3.125 -1.1836 -0.7648  0.1422
 3206TIP3    H2 9583   0.166   5.932   3.218 -0.2633 -0.1275  0.4322
 3207TIP3   OH2 9584   4.185   4.365   1.231  0.0808 -0.0681  0.4201
 3207TIP3    H1 9585   4.226   4.444   1.267 -0.5091  0.3650  0.1604
 3207TIP3    H2 9586   4.159   4.390   1.142  2.8373 -1.5535 -0.9280
 3208TIP3   OH2 9587   5.718   5.503   4.991  0.2579 -0.8387  0.0737
 3208TIP3    H1 9588   5.694   5.537   5.077 -0.0631  0.0241 -0.3454
 3208TIP3    H2 9589   5.656   5.431   4.975  0.6810 -1.3712  0.7937
 3209TIP3   OH2 9590   6.431   3.936   0.893 -0.8503 -0.4640 -0.4452
 3209TIP3    H1 9591   6.475   3.853   0.909 -1.5504 -0.5189  1.4367
 3209TIP3    H2 9592   6.503   3.998   0.876 -0.3536 -1.4989 -2.3694
 3210TIP3   OH2 9593   7.118   0.193   4.084  0.0106 -0.0703  0.2965
 3210TIP3    H1 9594   7.120   0.284   4.114  0.6014 -0.1416  0.4737
 3210TIP3    H2 9595   7.088   0.144   4.161 -1.1340  0.0666 -0.0449
 3211TIP3   OH2 9596   6.428   0.918   1.519  0.0143 -0.2256  0.4290
 3211TIP3    H1 9597   6.380   0.980   1.464  1.2575  0.3908  0.0068
 3211TIP3    H2 9598   6.392   0.833   1.496  0.3869  0.0390 -1.2375
 3212TIP3   OH2 9599   2.162   4.755   0.603 -0.6106 -0.3754 -0.2211
 3212TIP3    H1 9600   2.225   4.759   0.531 -1.3894 -1.1393 -0.9697
 3212TIP3    H2 9601   2.129   4.844   0.611 -1.3338 -0.4911 -1.5839
 3213TIP3   OH2 9602   3.250   1.976   2.092  0.2832 -0.4914 -0.2547
 3213TIP3    H1 9603   3.238   2.064   2.128 -0.9220 -1.7752  2.7903
 3213TIP3    H2 9604   3.299   1.990   2.011 -0.7374  3.0340 -0.4250
 3214TIP3   OH2 9605   2.216   0.307   2.673  0.1637 -0.2019  0.1657
 3214TIP3    H1 9606   2.297   0.341   2.711  0.5304 -0.4577 -0.3768
 3214TIP3    H2 9607   2.208   0.352   2.589 -0.5710  0.2590  0.4688
 3215TIP3   OH2 9608   3.481   1.568   3.236 -0.3709  0.5181  0.1205
 3215TIP3    H1 9609   3.485   1.486   3.188 -1.2292  1.7464 -2.2251
 3215TIP3    H2 9610   3.503   1.545   3.326  0.3313 -2.0897 -0.6417
 3216TIP3   OH2 9611   3.788   4.107   3.038 -0.4687  0.2423 -0.5243
 3216TIP3    H1 9612   3.827   4.190   3.012 -0.2457  0.4685  0.4744
 3216TIP3    H2 9613   3.716   4.132   3.096 -0.8462 -0.2377 -0.7832
 3217TIP3   OH2 9614   0.746   2.662   5.052 -0.5825  0.4652  0.7608
 3217TIP3    H1 9615   0.783   2.713   5.124 -1.0345  2.3146 -0.2466
 3217TIP3    H2 9616   0.800   2.685   4.976 -2.7932  2.1341 -0.4383
 3218TIP3   OH2 9617   5.449   1.984   1.720 -0.0426  0.2893  0.7407
 3218TIP3    H1 9618   5.507   1.948   1.788  0.0077 -1.7583 -0.2973
 3218TIP3    H2 9619   5.496   2.059   1.685  1.5170 -0.6582  0.6949
 3219TIP3   OH2 9620   5.561   5.641   5.365  0.3202 -0.9084  0.9399
 3219TIP3    H1 9621   5.612   5.667   5.288 -1.3436  1.5973  0.5511
 3219TIP3    H2 9622   5.546   5.548   5.354 -0.5820 -0.4909 -2.2639
 3220TIP3   OH2 9623   6.162   5.481   5.186  0.5144  0.1726 -0.0342
 3220TIP3    H1 9624   6.206   5.495   5.270 -1.8536  1.2444  1.1089
 3220TIP3    H2 9625   6.142   5.387   5.185  0.2992  0.2008  0.7717
 3221TIP3   OH2 9626   4.174   5.838   5.620 -0.4426 -0.4061 -0.0518
 3221TIP3    H1 9627   4.176   5.933   5.611  0.9158 -0.3241  0.8523
 3221TIP3    H2 9628   4.100   5.821   5.678  1.9806  0.5514  3.6805
 3222TIP3   OH2 9629   3.848   3.725   3.515 -0.0061 -0.3685  0.9141
 3222TIP3    H1 9630   3.894   3.802   3.482 -0.5335  0.3176  1.7524
 3222TIP3    H2 9631   3.912   3.654   3.507  1.0032  0.4418  1.4672
 3223TIP3   OH2 9632   5.359   2.809   1.528 -0.3519  0.4030 -0.1792
 3223TIP3    H1 9633   5.440   2.802   1.478  0.4952  1.3052  1.0233
 3223TIP3    H2 9634   5.364   2.736   1.591 -0.4651  0.4615 -0.1027
 3224TIP3   OH2 9635   7.129   1.144   5.545  0.0556  0.0768  0.7314
 3224TIP3    H1 9636   7.176   1.146   5.628 -1.7740  0.5962  1.7992
 3224TIP3    H2 9637   7.036   1.148   5.569 -0.5033  1.0625 -1.3530
 3225TIP3   OH2 9638   4.901   4.982   2.607  0.3100 -0.2006 -0.2282
 3225TIP3    H1 9639   4.898   4.950   2.697  0.5959 -0.1694 -0.2052
 3225TIP3    H2 9640   4.894   4.903   2.553 -0.2723 -0.1819 -0.1837
 3226TIP3   OH2 9641   3.363   1.574   0.975  0.1591  0.5219 -0.6409
 3226TIP3    H1 9642   3.417   1.651   0.991 -1.6886  1.4793  1.6760
 3226TIP3    H2 9643   3.281   1.592   1.022 -0.5576 -2.6231 -0.4389
 3227TIP3   OH2 9644   2.649   2.723   3.576  0.2689  0.0155  0.4472
 3227TIP3    H1 9645   2.590   2.688   3.510  0.2788  1.2822 -0.2630
 3227TIP3    H2 9646   2.677   2.647   3.626 -0.4758 -0.8458 -0.4123
 3228TIP3   OH2 9647   4.330   3.909   1.691  0.2830  0.2681  0.5315
 3228TIP3    H1 9648   4.262   3.903   1.623  0.2474  1.3262  0.4589
 3228TIP3    H2 9649   4.347   4.003   1.699  2.0964 -0.0005  0.1925
 3229TIP3   OH2 9650   0.265   5.525   3.913 -0.3407 -0.3043 -0.6306
 3229TIP3    H1 9651   0.232   5.501   3.999  0.9163  0.1778  0.0101
 3229TIP3    H2 9652   0.343   5.471   3.900  0.3629  0.7067 -0.7798
 3230TIP3   OH2 9653   6.519   3.778   2.578 -0.3718  1.0155 -0.4197
 3230TIP3    H1 9654   6.602   3.821   2.557 -0.6676  1.2539 -1.1313
 3230TIP3    H2 9655   6.483   3.830   2.649 -0.1458  1.2155 -0.4490
 3231TIP3   OH2 9656   6.326   1.359   5.529  0.1089 -0.4186  0.0108
 3231TIP3    H1 9657   6.283   1.444   5.525  0.5696 -0.2476 -2.4962
 3231TIP3    H2 9658   6.255   1.296   5.520  0.0115 -0.2318 -0.5398
 3232TIP3   OH2 9659   0.742   6.174   3.528  1.1103  0.1280 -0.3543
 3232TIP3    H1 9660   0.687   6.216   3.462 -0.4830 -0.8218  0.3187
 3232TIP3    H2 9661   0.744   6.237   3.600  0.2437 -0.1502 -0.0752
 3233TIP3   OH2 9662   0.443   1.598   2.643 -0.7289  0.3120 -0.0781
 3233TIP3    H1 9663   0.437   1.589   2.738  0.3971 -2.0014 -0.1624
 3233TIP3    H2 9664   0.393   1.523   2.609  0.0461  0.3179 -1.2808
 3234TIP3   OH2 9665   6.996   5.144   1.945  0.0138  0.0132 -0.3352
 3234TIP3    H1 9666   7.087   5.164   1.966  0.0017 -0.3978  0.1326
 3234TIP3    H2 9667   6.946   5.211   1.989  0.1529  1.2272 -1.9247
 3235TIP3   OH2 9668   1.548   6.237   3.930  0.3224 -0.5649  0.0789
 3235TIP3    H1 9669   1.626   6.181   3.925  0.0671 -0.9506  0.4143
 3235TIP3    H2 9670   1.531   6.260   3.839  1.2321  0.0897  0.0563
 3236TIP3   OH2 9671   6.324   0.485   1.836  0.4258  0.5473 -0.1046
 3236TIP3    H1 9672   6.339   0.580   1.832 -0.6853  0.6954 -1.5434
 3236TIP3    H2 9673   6.283   0.471   1.922 -0.9179  1.6328 -0.5348
 3237TIP3   OH2 9674   4.638   2.107   5.149  0.2364  0.3663 -0.1465
 3237TIP3    H1 9675   4.575   2.127   5.080  2.6663  2.5204 -1.9264
 3237TIP3    H2 9676   4.610   2.160   5.224 -0.4500  0.7589 -0.6710
 3238TIP3   OH2 9677   6.800   2.150   1.877 -0.2108  0.6713  0.0317
 3238TIP3    H1 9678   6.840   2.201   1.948 -0.9838  0.7090  0.4476
 3238TIP3    H2 9679   6.706   2.167   1.885 -0.8047 -2.5488  1.6151
 3239TIP3   OH2 9680   3.589   0.384   0.341 -0.0566 -0.3030 -0.3497
 3239TIP3    H1 9681   3.562   0.426   0.423 -0.4909 -1.2103 -0.0073
 3239TIP3    H2 9682   3.671   0.427   0.317  0.3838 -0.4255  0.8826
 3240TIP3   OH2 9683   1.504   0.682   5.322  0.2329 -0.1738 -0.1899
 3240TIP3    H1 9684   1.592   0.650   5.308  1.3662  2.4952  0.1085
 3240TIP3    H2 9685   1.496   0.758   5.264 -1.7480 -0.1524  0.0283
 3241TIP3   OH2 9686   6.169   1.688   2.968 -0.5299  0.4919 -0.3963
 3241TIP3    H1 9687   6.262   1.709   2.960 -0.8170  1.6985 -0.7536
 3241TIP3    H2 9688   6.132   1.707   2.882 -1.6075  2.8097  0.4861
 3242TIP3   OH2 9689   6.799   0.228   0.007  0.5746  0.1700  0.5041
 3242TIP3    H1 9690   6.761   0.143  -0.014  0.5878 -0.1867  1.8048
 3242TIP3    H2 9691   6.723   0.282   0.032  0.6072  0.4323  0.0487
 3243TIP3   OH2 9692   4.576   1.695   5.043 -0.3349 -0.4699 -0.0286
 3243TIP3    H1 9693   4.644   1.703   5.111  0.3946 -0.6016 -0.7324
 3243TIP3    H2 9694   4.624   1.705   4.961 -1.0300 -1.5533 -0.5720
 3244TIP3   OH2 9695   5.980   1.303   3.174 -0.2853 -1.1856  0.1304
 3244TIP3    H1 9696   5.967   1.397   3.169 -2.0748 -1.4194 -0.2989
 3244TIP3    H2 9697   6.062   1.288   3.127  0.0525  0.1506  0.2551
 3245TIP3   OH2 9698   1.152   6.605   3.424 -0.1110 -0.0372  0.6010
 3245TIP3    H1 9699   1.104   6.619   3.506  0.2597  2.0011  0.5391
 3245TIP3    H2 9700   1.101   6.652   3.359  1.4950  1.5704  0.4007
 3246TIP3   OH2 9701   7.105   6.172   1.136  0.6145  0.3049 -0.3351
 3246TIP3    H1 9702   7.099   6.262   1.169  2.0617  0.2847  0.0491
 3246TIP3    H2 9703   7.094   6.181   1.041  0.3940  0.8427 -0.2634
 3247TIP3   OH2 9704   4.613   4.380   4.510 -0.1452 -0.2789  0.9870
 3247TIP3    H1 9705   4.540   4.441   4.512  0.1590  0.2015 -0.7298
 3247TIP3    H2 9706   4.684   4.426   4.555  0.1189  0.7503 -0.3919
 3248TIP3   OH2 9707   3.681   1.330   1.791 -0.0793 -1.0275  0.0177
 3248TIP3    H1 9708   3.735   1.359   1.865  0.6491 -1.7774 -0.1920
 3248TIP3    H2 9709   3.637   1.409   1.760 -0.7353 -0.7730  1.5146
 3249TIP3   OH2 9710   2.926   4.311   5.174 -0.1885  0.1939 -0.5072
 3249TIP3    H1 9711   2.943   4.353   5.258  0.7146  0.8722 -1.0053
 3249TIP3    H2 9712   3.006   4.262   5.154 -0.2155  0.4016 -1.1710
 3250TIP3   OH2 9713   2.094   4.157   1.926  0.0476 -0.0998 -0.9264
 3250TIP3    H1 9714   2.014   4.130   1.973 -0.2608  1.9924 -0.1585
 3250TIP3    H2 9715   2.084   4.119   1.839 -2.1179  0.6436 -1.0681
 3251TIP3   OH2 9716   7.103   5.309   0.975  0.3965 -0.3353  0.3107
 3251TIP3    H1 9717   7.172   5.255   0.937  1.8110  1.1646  0.6355
 3251TIP3    H2 9718   7.128   5.399   0.952 -1.3632  0.2619  0.6010
 3252TIP3   OH2 9719   0.520   4.794   5.776  0.6250 -0.2550 -0.1737
 3252TIP3    H1 9720   0.596   4.836   5.737  0.9348  0.0637  0.7549
 3252TIP3    H2 9721   0.555   4.743   5.850  0.0539 -0.8425 -0.2901
 3253TIP3   OH2 9722   1.830   2.509   4.090 -0.2487  0.7305 -0.1630
 3253TIP3    H1 9723   1.775   2.557   4.029 -0.5818  1.3674  0.6232
 3253TIP3    H2 9724   1.899   2.571   4.114  0.8221 -0.0541 -1.1260
 3254TIP3   OH2 9725   1.088   5.953   4.496  0.1566 -0.6400 -0.5762
 3254TIP3    H1 9726   1.112   5.888   4.430  3.6751 -0.3963  0.2710
 3254TIP3    H2 9727   1.101   5.908   4.580 -1.7588 -0.1508  0.0441
 3255TIP3   OH2 9728   3.800   2.505   2.608 -0.5560 -0.3334  0.0752
 3255TIP3    H1 9729   3.745   2.582   2.590  1.7691  1.2643 -0.6849
 3255TIP3    H2 9730   3.862   2.535   2.675  0.2173 -1.6510 -0.0139
 3256TIP3   OH2 9731   2.472   5.013   2.553  0.0488  0.2860  0.3958
 3256TIP3    H1 9732   2.531   5.079   2.515 -0.3562  1.1826  1.2681
 3256TIP3    H2 9733   2.418   4.984   2.479  1.4429 -0.4231 -0.3813
 3257TIP3   OH2 9734   2.556   3.447   3.408 -0.6363  0.3330 -0.1042
 3257TIP3    H1 9735   2.579   3.539   3.395 -0.4576  0.0411 -2.3020
 3257TIP3    H2 9736   2.582   3.404   3.326 -0.4309 -1.7415  0.9661
 3258TIP3   OH2 9737   3.726   2.545   0.826 -0.2136 -0.3633  0.3342
 3258TIP3    H1 9738   3.701   2.619   0.881  0.6216  0.0968  0.1131
 3258TIP3    H2 9739   3.787   2.582   0.763 -0.3026 -1.1139 -0.1980
 3259TIP3   OH2 9740   0.412   6.256   0.029 -0.2515  0.0773  0.2007
 3259TIP3    H1 9741   0.361   6.185  -0.010  1.3457 -0.6332 -0.7255
 3259TIP3    H2 9742   0.360   6.335   0.014 -0.9173 -0.5699 -1.0145
 3260TIP3   OH2 9743   6.562   6.618   2.941  0.1624  0.6103  0.3058
 3260TIP3    H1 9744   6.542   6.562   2.866  0.3659  0.4611  0.3624
 3260TIP3    H2 9745   6.586   6.557   3.011  0.3755  0.7686  0.3706
 3261TIP3   OH2 9746   4.299   0.781   4.706  0.2960 -0.3909 -0.8055
 3261TIP3    H1 9747   4.272   0.821   4.624  1.0465  1.2889 -0.2924
 3261TIP3    H2 9748   4.222   0.732   4.736 -0.8326  0.9983 -1.3119
 3262TIP3   OH2 9749   7.157   4.863   1.637  0.4174  0.0747  0.1487
 3262TIP3    H1 9750   7.202   4.862   1.553  0.6810 -0.0618  0.2889
 3262TIP3    H2 9751   7.224   4.892   1.700 -0.0394  1.1144  0.1684
 3263TIP3   OH2 9752   1.811   2.016   1.095 -0.4127 -0.2375 -0.3663
 3263TIP3    H1 9753   1.734   1.962   1.109 -1.0016  0.4051 -1.0679
 3263TIP3    H2 9754   1.853   2.020   1.181 -1.9747  0.6217  0.3959
 3264TIP3   OH2 9755   6.651   5.855   4.927  0.4395  0.4070 -0.4977
 3264TIP3    H1 9756   6.684   5.772   4.963  0.2836  0.4825 -0.1711
 3264TIP3    H2 9757   6.590   5.828   4.858 -1.2202  0.1665  0.9745
 3265TIP3   OH2 9758   4.202   6.157   3.848  0.0774  0.2975  0.1312
 3265TIP3    H1 9759   4.151   6.122   3.775  0.2673 -1.8754  0.9651
 3265TIP3    H2 9760   4.286   6.181   3.810 -0.0330 -0.2511 -0.4659
 3266TIP3   OH2 9761   4.726   6.051   0.919  0.5449 -0.1046  1.0029
 3266TIP3    H1 9762   4.741   5.986   0.988  4.8044 -0.7537 -0.2355
 3266TIP3    H2 9763   4.797   6.114   0.930  1.1599  0.0011 -2.4307
 3267TIP3   OH2 9764   3.645   4.326   3.778  0.0735  0.0806  0.3176
 3267TIP3    H1 9765   3.574   4.318   3.841  0.1355 -0.0743  0.3671
 3267TIP3    H2 9766   3.631   4.255   3.715  0.3263 -0.1050  0.4687
 3268TIP3   OH2 9767   3.172   2.832   3.476 -0.8044  0.0487 -0.5672
 3268TIP3    H1 9768   3.233   2.831   3.402 -1.3454  0.9876 -1.0508
 3268TIP3    H2 9769   3.087   2.813   3.438 -1.0109 -0.0046 -0.0911
 3269TIP3   OH2 9770   1.216   5.415   4.041  0.3257  0.3549 -0.0212
 3269TIP3    H1 9771   1.263   5.492   4.073 -0.2717  1.0060 -0.6721
 3269TIP3    H2 9772   1.189   5.369   4.121 -0.3864  1.4770  0.4060
 3270TIP3   OH2 9773   2.986   5.054   4.897  0.3597 -0.0332  0.3934
 3270TIP3    H1 9774   3.022   5.100   4.821  0.1522 -0.0878  0.2629
 3270TIP3    H2 9775   3.027   4.968   4.894  1.4455  0.4358  1.1454
 3271TIP3   OH2 9776   4.233   5.585   0.941 -0.0534  0.0329 -0.0100
 3271TIP3    H1 9777   4.218   5.508   0.997  1.1935  0.1079  0.4751
 3271TIP3    H2 9778   4.182   5.655   0.982  0.1386 -0.1333  0.5241
 3272TIP3   OH2 9779   0.573   3.953   0.620 -0.9845  0.4645  0.0195
 3272TIP3    H1 9780   0.667   3.945   0.601 -0.9625  0.2231  0.2439
 3272TIP3    H2 9781   0.536   3.987   0.538 -0.3010  3.2856  0.7444
 3273TIP3   OH2 9782   2.784   2.038   1.928 -0.2044 -0.1171 -0.5855
 3273TIP3    H1 9783   2.839   2.116   1.933 -0.6592  0.1323  1.5366
 3273TIP3    H2 9784   2.833   1.977   1.872  1.0471  0.9880 -0.7391
 3274TIP3   OH2 9785   0.413   2.019   3.666 -0.3493  0.2009 -0.0809
 3274TIP3    H1 9786   0.468   2.008   3.589  0.3701  1.9785  0.1203
 3274TIP3    H2 9787   0.469   1.992   3.739 -0.5916 -0.2844 -0.0731
 3275TIP3   OH2 9788   6.580   4.536   4.057  0.6536  0.0871 -0.1997
 3275TIP3    H1 9789   6.499   4.547   4.106  0.0305 -0.0074 -1.1958
 3275TIP3    H2 9790   6.553   4.500   3.972  1.9034 -1.8508  0.1494
 3276TIP3   OH2 9791   4.613   4.694   0.121  0.3557 -0.2769 -0.0548
 3276TIP3    H1 9792   4.543   4.631   0.137 -0.2035  0.0297 -1.1667
 3276TIP3    H2 9793   4.619   4.699   0.026  2.7494 -1.2024 -0.0130
 3277TIP3   OH2 9794   5.144   1.965   1.322 -0.1167  0.7126 -0.4762
 3277TIP3    H1 9795   5.116   1.884   1.280 -1.5722  1.3895 -0.8609
 3277TIP3    H2 9796   5.236   1.950   1.345  1.4891  0.8861 -5.5429
 3278TIP3   OH2 9797   0.473   2.212   4.023  0.1589  0.4897 -0.2523
 3278TIP3    H1 9798   0.450   2.273   3.953  0.0968  1.3692  0.5114
 3278TIP3    H2 9799   0.508   2.268   4.092  1.9779 -0.5479 -0.2976
 3279TIP3   OH2 9800   3.734   5.265   2.180 -0.3534 -0.5997 -0.3628
 3279TIP3    H1 9801   3.783   5.338   2.142  1.1267  0.8124  3.7712
 3279TIP3    H2 9802   3.758   5.190   2.124  4.1808  0.6217 -0.4851
 3280TIP3   OH2 9803   4.818   4.331   0.412 -0.2167 -0.2767 -0.2013
 3280TIP3    H1 9804   4.832   4.237   0.400  2.0564  0.0505 -0.5933
 3280TIP3    H2 9805   4.724   4.343   0.400 -0.6694 -2.5821  0.5719
 3281TIP3   OH2 9806   1.669   4.131   2.178 -0.1860  0.8478  0.4531
 3281TIP3    H1 9807   1.707   4.110   2.264  1.9980  0.4645 -0.5302
 3281TIP3    H2 9808   1.592   4.075   2.171  0.8994 -0.8133  1.2565
 3282TIP3   OH2 9809   6.124   6.274   4.310 -0.3930  0.1757  0.4650
 3282TIP3    H1 9810   6.185   6.216   4.355  0.2433  2.1779  2.3780
 3282TIP3    H2 9811   6.040   6.257   4.352 -0.8190 -1.2841 -0.9092
 3283TIP3   OH2 9812   2.105   5.928   0.979 -0.1622  0.2369  0.0609
 3283TIP3    H1 9813   2.181   5.955   0.927  0.8847 -0.1148  1.3482
 3283TIP3    H2 9814   2.073   5.849   0.936 -0.1305  0.6723 -0.7908
 3284TIP3   OH2 9815   6.493   1.526   2.752  0.5099 -0.1968  0.0926
 3284TIP3    H1 9816   6.509   1.543   2.659  2.0346 -0.6602  0.2544
 3284TIP3    H2 9817   6.536   1.598   2.797  0.9699 -0.7269  0.4981
 3285TIP3   OH2 9818   4.757   3.226   5.742 -0.8942 -0.0270  0.3248
 3285TIP3    H1 9819   4.788   3.197   5.656 -0.7820 -0.5465  0.5341
 3285TIP3    H2 9820   4.828   3.282   5.775 -0.8971  0.1008  0.1185
 3286TIP3   OH2 9821   4.836   6.387   0.695  0.0515 -0.0631 -0.1938
 3286TIP3    H1 9822   4.848   6.293   0.708 -0.3906 -0.7059 -3.5014
 3286TIP3    H2 9823   4.771   6.412   0.761  0.2683 -2.0410  0.8469
 3287TIP3   OH2 9824   3.832   3.058   4.215  0.1636  0.5831 -0.3783
 3287TIP3    H1 9825   3.924   3.045   4.241 -0.2835 -0.9343  0.5954
 3287TIP3    H2 9826   3.787   2.981   4.250 -1.5013  1.3393 -0.7920
 3288TIP3   OH2 9827   5.895   2.800   4.967 -0.2597 -0.4372 -0.0186
 3288TIP3    H1 9828   5.859   2.739   4.902 -0.6579 -0.6347  0.3792
 3288TIP3    H2 9829   5.965   2.751   5.010 -0.7562 -0.7192  0.4853
 3289TIP3   OH2 9830   0.326   1.590   5.013 -0.1969  0.1273 -0.3826
 3289TIP3    H1 9831   0.251   1.577   5.071  0.0034  0.7926  0.0335
 3289TIP3    H2 9832   0.401   1.554   5.061 -0.4600 -2.0587 -1.4684
 3290TIP3   OH2 9833   6.817   0.240   4.828  0.0508  0.3572  0.3022
 3290TIP3    H1 9834   6.872   0.309   4.790  0.1759 -0.0335 -0.2333
 3290TIP3    H2 9835   6.746   0.287   4.871  0.4585  0.8448  0.4519
 3291TIP3   OH2 9836   7.074   3.373   1.338 -0.2985  0.5471  0.1405
 3291TIP3    H1 9837   7.102   3.364   1.429  0.3179  0.1899 -0.0799
 3291TIP3    H2 9838   7.040   3.287   1.315 -2.1630  1.1225  0.5822
 3292TIP3   OH2 9839   1.669   1.992   0.614  0.2888  0.3395 -0.5566
 3292TIP3    H1 9840   1.734   2.031   0.671 -0.8913  0.5359  0.7039
 3292TIP3    H2 9841   1.661   2.053   0.541  1.3417  0.4074 -0.6294
 3293TIP3   OH2 9842   0.191   4.354   1.674 -0.0967 -0.2224 -0.2877
 3293TIP3    H1 9843   0.120   4.396   1.625  0.3098 -0.3073 -0.9642
 3293TIP3    H2 9844   0.233   4.296   1.610 -0.5026 -1.4991  0.5533
 3294TIP3   OH2 9845   5.336   6.596   5.318 -0.4121 -0.5254 -0.4869
 3294TIP3    H1 9846   5.354   6.506   5.292  1.0056 -0.4905  0.3089
 3294TIP3    H2 9847   5.417   6.627   5.357 -1.3861  0.5621  0.7812
 3295TIP3   OH2 9848   3.375   6.128   4.261 -0.1678  0.3226  0.5817
 3295TIP3    H1 9849   3.357   6.208   4.213 -0.7254  0.5904  1.2198
 3295TIP3    H2 9850   3.396   6.157   4.350  0.4600 -0.1864  0.6063
 3296TIP3   OH2 9851   2.112   1.572   5.438  0.2056  0.3566 -0.0618
 3296TIP3    H1 9852   2.197   1.531   5.457 -0.0508 -0.5418 -0.8012
 3296TIP3    H2 9853   2.078   1.595   5.524  1.1866  0.7075  0.2532
 3297TIP3   OH2 9854   5.314   6.776   0.300 -0.3460 -0.0645  0.4302
 3297TIP3    H1 9855   5.272   6.703   0.253 -2.0489  1.8881 -1.2713
 3297TIP3    H2 9856   5.284   6.854   0.254  0.8674  1.7833  2.6026
 3298TIP3   OH2 9857   2.974   2.577   4.218 -0.0340  0.2847  0.1276
 3298TIP3    H1 9858   3.011   2.547   4.301  1.6460  0.5691 -0.4881
 3298TIP3    H2 9859   2.923   2.654   4.241  1.5100  1.1587  0.7398
 3299TIP3   OH2 9860   5.569   3.748   0.746 -0.0158 -0.3449 -0.2780
 3299TIP3    H1 9861   5.574   3.700   0.664  2.1307 -0.2595 -0.2364
 3299TIP3    H2 9862   5.493   3.805   0.735  0.7007  0.2962 -2.5685
 3300TIP3   OH2 9863   0.632   4.230   1.531  0.2371 -0.1857  0.2514
 3300TIP3    H1 9864   0.614   4.290   1.459  0.2264 -0.4145  0.0594
 3300TIP3    H2 9865   0.721   4.198   1.514 -0.1193 -0.9788 -0.2036
 3301TIP3   OH2 9866   2.582   2.996   5.461  0.6237 -0.1889  0.0017
 3301TIP3    H1 9867   2.625   3.059   5.519  0.4102 -0.7186  0.7489
 3301TIP3    H2 9868   2.489   3.016   5.470  0.5995 -0.1819 -0.2669
 3302TIP3   OH2 9869   2.695   3.341   2.571  0.0445 -0.4654 -0.0831
 3302TIP3    H1 9870   2.704   3.412   2.507 -1.4808  1.5950  1.8203
 3302TIP3    H2 9871   2.601   3.325   2.576  0.3693 -2.7518 -0.5352
 3303TIP3   OH2 9872   1.772   0.405   5.740 -0.3299  0.4656  0.0816
 3303TIP3    H1 9873   1.734   0.339   5.799  1.3147 -0.7560 -0.1242
 3303TIP3    H2 9874   1.761   0.368   5.653  1.0171  0.2131 -0.0004
 3304TIP3   OH2 9875   2.133   2.570   1.646 -0.1443  0.6980  0.3696
 3304TIP3    H1 9876   2.110   2.649   1.694  0.4476  1.3111 -0.3176
 3304TIP3    H2 9877   2.227   2.579   1.629  0.3063 -0.9404  1.6866
 3305TIP3   OH2 9878   6.089   2.458   3.554 -0.3308 -0.3254  0.1200
 3305TIP3    H1 9879   6.058   2.547   3.571  0.2213 -0.3843  1.6064
 3305TIP3    H2 9880   6.040   2.403   3.615 -0.5098 -1.0239 -0.6333
 3306TIP3   OH2 9881   4.223   2.473   2.526  0.4360  0.7958  0.3039
 3306TIP3    H1 9882   4.276   2.439   2.455 -0.9227 -0.2949 -0.2270
 3306TIP3    H2 9883   4.262   2.558   2.547  0.5448  1.3912 -2.0916
 3307TIP3   OH2 9884   2.204   1.797   2.509 -0.0813  0.1064 -0.7410
 3307TIP3    H1 9885   2.124   1.758   2.473  0.9324 -1.7066 -1.1838
 3307TIP3    H2 9886   2.181   1.888   2.528 -2.2818 -0.4101 -0.7101
 3308TIP3   OH2 9887   5.434   5.475   2.359  0.3169  0.7724  0.1524
 3308TIP3    H1 9888   5.509   5.467   2.301  0.7248 -1.6063  0.8949
 3308TIP3    H2 9889   5.424   5.569   2.373  1.9918  1.2354 -1.4136
 3309TIP3   OH2 9890   0.331   0.255   5.091 -0.4744  0.9152  0.1923
 3309TIP3    H1 9891   0.419   0.273   5.124 -0.2207  0.7952 -0.3943
 3309TIP3    H2 9892   0.335   0.279   4.998 -1.2156  1.4232  0.2839
 3310TIP3   OH2 9893   6.013   4.969   2.844  0.2947  0.1179  0.4882
 3310TIP3    H1 9894   6.093   4.975   2.793  0.7794 -0.4512  1.1620
 3310TIP3    H2 9895   5.954   4.915   2.792  0.4726  0.2471  0.1539
 3311TIP3   OH2 9896   3.944   4.120   4.233  0.3073 -0.3346 -0.2586
 3311TIP3    H1 9897   3.939   4.104   4.327  1.0052 -0.4480 -0.2355
 3311TIP3    H2 9898   3.946   4.215   4.224 -1.3880 -0.2762 -0.2572
 3312TIP3   OH2 9899   7.175   5.452   5.647  0.2980 -0.3172 -0.0653
 3312TIP3    H1 9900   7.101   5.412   5.601  0.4586 -1.4904  0.6427
 3312TIP3    H2 9901   7.241   5.464   5.580 -0.0390 -0.5446 -0.4489
 3313TIP3   OH2 9902   4.392   3.518   3.132  0.0859 -0.0697  0.1068
 3313TIP3    H1 9903   4.314   3.519   3.188  0.5904 -0.0815  0.8275
 3313TIP3    H2 9904   4.363   3.475   3.051 -0.1197 -1.9899  1.1474
 3314TIP3   OH2 9905   0.504   5.723   4.556  0.1873 -0.1945  0.2636
 3314TIP3    H1 9906   0.435   5.783   4.527  1.6953  1.2494 -0.4675
 3314TIP3    H2 9907   0.496   5.723   4.652 -0.0609  0.9152  0.2618
 3315TIP3   OH2 9908   3.106   6.378   3.380  0.3045 -0.0076  0.1129
 3315TIP3    H1 9909   3.055   6.329   3.444  2.6701  0.6931  2.6975
 3315TIP3    H2 9910   3.068   6.465   3.380 -0.2654 -0.2452 -0.1831
 3316TIP3   OH2 9911   6.625   4.013   1.228  0.7038  0.3858 -0.2173
 3316TIP3    H1 9912   6.631   4.092   1.174 -3.2031 -0.3333 -2.0680
 3316TIP3    H2 9913   6.674   3.947   1.178  0.7664  0.7327 -0.6219
 3317TIP3   OH2 9914   3.547   0.411   3.637 -0.3747  0.2740  0.1924
 3317TIP3    H1 9915   3.535   0.485   3.697  1.7282  1.7201 -1.0269
 3317TIP3    H2 9916   3.628   0.431   3.591 -1.0108 -1.6251 -1.9270
 3318TIP3   OH2 9917   4.124   3.513   2.626 -0.5015  0.0097  0.8709
 3318TIP3    H1 9918   4.033   3.495   2.602 -0.4538 -0.5095  1.0515
 3318TIP3    H2 9919   4.167   3.537   2.544 -0.2422 -2.1284  0.3164
 3319TIP3   OH2 9920   3.346   2.031   1.818  1.0388 -0.7048 -0.2950
 3319TIP3    H1 9921   3.432   1.989   1.813  0.6279 -1.9363  1.6853
 3319TIP3    H2 9922   3.296   1.993   1.746  1.4428 -1.8058 -0.0158
 3320TIP3   OH2 9923   6.729   3.186   1.450  0.3106  0.1746  0.3028
 3320TIP3    H1 9924   6.760   3.271   1.481 -0.5782 -0.0099  1.7893
 3320TIP3    H2 9925   6.694   3.204   1.363  0.5875  1.2354  0.3972
 3321TIP3   OH2 9926   5.112   6.267   0.362  0.0885  0.2856 -0.5445
 3321TIP3    H1 9927   5.020   6.294   0.352 -0.0572  0.1258  0.2675
 3321TIP3    H2 9928   5.109   6.199   0.430  0.8244  0.3611 -0.4347
 3322TIP3   OH2 9929   0.847   1.857   4.158 -0.2249  0.0999 -0.6072
 3322TIP3    H1 9930   0.931   1.833   4.197  0.3025  0.6627 -1.3761
 3322TIP3    H2 9931   0.866   1.933   4.104 -1.0634 -0.2508 -1.4354
 3323TIP3   OH2 9932   5.948   2.055   4.444  0.0967  0.5191  0.2347
 3323TIP3    H1 9933   6.012   2.109   4.398 -1.5389  2.5726  0.2445
 3323TIP3    H2 9934   5.875   2.045   4.383 -0.1305 -0.7150  0.6724
 3324TIP3   OH2 9935   2.107   4.492   4.140 -0.6128  0.0390 -0.3838
 3324TIP3    H1 9936   2.022   4.494   4.184  0.2102  2.5986  1.3220
 3324TIP3    H2 9937   2.165   4.451   4.204  0.2817  2.3875  0.3961
 3325TIP3   OH2 9938   5.087   1.226   0.231 -0.4628 -0.0547 -0.1585
 3325TIP3    H1 9939   5.085   1.140   0.274  1.1025  0.6814  1.4873
 3325TIP3    H2 9940   5.059   1.288   0.298 -1.7122  0.7355 -1.3730
 3326TIP3   OH2 9941   3.170   3.754   3.049  0.2514 -0.4007  0.2095
 3326TIP3    H1 9942   3.100   3.718   2.994  0.4787  1.7332 -1.6105
 3326TIP3    H2 9943   3.248   3.751   2.993  0.7892  0.6136  0.8823
 3327TIP3   OH2 9944   6.415   0.847   3.467  0.0703 -0.0252 -0.2980
 3327TIP3    H1 9945   6.327   0.811   3.465  0.5530 -1.2218 -0.8843
 3327TIP3    H2 9946   6.403   0.942   3.467 -1.1878 -0.1648 -1.7016
 3328TIP3   OH2 9947   3.300   3.581   1.832  0.0974  0.3063  0.0616
 3328TIP3    H1 9948   3.242   3.603   1.759 -0.0105  2.2777  0.6692
 3328TIP3    H2 9949   3.386   3.570   1.792 -0.6860 -3.4947 -0.9782
 3329TIP3   OH2 9950   4.882   1.253   0.669  0.4262  0.1531 -0.0355
 3329TIP3    H1 9951   4.854   1.277   0.758 -0.0659 -0.8489  0.0927
 3329TIP3    H2 9952   4.909   1.162   0.676 -0.2075 -0.1285 -1.0427
 3330TIP3   OH2 9953   1.640   1.018   4.782 -0.0615  0.1427  0.1281
 3330TIP3    H1 9954   1.614   0.941   4.834 -2.1648  1.7483  1.6710
 3330TIP3    H2 9955   1.596   1.006   4.698 -0.2401 -0.4183  0.2943
 3331TIP3   OH2 9956   5.875   3.165   1.365  0.3697  0.5485 -0.1846
 3331TIP3    H1 9957   5.931   3.224   1.415  2.8746 -0.4467 -1.6277
 3331TIP3    H2 9958   5.787   3.203   1.373  1.4571  3.0852  0.9222
 3332TIP3   OH2 9959   4.495   6.160   2.445  0.4101 -0.5921 -0.3257
 3332TIP3    H1 9960   4.492   6.071   2.479 -0.5135 -0.0471  1.1265
 3332TIP3    H2 9961   4.413   6.199   2.473  0.8061  0.7237 -0.9259
 3333TIP3   OH2 9962   6.205   6.696   1.776  0.5560  0.3040  0.3854
 3333TIP3    H1 9963   6.146   6.700   1.851  0.3618 -1.5737  0.3810
 3333TIP3    H2 9964   6.156   6.737   1.705  1.1887  3.1639  1.4864
 3334TIP3   OH2 9965   6.933   3.052   2.865 -0.5647  0.0144 -0.6142
 3334TIP3    H1 9966   6.876   2.976   2.859 -1.4261  0.3009  2.4208
 3334TIP3    H2 9967   6.873   3.126   2.876  0.3326  0.7190 -0.3313
 3335TIP3   OH2 9968   2.117   3.555   3.465  0.2482 -0.1826 -0.8149
 3335TIP3    H1 9969   2.200   3.591   3.437  0.5980 -1.3096 -1.3043
 3335TIP3    H2 9970   2.115   3.570   3.560  0.5894  0.6456 -0.9320
 3336TIP3   OH2 9971   6.298   6.366   0.256  0.1261 -0.4600 -0.3847
 3336TIP3    H1 9972   6.342   6.287   0.287 -2.1185 -2.2114 -1.3362
 3336TIP3    H2 9973   6.253   6.338   0.175 -1.7800  1.4199 -0.0628
 3337TIP3   OH2 9974   3.217   0.891   4.465 -0.5550  0.4033  0.4705
 3337TIP3    H1 9975   3.152   0.821   4.462 -0.4340  0.2641  1.0850
 3337TIP3    H2 9976   3.270   0.872   4.542  0.9700 -0.1415 -0.6631
 3338TIP3   OH2 9977   2.413   2.751   2.780 -0.5909  0.1722  0.4654
 3338TIP3    H1 9978   2.436   2.675   2.832 -0.7883  0.1088  0.4605
 3338TIP3    H2 9979   2.405   2.717   2.690  2.4886  0.7416 -0.1598
 3339TIP3   OH2 9980   1.072   6.824   2.861  0.6031  0.6418  0.0325
 3339TIP3    H1 9981   1.162   6.795   2.850  0.1662 -1.3732  1.2482
 3339TIP3    H2 9982   1.021   6.765   2.805 -0.1711 -0.0041  1.3623
 3340TIP3   OH2 9983   0.716   1.086  -0.017  0.3263  0.2429 -0.0149
 3340TIP3    H1 9984   0.652   1.090   0.054  0.4196  0.5389  0.0551
 3340TIP3    H2 9985   0.800   1.073   0.027  0.3248 -0.0524 -0.1002
 3341TIP3   OH2 9986   0.251   4.495   0.924  0.0205  0.0657  0.0986
 3341TIP3    H1 9987   0.261   4.402   0.908 -2.6764 -0.5936  1.6367
 3341TIP3    H2 9988   0.171   4.519   0.877  0.1078  1.3792  0.5555
 3342TIP3   OH2 9989   1.569   5.316   3.516  0.0930  0.4255  0.1789
 3342TIP3    H1 9990   1.523   5.263   3.581 -1.2683  0.5688 -0.6448
 3342TIP3    H2 9991   1.503   5.375   3.481  1.3079  1.8584  0.2009
 3343TIP3   OH2 9992   2.310   4.029   4.403 -0.1582 -0.0038  0.0302
 3343TIP3    H1 9993   2.353   3.944   4.408 -1.2882 -0.5114  2.1236
 3343TIP3    H2 9994   2.371   4.089   4.445 -0.0585 -0.0720 -0.0144
 3344TIP3   OH2 9995   2.323   3.201   4.393  0.0514 -0.2698 -0.5162
 3344TIP3    H1 9996   2.242   3.216   4.344  0.7054  0.7326 -1.3237
 3344TIP3    H2 9997   2.389   3.253   4.347  1.0685 -0.7323  0.3822
 3345TIP3   OH2 9998   5.434   1.191   5.711 -0.4308  0.5035  0.3183
 3345TIP3    H1 9999   5.475   1.274   5.736  0.1183  0.6532 -0.9717
 3345TIP3    H210000   5.419   1.145   5.794 -0.2064  1.6412  1.0057
 3346TIP3   OH210001   1.201   4.034   5.434  0.4048 -0.1223 -0.0347
 3346TIP3    H110002   1.242   3.948   5.444  1.1868  0.3274  0.7404
 3346TIP3    H210003   1.219   4.079   5.516 -1.1650  0.3098  0.1094
 3347TIP3   OH210004   2.665   1.616   2.398  0.0763  0.1287 -0.0346
 3347TIP3    H110005   2.757   1.638   2.379 -0.1813 -0.5674 -2.5162
 3347TIP3    H210006   2.618   1.637   2.317 -1.5052 -1.8503  0.2779
 3348TIP3   OH210007   5.844   3.063   4.922  0.7322  0.2409 -0.2798
 3348TIP3    H110008   5.928   3.108   4.913  0.3392  0.8745 -0.8808
 3348TIP3    H210009   5.868   2.972   4.940  1.5472  0.4093 -0.4508
 3349TIP3   OH210010   3.825   2.077   3.303  0.5401 -0.3728  0.3319
 3349TIP3    H110011   3.906   2.030   3.323 -0.6489 -3.3079 -1.0632
 3349TIP3    H210012   3.762   2.042   3.366  0.0567  0.9347  0.5873
 3350TIP3   OH210013   2.588   2.004   1.537 -0.7579 -0.2825 -0.2675
 3350TIP3    H110014   2.582   1.941   1.609 -0.3774  0.8934  0.8351
 3350TIP3    H210015   2.517   2.067   1.554 -0.2520  0.3736 -0.5448
 3351TIP3   OH210016   5.620   4.322   1.039 -0.2228 -0.0599 -0.1730
 3351TIP3    H110017   5.593   4.364   0.957 -1.0560 -1.0560 -0.4239
 3351TIP3    H210018   5.565   4.362   1.106 -1.1877 -0.8869 -0.4454
 3352TIP3   OH210019   0.207   4.395   3.037  0.3787 -0.0969  0.1149
 3352TIP3    H110020   0.175   4.445   2.962 -0.3123  0.0658  0.5069
 3352TIP3    H210021   0.138   4.403   3.103  0.2686 -1.5095  0.2159
 3353TIP3   OH210022   3.125   0.724   0.867 -0.2405 -0.1335  0.5299
 3353TIP3    H110023   3.039   0.754   0.836 -0.4538 -0.9903  0.2472
 3353TIP3    H210024   3.188   0.766   0.809 -0.4923  0.2195  0.5089
 3354TIP3   OH210025   1.786   3.045   3.392  0.0955  0.2027  0.1583
 3354TIP3    H110026   1.811   3.135   3.416  4.4268 -1.2854  2.2031
 3354TIP3    H210027   1.774   3.048   3.297  0.2768  2.8860  0.1420
 3355TIP3   OH210028   5.886   1.495   5.734  0.1527 -0.5294  0.0366
 3355TIP3    H110029   5.875   1.552   5.657 -1.6424 -1.0354 -0.1262
 3355TIP3    H210030   5.930   1.550   5.798 -0.1280  0.5569 -0.6711
 3356TIP3   OH210031   5.038   2.044   5.663 -0.0968 -0.1168 -0.1335
 3356TIP3    H110032   5.080   2.098   5.730  3.9343 -1.4902 -1.2491
 3356TIP3    H210033   5.037   2.099   5.585  0.5086 -0.3424 -0.3113
 3357TIP3   OH210034   3.025   3.540   0.013 -0.2655 -0.1229  0.2132
 3357TIP3    H110035   2.987   3.624  -0.014 -1.1593 -0.0806  1.5098
 3357TIP3    H210036   3.013   3.538   0.108  0.0247 -1.5843  0.2377
 3358TIP3   OH210037   0.961   6.004   0.139 -0.0384  0.1956  0.3969
 3358TIP3    H110038   1.048   6.004   0.100 -0.2266 -0.3927 -0.0374
 3358TIP3    H210039   0.951   5.915   0.176 -0.4715  0.2410  0.3990
 3359TIP3   OH210040   5.354   2.580   4.700  0.1013  0.2926 -0.0156
 3359TIP3    H110041   5.287   2.646   4.714 -0.2562 -0.2493  0.8654
 3359TIP3    H210042   5.355   2.567   4.605  0.3609  1.7408 -0.2330
 3360TIP3   OH210043   2.028   3.819   3.976  0.0312  0.4115  0.0454
 3360TIP3    H110044   2.109   3.799   4.024 -0.2569 -1.3389 -0.1250
 3360TIP3    H210045   2.058   3.866   3.898  0.8831 -0.0697  0.0657
 3361TIP3   OH210046   5.253   3.662   5.433 -0.2145 -0.2478  0.8795
 3361TIP3    H110047   5.243   3.712   5.352  0.7837  0.0780  0.9503
 3361TIP3    H210048   5.328   3.606   5.418 -0.2746 -0.4889  1.4349
 3362TIP3   OH210049   1.586   3.958   1.377 -0.0022  0.4764 -0.2016
 3362TIP3    H110050   1.585   3.904   1.298 -1.2704  0.7488 -0.3788
 3362TIP3    H210051   1.628   4.040   1.350  2.6270 -0.6130  0.2462
 3363TIP3   OH210052   1.974   2.928   3.970 -0.4439 -0.2096 -0.3277
 3363TIP3    H110053   1.879   2.923   3.980 -0.9243  0.1396 -3.6416
 3363TIP3    H210054   1.988   3.002   3.912  1.8696 -0.4271 -0.1328
 3364TIP3   OH210055   5.622   3.626   3.143 -0.7301 -0.1107 -0.6852
 3364TIP3    H110056   5.530   3.650   3.153 -0.6035  0.2291 -0.2806
 3364TIP3    H210057   5.654   3.616   3.233 -1.0371 -2.8790 -0.7752
 3365TIP3   OH210058   2.059   6.129   1.421  0.2115  0.3517  0.2150
 3365TIP3    H110059   2.034   6.221   1.418  0.0953  0.2963 -0.6847
 3365TIP3    H210060   1.980   6.083   1.449 -0.6508  0.2216 -2.2198
 3366TIP3   OH210061   1.984   2.283   3.583 -0.0227 -0.1566 -0.2874
 3366TIP3    H110062   2.010   2.298   3.674  0.2581 -0.1215 -0.3721
 3366TIP3    H210063   1.967   2.371   3.549 -2.3242 -0.2866  0.3613
 3367TIP3   OH210064   1.252   2.846   1.110  0.3663  0.2485 -0.0838
 3367TIP3    H110065   1.262   2.941   1.102 -2.0798  0.6745  0.8418
 3367TIP3    H210066   1.305   2.823   1.186  1.7932  0.6722 -0.9177
 3368TIP3   OH210067   3.593   6.571   3.563 -0.1117 -0.8349 -0.2400
 3368TIP3    H110068   3.527   6.537   3.623 -0.2699  0.1376  0.1558
 3368TIP3    H210069   3.615   6.497   3.507 -0.0806 -1.7191  0.9044
 3369TIP3   OH210070   2.679   1.140   0.234  0.3059  0.4259  0.0698
 3369TIP3    H110071   2.639   1.223   0.261 -1.9333 -1.2977  2.5075
 3369TIP3    H210072   2.605   1.085   0.209  1.7789 -0.7787 -1.8800
 3370TIP3   OH210073   0.814   3.961   3.688  0.5120  0.2783  0.2316
 3370TIP3    H110074   0.755   4.032   3.713  0.3522  0.2204  0.0245
 3370TIP3    H210075   0.757   3.895   3.648  0.0166 -1.6923  3.7604
 3371TIP3   OH210076   5.231   6.619   1.919  0.7634  0.5548  0.2851
 3371TIP3    H110077   5.225   6.701   1.968  1.9508  0.4742  0.5990
 3371TIP3    H210078   5.275   6.642   1.838  1.2710  0.2141  0.4521
 3372TIP3   OH210079   1.160   3.147   2.279  0.4355  0.0959  0.3195
 3372TIP3    H110080   1.122   3.133   2.192 -1.2207  0.1314  0.9938
 3372TIP3    H210081   1.185   3.240   2.279 -0.0323  0.2289  0.0504
 3373TIP3   OH210082   6.170   6.517   1.185  0.0863 -0.0486 -0.1774
 3373TIP3    H110083   6.220   6.536   1.264 -0.9441  0.2806  0.4159
 3373TIP3    H210084   6.215   6.443   1.145 -0.3343 -1.3144  1.5895
 3374TIP3   OH210085   4.136   4.586   0.698 -0.6754  0.5186  0.2078
 3374TIP3    H110086   4.079   4.657   0.667 -1.8298 -0.7318 -0.6011
 3374TIP3    H210087   4.076   4.524   0.739  0.0130 -1.1690 -1.2699
 3375TIP3   OH210088   6.949   6.325   1.427 -0.4575 -0.3997  0.3614
 3375TIP3    H110089   6.948   6.390   1.498 -1.7997 -0.3194  0.3089
 3375TIP3    H210090   6.962   6.241   1.471  3.0016 -0.0275  0.2882
 3376TIP3   OH210091   1.741   0.096   1.125  0.4130  0.2441  0.4853
 3376TIP3    H110092   1.733   0.041   1.047  0.6186  0.4459  0.3207
 3376TIP3    H210093   1.661   0.149   1.124  0.3137  0.0977  0.5311
 3377TIP3   OH210094   4.644   6.555   2.718  0.5217  0.0300 -0.1051
 3377TIP3    H110095   4.687   6.639   2.704  1.5413 -0.5502 -0.5531
 3377TIP3    H210096   4.687   6.495   2.657  0.0689 -0.9022  0.4673
 3378TIP3   OH210097   6.366   4.651   2.157  0.1220 -0.2564 -0.3361
 3378TIP3    H110098   6.287   4.693   2.191 -0.4897 -1.3417 -0.3829
 3378TIP3    H210099   6.401   4.714   2.094 -0.2664  0.5664  0.2469
 3379TIP3   OH210100   1.774   6.102   5.288  0.1626  0.1673  0.1308
 3379TIP3    H110101   1.861   6.136   5.268 -0.6012  2.3778  0.2539
 3379TIP3    H210102   1.760   6.033   5.223  2.5346 -1.2590  1.0389
 3380TIP3   OH210103   4.981   6.487   4.545  0.0046  0.5362  0.2981
 3380TIP3    H110104   5.037   6.412   4.563  0.6072  0.9869  0.3411
 3380TIP3    H210105   5.040   6.562   4.550  0.0810  0.7836 -2.8611
 3381TIP3   OH210106   0.216   4.999   1.441  0.5777  0.3787 -0.0713
 3381TIP3    H110107   0.209   4.927   1.379  1.0084  0.8818 -0.7302
 3381TIP3    H210108   0.142   5.057   1.419  2.1959  1.8894 -1.9433
 3382TIP3   OH210109   2.274   6.700   4.176 -0.2369  0.4262 -0.0596
 3382TIP3    H110110   2.366   6.678   4.169 -0.2082  0.5024  0.0710
 3382TIP3    H210111   2.268   6.792   4.153 -0.0372  0.8701  1.5575
 3383TIP3   OH210112   3.276   1.331   4.808  0.4415  0.3898  0.4992
 3383TIP3    H110113   3.260   1.414   4.764  0.5774  0.2217  0.1261
 3383TIP3    H210114   3.285   1.268   4.736 -0.9294 -0.1829  0.8016
 3384TIP3   OH210115   4.127   3.714   1.246 -0.0354  0.1147  0.3347
 3384TIP3    H110116   4.095   3.701   1.157  0.0741  0.2426  0.2762
 3384TIP3    H210117   4.209   3.762   1.235  0.4222 -0.6279  0.4506
 3385TIP3   OH210118   1.543   0.117   1.359 -0.2307 -0.5117  0.2144
 3385TIP3    H110119   1.518   0.186   1.297 -0.9656 -0.9942 -0.0324
 3385TIP3    H210120   1.633   0.140   1.384 -0.4377  0.4987  0.0880
 3386TIP3   OH210121   6.062   3.610   5.760 -0.0422 -0.2429 -0.0736
 3386TIP3    H110122   6.050   3.608   5.855 -1.4601  1.0292 -0.2038
 3386TIP3    H210123   6.052   3.519   5.733 -2.0797 -0.3128  0.7425
 3387TIP3   OH210124   3.522   5.559   0.390 -0.1098 -0.5271  0.3001
 3387TIP3    H110125   3.592   5.574   0.454 -0.9203  0.3581  0.9990
 3387TIP3    H210126   3.505   5.465   0.395 -2.0091 -0.1571  3.4241
 3388TIP3   OH210127   1.909   3.114   2.769 -0.0876 -0.3818 -0.5376
 3388TIP3    H110128   1.869   3.199   2.752  1.2473 -0.1987 -3.1863
 3388TIP3    H210129   2.000   3.135   2.792  0.0061 -1.0663 -0.2518
 3389TIP3   OH210130   1.492   2.496   4.514 -0.2661  0.2198  0.3768
 3389TIP3    H110131   1.474   2.504   4.608  2.1768  2.7684  0.7498
 3389TIP3    H210132   1.412   2.529   4.472 -1.1328 -0.3280  1.5274
 3390TIP3   OH210133   2.870   6.450   1.946  0.5036 -0.1879  0.2078
 3390TIP3    H110134   2.785   6.486   1.919  1.0825  1.1038  0.0534
 3390TIP3    H210135   2.882   6.373   1.890 -0.8817 -0.8218  0.7336
 3391TIP3   OH210136   3.900   2.201   3.733 -0.2557 -0.3773 -0.6941
 3391TIP3    H110137   3.893   2.135   3.802 -1.9937 -0.3372 -0.7765
 3391TIP3    H210138   3.965   2.166   3.672 -0.0587 -1.2965  0.0336
 3392TIP3   OH210139   0.220   1.210   5.286  0.0130 -0.2079  0.0477
 3392TIP3    H110140   0.191   1.159   5.210  1.3467 -0.8762 -0.0257
 3392TIP3    H210141   0.165   1.288   5.283 -1.8410 -1.4346 -0.0421
 3393TIP3   OH210142   4.779   5.077   1.751  0.2445  0.5356 -0.2920
 3393TIP3    H110143   4.856   5.040   1.794 -0.5178 -1.0945 -0.2472
 3393TIP3    H210144   4.802   5.168   1.732  1.5013  0.5809  1.3354
 3394TIP3   OH210145   3.622   1.464   5.442  0.1093  0.0790 -0.3789
 3394TIP3    H110146   3.586   1.544   5.404  0.8180  0.1650 -0.8951
 3394TIP3    H210147   3.563   1.443   5.514 -0.4835  0.6764 -0.6759
 3395TIP3   OH210148   3.043   3.308   1.796 -0.0549 -0.0540 -0.4626
 3395TIP3    H110149   2.947   3.310   1.794 -0.0521  0.8624  0.1407
 3395TIP3    H210150   3.070   3.397   1.775  0.7168 -0.6272 -2.1791
 3396TIP3   OH210151   2.510   5.086   0.789 -0.1874  0.6772  0.3954
 3396TIP3    H110152   2.571   5.111   0.858 -0.4139  0.3059  0.7389
 3396TIP3    H210153   2.451   5.023   0.831 -0.4589  0.6070 -0.0805
 3397TIP3   OH210154   2.468   4.827   2.732  0.6246  0.4997 -0.0845
 3397TIP3    H110155   2.503   4.881   2.661  1.2170 -0.0522 -0.2195
 3397TIP3    H210156   2.373   4.834   2.722  0.6904  0.1768 -1.1489
 3398TIP3   OH210157   0.013   4.148   5.410 -0.1522 -0.1580 -0.0012
 3398TIP3    H110158   0.067   4.142   5.331 -2.0948 -0.6095 -1.4074
 3398TIP3    H210159  -0.026   4.235   5.406 -1.1435 -0.5941 -0.1952
 3399TIP3   OH210160   0.231   4.205   0.894 -0.1876 -0.1077 -0.2676
 3399TIP3    H110161   0.284   4.134   0.859 -0.7130 -0.2852 -0.7224
 3399TIP3    H210162   0.211   4.178   0.984 -2.0707 -1.5505 -1.0431
 3400TIP3   OH210163   5.004   1.175   4.691 -0.2404  0.3447  0.0276
 3400TIP3    H110164   4.985   1.260   4.730 -0.9547  0.2625 -0.1324
 3400TIP3    H210165   4.954   1.174   4.609  1.2668  0.5343 -0.9330
 3401TIP3   OH210166   2.288   3.836   5.505  0.7974  0.2183 -0.1964
 3401TIP3    H110167   2.330   3.839   5.590 -0.2964 -0.6552  0.4076
 3401TIP3    H210168   2.197   3.813   5.524  1.1268 -2.8399 -1.7207
 3402TIP3   OH210169   3.373   2.631   0.704 -0.1792 -0.3178  0.1805
 3402TIP3    H110170   3.437   2.702   0.697  1.1434 -1.6167 -1.9806
 3402TIP3    H210171   3.413   2.568   0.764  0.7566 -1.1979 -1.2815
 3403TIP3   OH210172   5.724   5.416   1.383 -0.1005  0.1408  0.5116
 3403TIP3    H110173   5.771   5.345   1.425  0.7038  0.4646  0.1754
 3403TIP3    H210174   5.775   5.495   1.403  0.5496  0.2566 -1.3749
 3404TIP3   OH210175   5.072   2.007   2.865 -0.2354  0.4630  0.0366
 3404TIP3    H110176   5.131   2.025   2.792  1.3327 -2.7298  0.3423
 3404TIP3    H210177   5.113   2.050   2.940  1.3502 -1.0196  0.0734
 3405TIP3   OH210178   2.255   2.989   5.730  0.1334  0.3966  0.1671
 3405TIP3    H110179   2.245   2.959   5.640 -0.4482  1.8826 -0.2869
 3405TIP3    H210180   2.334   2.943   5.761  0.5847  0.1694 -1.2242
 3406TIP3   OH210181   3.794   2.567   0.094  0.1448  0.1584  0.8695
 3406TIP3    H110182   3.812   2.474   0.106 -0.2275  0.2463  2.2120
 3406TIP3    H210183   3.880   2.609   0.099  0.2268 -0.0306  1.0686
 3407TIP3   OH210184   6.774   1.460   4.776 -0.4376 -0.8642 -0.2060
 3407TIP3    H110185   6.742   1.441   4.688 -0.8825 -0.3516 -0.1619
 3407TIP3    H210186   6.752   1.553   4.789  0.3571 -0.7183  0.1289
 3408TIP3   OH210187   3.188   0.880   2.301  0.7143 -0.3101  0.4030
 3408TIP3    H110188   3.157   0.843   2.218 -0.0552  1.3699 -0.0877
 3408TIP3    H210189   3.206   0.803   2.355 -2.9908 -1.5002  0.2544
 3409TIP3   OH210190   1.693   1.196   1.237  0.3326  0.1425 -0.7512
 3409TIP3    H110191   1.708   1.131   1.306  0.3117 -0.2083 -1.0753
 3409TIP3    H210192   1.601   1.220   1.246  0.5413  0.7400 -0.1056
 3410TIP3   OH210193   6.968   1.761   0.238 -0.1353  0.0402 -0.0451
 3410TIP3    H110194   6.919   1.779   0.158  0.5264 -0.0436 -0.4815
 3410TIP3    H210195   6.979   1.847   0.279  1.4312  0.4490 -1.1930
 3411TIP3   OH210196   6.394   0.484   3.818 -0.2618 -0.2961 -0.2601
 3411TIP3    H110197   6.370   0.393   3.798 -0.0792 -0.5974  0.8078
 3411TIP3    H210198   6.392   0.528   3.733  2.0451 -1.8383 -1.2076
 3412TIP3   OH210199   5.237   5.875   1.358 -0.0128 -0.2981  0.3211
 3412TIP3    H110200   5.290   5.807   1.400 -0.4582 -0.3765  0.7504
 3412TIP3    H210201   5.169   5.827   1.312 -0.8139 -0.1161  1.2883
 3413TIP3   OH210202   5.832   0.708   5.177  0.3976 -0.6803  0.1583
 3413TIP3    H110203   5.756   0.764   5.194  0.6736  0.3566 -1.7359
 3413TIP3    H210204   5.873   0.697   5.262 -1.3287 -0.4634  1.0624
 3414TIP3   OH210205   0.680   3.820   1.483 -0.4969 -0.1377 -0.3076
 3414TIP3    H110206   0.726   3.881   1.427 -1.1255  1.0131  0.3872
 3414TIP3    H210207   0.747   3.758   1.511  0.9133  1.9998  1.4059
 3415TIP3   OH210208   6.118   4.280   0.771  0.0038 -0.6675  0.3491
 3415TIP3    H110209   6.105   4.200   0.719  0.9827 -0.3561 -0.4017
 3415TIP3    H210210   6.103   4.252   0.861  0.8894 -1.8502  0.1567
 3416TIP3   OH210211   5.349   1.062   2.155  0.1625 -0.3332 -0.2560
 3416TIP3    H110212   5.343   1.017   2.239  1.6441 -0.8037 -0.3748
 3416TIP3    H210213   5.289   1.015   2.098  1.9346 -2.4711 -0.4804
 3417TIP3   OH210214   3.204   1.829   1.178 -0.6696 -0.0271 -0.0148
 3417TIP3    H110215   3.175   1.875   1.257  3.0541  0.6527  1.1195
 3417TIP3    H210216   3.226   1.741   1.209 -1.7110 -0.6137 -0.8918
 3418TIP3   OH210217   4.789   1.860   5.440 -0.5011 -0.1641  0.7226
 3418TIP3    H110218   4.858   1.922   5.461  0.2474 -0.5956 -0.3268
 3418TIP3    H210219   4.708   1.908   5.453  0.0631  1.3380 -0.8608
 3419TIP3   OH210220   6.083   4.704   4.999  0.0067  0.0992 -0.1078
 3419TIP3    H110221   6.079   4.789   4.955  0.2740  0.0585 -0.2112
 3419TIP3    H210222   6.001   4.660   4.975  0.6631 -0.3985 -1.5224
 3420TIP3   OH210223   6.168   1.294   2.986  0.3431 -0.1635  0.1413
 3420TIP3    H110224   6.174   1.388   2.968  1.4138  0.1010  1.7111
 3420TIP3    H210225   6.104   1.261   2.922 -2.1006  2.0658  1.2829
 3421TIP3   OH210226   2.885   6.524   5.807 -0.1237  0.0216 -0.1079
 3421TIP3    H110227   2.970   6.561   5.832  0.3430 -1.1300  0.0524
 3421TIP3    H210228   2.884   6.437   5.847 -1.9904  0.5515  1.1254
 3422TIP3   OH210229   1.278   4.771   3.559 -0.1454  0.4097 -0.3089
 3422TIP3    H110230   1.200   4.814   3.526 -0.1451  1.4678  1.0072
 3422TIP3    H210231   1.246   4.692   3.602 -0.4818  0.7888  0.1364
 3423TIP3   OH210232   5.917   4.842   3.456  0.0947  0.4787 -0.2799
 3423TIP3    H110233   5.919   4.926   3.502  0.4042  0.1238  0.3731
 3423TIP3    H210234   5.869   4.859   3.375  0.8539  1.4739 -0.5272
 3424TIP3   OH210235   5.459   3.604   1.130 -0.9603  0.3875 -1.1479
 3424TIP3    H110236   5.510   3.523   1.121 -0.4215  0.8161 -2.1447
 3424TIP3    H210237   5.370   3.574   1.149 -0.7587 -0.4409 -1.4371
 3425TIP3   OH210238   0.366   2.388   3.297  0.3384  0.2982 -0.3399
 3425TIP3    H110239   0.454   2.359   3.323 -0.1198 -0.6665  0.2038
 3425TIP3    H210240   0.333   2.437   3.372 -1.6657 -3.9428  1.9436
 3426TIP3   OH210241   0.633   6.318   5.291  0.4759  0.3142  0.3202
 3426TIP3    H110242   0.672   6.236   5.262  2.4311  1.6164 -0.9782
 3426TIP3    H210243   0.553   6.292   5.337  1.0733 -2.2879  0.0300
 3427TIP3   OH210244   2.431   1.299   3.243 -0.1086 -0.2611 -0.3123
 3427TIP3    H110245   2.391   1.299   3.156 -1.3207  1.1051  0.2154
 3427TIP3    H210246   2.392   1.224   3.287  0.6895 -1.1069 -0.9990
 3428TIP3   OH210247   6.569   6.726   2.115  0.4011 -0.2966  0.5915
 3428TIP3    H110248   6.546   6.768   2.032 -0.4622  0.2809  1.1066
 3428TIP3    H210249   6.537   6.637   2.107  1.7101 -0.7181 -0.2822
 3429TIP3   OH210250   3.526   1.001   1.004  0.0590  0.4304  0.6027
 3429TIP3    H110251   3.479   1.050   1.071 -0.8887  0.5819 -0.1487
 3429TIP3    H210252   3.557   1.067   0.943 -2.0914  0.0939 -0.9596
 3430TIP3   OH210253   0.287   3.455   4.723  0.1058  0.0045 -0.3704
 3430TIP3    H110254   0.360   3.515   4.736  1.0599 -1.5141  1.9371
 3430TIP3    H210255   0.235   3.463   4.803 -1.8449  0.4103 -1.5952
 3431TIP3   OH210256   2.593   2.130   4.495  0.5463  0.0742  0.1118
 3431TIP3    H110257   2.551   2.209   4.461 -1.0512 -1.4460 -1.7090
 3431TIP3    H210258   2.628   2.087   4.417  2.6521 -0.3805  1.2278
 3432TIP3   OH210259   6.213   5.948   3.682 -0.1635 -0.4690  0.2054
 3432TIP3    H110260   6.134   5.907   3.648 -0.4570 -0.9464  1.4275
 3432TIP3    H210261   6.239   5.893   3.756 -0.4389  1.4104  1.7589
 3433TIP3   OH210262   1.743   3.348   2.734  0.1454 -0.0441  0.6104
 3433TIP3    H110263   1.701   3.384   2.812  0.2279 -0.2239  0.7385
 3433TIP3    H210264   1.682   3.366   2.663  0.0430  0.0677  0.7272
 3434TIP3   OH210265   3.757   5.246   4.425  0.1175  0.5518  0.4705
 3434TIP3    H110266   3.673   5.281   4.398  0.3525 -2.0489 -4.8455
 3434TIP3    H210267   3.736   5.166   4.474 -0.5678  0.1776 -0.4164
 3435TIP3   OH210268   6.871   1.941   2.386  0.0913  0.2238 -0.6323
 3435TIP3    H110269   6.813   1.865   2.377 -0.0720  0.3590 -0.7337
 3435TIP3    H210270   6.830   1.995   2.453 -0.0075  0.4156 -0.8436
 3436TIP3   OH210271   6.177   4.800   3.380  0.3149 -0.6307 -0.0432
 3436TIP3    H110272   6.188   4.746   3.458  0.5473 -0.5367 -0.0084
 3436TIP3    H210273   6.082   4.807   3.369  0.2602  0.1420  0.7828
 3437TIP3   OH210274   3.323   0.324   0.154  0.0507 -0.1957  0.3336
 3437TIP3    H110275   3.401   0.279   0.119  0.2348  0.9101 -0.7396
 3437TIP3    H210276   3.250   0.281   0.110  0.0585 -0.9571  1.0327
 3438TIP3   OH210277   1.544   4.519   3.722 -1.0190  0.4912  0.0318
 3438TIP3    H110278   1.627   4.472   3.715 -0.2290  2.1048 -2.5944
 3438TIP3    H210279   1.537   4.542   3.815  1.1685 -0.1830  0.4038
 3439TIP3   OH210280   5.453   0.026   4.592 -0.5178 -0.2239  0.2089
 3439TIP3    H110281   5.411   0.108   4.620  1.1342  0.6625  0.1731
 3439TIP3    H210282   5.435   0.021   4.498 -0.3359  0.2858  0.1431
 3440TIP3   OH210283   4.609   2.484   3.728 -0.3523  0.3039 -0.2052
 3440TIP3    H110284   4.564   2.537   3.793 -0.2522  0.7334 -0.4860
 3440TIP3    H210285   4.702   2.495   3.749 -0.2680  1.2433 -1.0334
 3441TIP3   OH210286   6.869   0.290   0.809  0.3132 -0.4987  0.0679
 3441TIP3    H110287   6.810   0.365   0.821  0.0765 -0.4574 -1.1753
 3441TIP3    H210288   6.889   0.260   0.897  2.1038  2.3568  0.7687
 3442TIP3   OH210289   3.910   2.061   4.423 -0.2139  0.8108  0.4291
 3442TIP3    H110290   3.987   2.009   4.399 -0.2343  0.1015  1.8053
 3442TIP3    H210291   3.946   2.141   4.460 -0.1579  0.9138  0.1566
 3443TIP3   OH210292   0.605   0.800   3.764 -0.2463 -0.4613  0.3278
 3443TIP3    H110293   0.610   0.844   3.849 -0.0541 -0.1112  0.1342
 3443TIP3    H210294   0.696   0.783   3.741 -0.3359 -2.0043  0.9376
 3444TIP3   OH210295   6.550   6.175   5.275 -0.0801 -0.1890 -0.8435
 3444TIP3    H110296   6.559   6.139   5.187  0.8879  0.8566 -1.2040
 3444TIP3    H210297   6.618   6.242   5.280 -0.3232 -0.0194  0.5990
 3445TIP3   OH210298   3.840   0.881   5.185  0.4747 -0.4931 -0.1173
 3445TIP3    H110299   3.763   0.828   5.169  0.8784 -1.0851 -0.1408
 3445TIP3    H210300   3.913   0.820   5.178  1.0108  0.2136 -0.9175
 3446TIP3   OH210301   3.574   4.805   1.167 -0.0588 -0.3635 -0.5817
 3446TIP3    H110302   3.614   4.729   1.210  0.3437  0.8299  1.2500
 3446TIP3    H210303   3.648   4.853   1.130  0.0947  0.9217  1.2893
 3447TIP3   OH210304   1.035   5.194   1.763 -0.0205  0.0275  0.6858
 3447TIP3    H110305   1.119   5.148   1.770  0.2642  0.2210 -0.9818
 3447TIP3    H210306   1.044   5.270   1.821  1.8348  1.2504 -1.0437
 3448TIP3   OH210307   2.879   3.015   0.325  0.1689  0.3255 -0.0872
 3448TIP3    H110308   2.831   3.051   0.251  0.8908  1.5776  0.0347
 3448TIP3    H210309   2.842   3.058   0.402  0.3927  0.0962  0.1531
 3449TIP3   OH210310   3.181   5.544   2.980  0.3641 -0.0154  0.1857
 3449TIP3    H110311   3.236   5.551   2.902  0.0688  1.3818  0.0939
 3449TIP3    H210312   3.101   5.501   2.949 -0.3374  1.7956 -0.6109
 3450TIP3   OH210313   4.923   1.160   3.688  0.0639  0.3092  0.3423
 3450TIP3    H110314   4.888   1.231   3.634  0.1087  0.0402 -0.0449
 3450TIP3    H210315   4.919   1.194   3.777  0.4240  0.9382  0.1270
 3451TIP3   OH210316   4.492   4.681   5.005  0.4728  0.0150  0.1337
 3451TIP3    H110317   4.557   4.700   4.937  1.8469  1.2530  1.7147
 3451TIP3    H210318   4.411   4.668   4.956  1.2642  1.4740 -1.7308
 3452TIP3   OH210319   2.352   1.128   2.645  0.1249 -0.1368 -0.3086
 3452TIP3    H110320   2.365   1.126   2.550 -0.0733  0.8423 -0.3737
 3452TIP3    H210321   2.268   1.173   2.656  0.9750  1.3633  0.3633
 3453TIP3   OH210322   5.237   0.336   2.215 -0.4050 -0.2908  0.0936
 3453TIP3    H110323   5.245   0.311   2.123  0.8942  0.6362 -0.0747
 3453TIP3    H210324   5.255   0.430   2.217 -1.5421 -0.0659  1.1644
 3454TIP3   OH210325   3.811   0.963   4.845 -0.0530 -0.3951  0.1703
 3454TIP3    H110326   3.823   1.036   4.905  1.0561 -0.8417  0.4988
 3454TIP3    H210327   3.893   0.958   4.796  0.9823 -3.0579  1.9730
 3455TIP3   OH210328   0.948   3.237   5.511 -0.6051 -0.3606 -0.6667
 3455TIP3    H110329   0.986   3.150   5.502 -0.9089 -0.6415  0.5782
 3455TIP3    H210330   1.002   3.280   5.577 -0.8625  0.1550 -0.7881
 3456TIP3   OH210331   0.241   1.233   4.740 -0.4468 -0.2582  0.5363
 3456TIP3    H110332   0.283   1.164   4.688 -0.0557  1.4861 -1.6542
 3456TIP3    H210333   0.309   1.300   4.748 -1.3621  0.6210  1.0745
 3457TIP3   OH210334   1.413   4.310   3.573  0.0834  0.3331  0.4009
 3457TIP3    H110335   1.330   4.346   3.605 -0.4482 -1.0402  0.6400
 3457TIP3    H210336   1.480   4.364   3.615 -0.6745  0.9184  0.8851
 3458TIP3   OH210337   3.990   2.765   2.657 -0.4959 -0.0846 -0.4983
 3458TIP3    H110338   4.046   2.833   2.618  0.5934 -1.1331 -0.8137
 3458TIP3    H210339   3.903   2.806   2.662  0.1940  1.4345 -0.3967
 3459TIP3   OH210340   6.354   0.880   2.491  0.0324  0.4230 -0.3473
 3459TIP3    H110341   6.283   0.859   2.430  0.8195  1.0489 -1.4920
 3459TIP3    H210342   6.396   0.957   2.455  0.7806  0.5656  0.7749
 3460TIP3   OH210343   0.494   4.019   0.097  0.5963 -0.3173 -0.8145
 3460TIP3    H110344   0.428   3.950   0.112  1.8526 -0.9940  2.7016
 3460TIP3    H210345   0.455   4.097   0.136  0.5718  0.1292 -1.7196
 3461TIP3   OH210346   5.592   3.138   2.494 -0.5396 -0.3436 -0.3091
 3461TIP3    H110347   5.626   3.193   2.564 -1.5039 -0.8170  0.5419
 3461TIP3    H210348   5.671   3.098   2.455  0.0159  0.0600  0.3796
 3462TIP3   OH210349   1.176   0.393   3.897 -0.1913 -1.0459 -0.2772
 3462TIP3    H110350   1.186   0.349   3.982  1.1337 -0.3110 -0.0167
 3462TIP3    H210351   1.085   0.380   3.873 -0.1220 -2.9001  0.3540
 3463TIP3   OH210352   2.436   2.103   2.508  0.2327  0.0275 -0.4954
 3463TIP3    H110353   2.454   2.191   2.541  0.6672  0.8570 -2.7557
 3463TIP3    H210354   2.342   2.091   2.522 -0.1844  1.5721 -1.6290
 3464TIP3   OH210355   3.565   4.166   5.202  0.7129 -0.0323  0.1713
 3464TIP3    H110356   3.610   4.113   5.136  1.6057 -0.5915  1.2022
 3464TIP3    H210357   3.517   4.102   5.254  0.2523  0.3800  0.2493
 3465TIP3   OH210358   0.245   2.069   4.482 -0.0109  0.3187 -0.1907
 3465TIP3    H110359   0.169   2.012   4.496  0.2694  0.1941  0.8996
 3465TIP3    H210360   0.207   2.155   4.461 -0.4450  0.1701 -0.0182
 3466TIP3   OH210361   5.530   5.741   2.456 -0.3929  0.4379 -0.0200
 3466TIP3    H110362   5.522   5.754   2.550  0.8933  0.1142  0.1555
 3466TIP3    H210363   5.604   5.796   2.430  0.7574 -1.2015 -0.4134
 3467TIP3   OH210364   1.630   5.188   1.498 -0.6570  0.2878  0.9172
 3467TIP3    H110365   1.659   5.258   1.440 -1.7745 -0.0279 -0.0580
 3467TIP3    H210366   1.534   5.190   1.493 -0.7171 -2.3909 -0.5024
 3468TIP3   OH210367   0.878   0.044   5.813  0.1003  0.5586  0.2904
 3468TIP3    H110368   0.788   0.072   5.829 -0.0241  0.2519  0.1327
 3468TIP3    H210369   0.895   0.070   5.722  0.3174  1.0000  0.4530
 3469TIP3   OH210370   5.074   0.341   0.817 -0.1149  0.2000 -0.0295
 3469TIP3    H110371   5.146   0.279   0.828  1.3348  1.8445  0.1524
 3469TIP3    H210372   4.999   0.286   0.791  1.8432 -1.2742 -3.1007
 3470TIP3   OH210373   5.358   2.527   3.098 -0.0569  0.1381  0.1088
 3470TIP3    H110374   5.450   2.531   3.121 -0.1895  0.5836  0.5739
 3470TIP3    H210375   5.318   2.472   3.165  0.0161 -0.8161 -0.6038
 3471TIP3   OH210376   2.532   4.142   0.379  0.5367  0.2025 -0.4603
 3471TIP3    H110377   2.568   4.212   0.324  0.8257 -0.5695 -1.2645
 3471TIP3    H210378   2.509   4.186   0.461  3.1639  0.7472  0.0497
 3472TIP3   OH210379   3.803   5.493   1.491 -0.2709  0.6102  0.1300
 3472TIP3    H110380   3.852   5.552   1.549 -0.6712  1.2508 -0.1685
 3472TIP3    H210381   3.718   5.484   1.533 -1.4351  2.9963 -1.4858
 3473TIP3   OH210382   6.866   6.140   5.510 -0.3985  0.3064 -0.0073
 3473TIP3    H110383   6.853   6.234   5.504 -0.1347  0.3691  0.3409
 3473TIP3    H210384   6.857   6.108   5.420  3.4173  1.1830 -0.9045
 3474TIP3   OH210385   3.012   5.944   3.182  1.0079 -0.4795  0.3760
 3474TIP3    H110386   2.975   5.964   3.096  1.1109 -0.6284  0.2978
 3474TIP3    H210387   3.032   5.851   3.179  2.7818 -0.1097 -0.1189
 3475TIP3   OH210388   7.129   4.081   0.223 -0.2704  0.1883  0.3903
 3475TIP3    H110389   7.087   4.072   0.138  0.0371 -1.3936  0.3666
 3475TIP3    H210390   7.110   4.170   0.251 -2.2643  0.0394 -0.3417
 3476TIP3   OH210391   0.270   3.792   1.073 -0.7805 -0.4807 -0.3650
 3476TIP3    H110392   0.310   3.750   0.997 -0.1839 -0.2103 -0.2058
 3476TIP3    H210393   0.178   3.805   1.048 -0.7558 -1.0396 -0.7641
 3477TIP3   OH210394   3.313   3.590   5.816 -0.1843 -0.5125  0.3967
 3477TIP3    H110395   3.243   3.526   5.826 -0.0467 -0.7422 -0.0654
 3477TIP3    H210396   3.270   3.675   5.827 -0.9644 -0.5413 -1.8553
 3478TIP3   OH210397   3.522   1.098   0.548  1.0226  0.1520  0.5986
 3478TIP3    H110398   3.441   1.113   0.597  0.3006  1.8064 -1.0036
 3478TIP3    H210399   3.552   1.012   0.578 -1.9402 -1.0709  0.4338
 3479TIP3   OH210400   3.463   3.657   2.115 -0.1990 -0.0861 -0.3355
 3479TIP3    H110401   3.466   3.571   2.074 -1.3578 -0.4374  0.2669
 3479TIP3    H210402   3.538   3.704   2.079 -1.1376 -0.3468 -2.8500
 3480TIP3   OH210403   0.736   6.232   3.953  0.2737 -0.0542  0.3951
 3480TIP3    H110404   0.788   6.156   3.926 -2.9195 -1.3924 -2.7363
 3480TIP3    H210405   0.745   6.293   3.880 -0.2573  0.9630  1.1617
 3481TIP3   OH210406   4.229   2.328   3.193 -0.3498 -0.0046  0.0544
 3481TIP3    H110407   4.141   2.293   3.207 -0.1927  0.1917  1.6501
 3481TIP3    H210408   4.235   2.338   3.098 -2.9434  2.3120  0.0117
 3482TIP3   OH210409   1.424   3.743   3.370  0.1103 -0.4238  0.1109
 3482TIP3    H110410   1.358   3.762   3.436 -0.0703  0.2929 -0.2642
 3482TIP3    H210411   1.506   3.778   3.406 -0.2965  1.5568 -0.7623
 3483TIP3   OH210412   5.438   3.303   5.492 -0.2765 -0.7066  0.1520
 3483TIP3    H110413   5.391   3.314   5.409 -0.3672 -1.0141  0.1608
 3483TIP3    H210414   5.383   3.243   5.543 -0.4874 -0.0978  0.6457
 3484TIP3   OH210415   4.962   0.882   2.934  0.4012 -0.3796  0.1127
 3484TIP3    H110416   4.914   0.804   2.963  3.2198 -1.4881  2.1454
 3484TIP3    H210417   5.040   0.884   2.988  1.5383  2.6696 -1.4262
 3485TIP3   OH210418   5.453   4.932   4.103 -0.1107 -0.2234  0.4867
 3485TIP3    H110419   5.489   4.930   4.014 -0.6371 -0.6866  0.2785
 3485TIP3    H210420   5.407   4.848   4.112 -1.6735  0.5875  0.5096
 3486TIP3   OH210421   1.111   2.000   5.812 -0.1411 -0.3309  0.2627
 3486TIP3    H110422   1.184   1.941   5.796  0.8154  0.7977  0.3533
 3486TIP3    H210423   1.134   2.081   5.766 -1.8544 -0.3247 -0.6525
 3487TIP3   OH210424   1.566   6.297   4.916 -0.4749 -0.2873 -0.4966
 3487TIP3    H110425   1.658   6.279   4.936 -0.6457 -0.8248 -0.1528
 3487TIP3    H210426   1.537   6.354   4.987 -0.4088 -0.1284 -0.5979
 3488TIP3   OH210427   6.980   6.430   3.194  0.0771 -0.5390  0.2346
 3488TIP3    H110428   6.903   6.455   3.143  0.4750  0.4068  0.0713
 3488TIP3    H210429   7.053   6.440   3.132  0.3069 -1.7503  0.2820
 3489TIP3   OH210430   0.947   1.928   4.849  0.4703 -0.1898 -0.5835
 3489TIP3    H110431   0.858   1.962   4.841  0.5184  0.0125 -0.2801
 3489TIP3    H210432   0.954   1.863   4.780 -1.0977 -2.7980  1.4861
 3490TIP3   OH210433   2.970   5.223   2.441 -0.2658 -0.4197 -0.4977
 3490TIP3    H110434   2.975   5.128   2.430  0.0611 -0.4160 -0.3923
 3490TIP3    H210435   2.997   5.259   2.357  0.3954 -0.4132 -0.2879
 3491TIP3   OH210436   6.860   6.661   2.989  0.0687 -0.2941  0.4747
 3491TIP3    H110437   6.931   6.725   2.981 -0.9758  0.6911 -1.5570
 3491TIP3    H210438   6.783   6.706   2.956 -1.3271 -1.6934  1.6563
 3492TIP3   OH210439   2.305   5.246   0.987  0.3448  0.9072  0.0219
 3492TIP3    H110440   2.325   5.323   1.041 -0.1290 -0.2554  1.9513
 3492TIP3    H210441   2.390   5.212   0.961  0.6104  1.1605  0.5484
 3493TIP3   OH210442   6.177   1.171   4.798 -0.4390 -0.4732  0.2796
 3493TIP3    H110443   6.174   1.161   4.893 -1.8227 -0.3352  0.2586
 3493TIP3    H210444   6.250   1.231   4.783 -0.8241  0.2909  1.3244
 3494TIP3   OH210445   0.091   6.400   1.419  0.1441 -0.3114 -0.2415
 3494TIP3    H110446   0.125   6.468   1.360 -0.6726  0.4913  0.1901
 3494TIP3    H210447   0.001   6.387   1.392  0.7893 -2.5774 -1.5008
 3495TIP3   OH210448   0.880   0.465   0.906  0.1778  0.6644 -0.3900
 3495TIP3    H110449   0.830   0.417   0.840  1.5038 -0.9466 -0.2560
 3495TIP3    H210450   0.827   0.458   0.985  0.1800 -0.2400 -0.4666
 3496TIP3   OH210451   4.397   0.615   0.796  0.2148 -0.1199  0.5801
 3496TIP3    H110452   4.339   0.549   0.760  0.2969 -0.0765  0.3657
 3496TIP3    H210453   4.405   0.680   0.726  1.8621 -0.9462 -0.0612
 3497TIP3   OH210454   2.895   0.970   1.789 -0.1849  0.1056  0.2832
 3497TIP3    H110455   2.918   0.897   1.732  2.2756 -1.5183  3.0594
 3497TIP3    H210456   2.805   0.992   1.765  0.1777 -1.4420 -3.0359
 3498TIP3   OH210457   1.757   2.167   1.995  0.5363 -0.0567  0.0417
 3498TIP3    H110458   1.814   2.145   2.069 -0.3889  0.7013  1.0138
 3498TIP3    H210459   1.799   2.244   1.955  0.9026 -0.3114 -0.0714
 3499TIP3   OH210460   2.525   2.574   4.154  0.3088  0.2935  0.0178
 3499TIP3    H110461   2.431   2.563   4.140  0.2248 -0.3729  1.0231
 3499TIP3    H210462   2.531   2.622   4.237  0.8534  0.6600 -0.2297
 3500TIP3   OH210463   2.731   0.507   1.639  0.7024 -0.0502  0.1607
 3500TIP3    H110464   2.689   0.442   1.695  1.7900  0.8187  2.1046
 3500TIP3    H210465   2.701   0.486   1.551 -1.4095 -1.2469  1.0922
 3501TIP3   OH210466   1.140   0.730   3.655  0.0775 -0.2003 -0.1100
 3501TIP3    H110467   1.184   0.661   3.605  0.1160  0.0750 -0.4562
 3501TIP3    H210468   1.126   0.800   3.592 -0.9719 -0.3265 -0.0412
 3502TIP3   OH210469   4.974   1.494   3.738 -0.1243 -0.2079 -0.2492
 3502TIP3    H110470   4.883   1.491   3.768 -1.0561  0.5100 -2.7298
 3502TIP3    H210471   5.018   1.554   3.799 -1.1329 -1.0056  1.3228
 3503TIP3   OH210472   3.619   3.077   0.074  0.0792 -0.0938  0.4220
 3503TIP3    H110473   3.540   3.130   0.061  0.8901  0.9850 -0.3648
 3503TIP3    H210474   3.673   3.129   0.133 -0.0604 -1.1376  1.4963
 3504TIP3   OH210475   0.537   0.105   2.020  0.2367  0.4695 -0.4701
 3504TIP3    H110476   0.563   0.147   2.102  0.2379  0.4213 -0.4456
 3504TIP3    H210477   0.511   0.177   1.963 -0.8160  0.4304 -0.0580
 3505TIP3   OH210478   4.240   6.446   5.057  0.0004 -0.0402  0.2110
 3505TIP3    H110479   4.261   6.393   4.980 -0.9148  0.5265 -0.4526
 3505TIP3    H210480   4.203   6.527   5.021 -0.8675  0.0458  1.2543
 3506TIP3   OH210481   2.651   6.185   3.122  0.1311 -0.3276  0.3374
 3506TIP3    H110482   2.622   6.256   3.179 -2.1618 -0.6981 -0.2677
 3506TIP3    H210483   2.738   6.161   3.156 -0.0676  1.1430  2.0380
 3507TIP3   OH210484   6.439   5.868   5.121  0.3997 -0.4984  0.1822
 3507TIP3    H110485   6.503   5.801   5.096  1.4070  0.2621  0.6645
 3507TIP3    H210486   6.468   5.946   5.073  0.7526  0.2572  1.5880
 3508TIP3   OH210487   0.344   3.567   3.681 -0.6425  0.1857  0.3677
 3508TIP3    H110488   0.279   3.614   3.630 -0.3738  0.4088  0.2256
 3508TIP3    H210489   0.400   3.525   3.616  0.6461  1.7430  0.4139
 3509TIP3   OH210490   3.970   4.346   5.237 -0.7960  0.2615  0.1145
 3509TIP3    H110491   3.985   4.377   5.326 -2.8211 -1.1406  1.0096
 3509TIP3    H210492   3.876   4.328   5.233 -0.1714 -3.7762 -0.9141
 3510TIP3   OH210493   2.785   2.665   2.874 -0.0632 -0.1455 -0.4690
 3510TIP3    H110494   2.771   2.606   2.800  2.3509  2.0426 -2.8720
 3510TIP3    H210495   2.779   2.752   2.837  1.4163  1.0563  1.8850
 3511TIP3   OH210496   5.962   5.119   2.573 -0.9212  0.2155 -0.4905
 3511TIP3    H110497   5.984   5.193   2.629  0.7995 -0.3475 -0.3598
 3511TIP3    H210498   5.952   5.157   2.486 -2.0232  0.8594 -0.1106
 3512TIP3   OH210499   1.966   4.958   0.660  0.2285  0.6173  0.1795
 3512TIP3    H110500   1.871   4.959   0.675  0.5696  0.3549  2.8257
 3512TIP3    H210501   1.989   5.049   0.645 -0.5604  0.5426 -1.8146
 3513TIP3   OH210502   0.305   1.840   5.273  0.0006 -0.0748 -0.1577
 3513TIP3    H110503   0.245   1.768   5.289 -0.9775  0.7009 -0.2407
 3513TIP3    H210504   0.254   1.903   5.222  0.2572  1.4564  1.3680
 3514TIP3   OH210505   0.824   1.718   3.653 -0.1112  0.0616  0.1201
 3514TIP3    H110506   0.750   1.754   3.605 -1.2493 -0.9929  1.0283
 3514TIP3    H210507   0.785   1.671   3.727  1.2670 -2.6961 -0.7627
 3515TIP3   OH210508   4.583   5.438   0.476  0.5087  0.8517 -0.3601
 3515TIP3    H110509   4.568   5.460   0.384 -0.3894 -1.1884 -0.7516
 3515TIP3    H210510   4.507   5.385   0.500  2.3344 -1.5035  0.5463
 3516TIP3   OH210511   6.898   2.092   1.001  0.3371  0.0874  0.1321
 3516TIP3    H110512   6.806   2.092   1.025 -0.3800  0.1401 -2.3413
 3516TIP3    H210513   6.919   2.185   0.989  0.3847  0.0054 -0.4246
 3517TIP3   OH210514   0.583   2.141   0.495 -0.2872  0.1524  0.5176
 3517TIP3    H110515   0.562   2.227   0.531 -0.2836  0.3127  0.1400
 3517TIP3    H210516   0.505   2.115   0.446 -0.7347 -0.5746  1.5788
 3518TIP3   OH210517   5.915   4.207   3.019 -0.3327  0.3190  0.6496
 3518TIP3    H110518   5.886   4.247   2.937 -1.2858 -0.1630  0.7297
 3518TIP3    H210519   5.997   4.163   2.997 -0.2155  0.7906  0.1303
 3519TIP3   OH210520   0.334   2.024   0.409  0.3857 -0.5641 -0.3143
 3519TIP3    H110521   0.284   2.105   0.409  0.2193 -0.6665 -0.4906
 3519TIP3    H210522   0.287   1.966   0.348  0.8658 -0.5667 -0.6853
 3520TIP3   OH210523   5.469   3.018   4.359  0.0191  0.7733 -0.4300
 3520TIP3    H110524   5.437   3.033   4.270  0.9119  0.3682 -0.8278
 3520TIP3    H210525   5.558   2.984   4.348  0.2407  0.9554  0.6232
 3521TIP3   OH210526   3.302   1.331   2.762 -0.0453 -0.0742 -0.7129
 3521TIP3    H110527   3.370   1.382   2.808 -0.0021  0.3303 -1.2207
 3521TIP3    H210528   3.329   1.240   2.774 -1.7847 -0.3081  2.9631
 3522TIP3   OH210529   2.167   6.289   0.866  0.4045 -0.3219 -0.5610
 3522TIP3    H110530   2.112   6.348   0.815  1.6735  2.2643  0.8618
 3522TIP3    H210531   2.106   6.232   0.912 -1.0636  1.5424 -0.0857
 3523TIP3   OH210532   1.287   3.369   1.363  0.2551  0.1129  0.0318
 3523TIP3    H110533   1.233   3.425   1.308 -0.1430  0.0362  0.3459
 3523TIP3    H210534   1.350   3.428   1.403 -1.2422  0.6443  1.7244
 3524TIP3   OH210535   2.363   1.339   4.203  0.0630 -0.0507 -0.3008
 3524TIP3    H110536   2.299   1.401   4.167  0.8779  0.3796 -1.0497
 3524TIP3    H210537   2.349   1.341   4.297 -0.9626  0.1044 -0.4471
 3525TIP3   OH210538   5.297   2.478   4.429  0.2780  0.0060  0.4733
 3525TIP3    H110539   5.207   2.461   4.400  0.0570 -1.0680  1.6647
 3525TIP3    H210540   5.344   2.502   4.350 -1.0523  0.5826 -0.1787
 3526TIP3   OH210541   4.045   0.091   5.030 -0.7758  0.1016 -0.1988
 3526TIP3    H110542   4.101   0.056   4.961 -0.4341  0.4407 -0.1022
 3526TIP3    H210543   3.960   0.049   5.017 -1.6524  2.3431 -2.6885
 3527TIP3   OH210544   1.398   6.626   0.914 -0.1294  0.2568  0.0685
 3527TIP3    H110545   1.358   6.563   0.974 -1.6641 -1.8166 -2.8759
 3527TIP3    H210546   1.405   6.707   0.965 -2.7593 -0.9054  2.5406
 3528TIP3   OH210547   5.816   5.182   2.894  0.3656  0.2107 -0.2020
 3528TIP3    H110548   5.859   5.254   2.848 -0.0537 -0.1877 -1.2710
 3528TIP3    H210549   5.864   5.104   2.865  0.8634  0.0531  0.9997
 3529TIP3   OH210550   2.228   5.721   3.602 -0.5659  0.3238  0.0607
 3529TIP3    H110551   2.146   5.699   3.559 -1.2020  0.0867  1.3549
 3529TIP3    H210552   2.232   5.816   3.599 -0.3028  0.2982 -1.0202
 3530TIP3   OH210553   3.647   0.754   1.213  0.5150  0.7343  0.0098
 3530TIP3    H110554   3.631   0.693   1.285  0.3247 -1.0143 -1.4478
 3530TIP3    H210555   3.559   0.780   1.184  0.4676 -0.9484 -1.4933
 3531TIP3   OH210556   6.767   1.217   5.315 -0.5215 -0.6313 -0.4461
 3531TIP3    H110557   6.741   1.292   5.368 -1.4130 -1.1954 -0.0615
 3531TIP3    H210558   6.841   1.249   5.264 -0.6142  0.3810  0.0162
 3532TIP3   OH210559   5.542   0.895   2.314  0.3825  0.4028 -0.8194
 3532TIP3    H110560   5.637   0.886   2.321  0.1601 -1.2945  0.7925
 3532TIP3    H210561   5.526   0.900   2.220  1.8780 -2.4453 -1.3579
 3533TIP3   OH210562   5.812   0.049   5.321 -0.5655 -0.2575 -0.1396
 3533TIP3    H110563   5.801  -0.031   5.269 -0.1788 -0.1811 -0.3412
 3533TIP3    H210564   5.852   0.019   5.403 -1.7765 -0.4695  0.3976
 3534TIP3   OH210565   6.385   4.556   1.861 -0.3638  0.5206  0.2529
 3534TIP3    H110566   6.338   4.478   1.890 -0.6398  0.9418  0.9615
 3534TIP3    H210567   6.319   4.625   1.864  0.2882  1.1112  1.2136
 3535TIP3   OH210568   4.606   2.015   5.580  0.4152 -0.1842  0.3420
 3535TIP3    H110569   4.512   2.010   5.564  0.3899 -0.2641  0.5078
 3535TIP3    H210570   4.621   2.103   5.615  0.0084 -0.9805  2.7436
 3536TIP3   OH210571   5.766   5.704   3.333 -0.4710  0.6075 -0.1665
 3536TIP3    H110572   5.812   5.621   3.319  0.2024  0.9403  0.0442
 3536TIP3    H210573   5.748   5.706   3.427  0.6228  1.2555  0.0510
 3537TIP3   OH210574   4.832   2.986   4.285  0.2872 -0.2255 -0.4749
 3537TIP3    H110575   4.803   3.034   4.207 -1.6904  1.7135  1.3171
 3537TIP3    H210576   4.832   3.051   4.355 -2.2630 -2.6865  2.0741
 3538TIP3   OH210577   1.624   2.244   4.506 -0.5597 -0.4114  0.2370
 3538TIP3    H110578   1.603   2.150   4.505  1.9698 -1.0480 -1.2001
 3538TIP3    H210579   1.539   2.287   4.495 -1.6555 -2.5722 -0.4047
 3539TIP3   OH210580   5.803   2.056   1.127 -0.5159  0.5511  0.0956
 3539TIP3    H110581   5.877   1.997   1.141 -0.7684 -0.1882 -1.3890
 3539TIP3    H210582   5.835   2.142   1.154  0.9759  0.2888 -0.7104
 3540TIP3   OH210583   2.114   6.764   1.484  0.6627  0.6787  0.2685
 3540TIP3    H110584   2.157   6.845   1.455 -0.6241  0.9668 -0.9669
 3540TIP3    H210585   2.125   6.704   1.410 -0.6811  0.6383  0.0780
 3541TIP3   OH210586   4.665   6.346   1.821 -0.0728  0.1326  0.4993
 3541TIP3    H110587   4.655   6.434   1.784 -0.5501  0.5485  1.5579
 3541TIP3    H210588   4.749   6.350   1.867 -0.3570  0.2251  1.0204
 3542TIP3   OH210589   3.957   3.302   4.152  0.4072  0.2707 -0.0948
 3542TIP3    H110590   3.881   3.255   4.185  0.9841  0.1522  1.0938
 3542TIP3    H210591   3.925   3.346   4.073 -1.1389  0.9648  0.8745
 3543TIP3   OH210592   2.292   5.573   3.852  0.2973 -0.4903  0.3766
 3543TIP3    H110593   2.324   5.597   3.939 -0.8486 -0.6934  0.8678
 3543TIP3    H210594   2.208   5.530   3.868 -0.4734  0.4809 -0.9208
 3544TIP3   OH210595   6.947   1.598   5.088 -0.3718 -0.6911 -0.2137
 3544TIP3    H110596   7.022   1.586   5.030 -0.3927 -1.0386 -0.1713
 3544TIP3    H210597   6.885   1.530   5.060 -0.8166 -0.1728 -0.4913
 3545TIP3   OH210598   4.863   6.439   0.436 -0.2754 -0.3891 -0.3071
 3545TIP3    H110599   4.847   6.533   0.432 -2.0760 -0.6896 -2.7984
 3545TIP3    H210600   4.850   6.415   0.528 -3.0879  1.3258 -0.1679
 3546TIP3   OH210601   3.747   0.949   4.118  0.3973 -0.0646  0.0002
 3546TIP3    H110602   3.782   1.011   4.054  2.7045  0.5948  1.7383
 3546TIP3    H210603   3.690   1.002   4.174 -0.7617 -0.4063 -0.8355
 3547TIP3   OH210604   2.973   5.138   2.711  0.3124 -0.4768  0.1526
 3547TIP3    H110605   2.886   5.124   2.750  0.8081 -2.6670  0.6260
 3547TIP3    H210606   2.955   5.168   2.622 -0.8679  1.9956  1.1384
 3548TIP3   OH210607   2.805   2.307   0.381 -0.3329 -0.0336  0.2985
 3548TIP3    H110608   2.793   2.375   0.447 -1.7833  1.1535 -1.0980
 3548TIP3    H210609   2.732   2.247   0.393 -1.5555  1.0761 -1.1720
 3549TIP3   OH210610   2.656   5.411   4.516  0.6612  0.1648 -0.5274
 3549TIP3    H110611   2.720   5.342   4.496  0.3981  0.2333 -1.6648
 3549TIP3    H210612   2.609   5.378   4.593  2.9918  0.7533  1.2429
 3550TIP3   OH210613   2.340   1.288   4.496  0.0880  0.4649 -0.3597
 3550TIP3    H110614   2.331   1.313   4.588 -0.9267  4.8881 -1.4348
 3550TIP3    H210615   2.259   1.242   4.476  1.2891 -2.7511  1.3248
 3551TIP3   OH210616   3.382   2.721   2.155 -0.1945  0.3186  0.0776
 3551TIP3    H110617   3.459   2.696   2.103 -0.6896  0.2917 -0.6508
 3551TIP3    H210618   3.338   2.787   2.102 -1.2025 -0.3684  0.0473
 3552TIP3   OH210619   3.177   2.326   0.477  0.7566  0.4472  0.2783
 3552TIP3    H110620   3.245   2.325   0.410  1.1147  1.5947  0.5987
 3552TIP3    H210621   3.224   2.344   0.559 -0.0290  2.7126  0.3137
 3553TIP3   OH210622   6.642   3.101   3.932 -0.2986  0.1096  0.3507
 3553TIP3    H110623   6.585   3.133   3.862 -0.2170  2.1098  1.1204
 3553TIP3    H210624   6.638   3.170   3.999  5.9276  2.5123 -1.0564
 3554TIP3   OH210625   2.922   5.054   5.417  0.4738  0.0102  0.4462
 3554TIP3    H110626   2.989   5.027   5.480  0.7512  1.1382  0.6615
 3554TIP3    H210627   2.964   5.043   5.332  0.5600 -0.2769  0.5241
 3555TIP3   OH210628   3.026   3.593   3.908  0.3321  0.3748 -0.7565
 3555TIP3    H110629   3.028   3.679   3.951  1.7109  0.9222 -1.8460
 3555TIP3    H210630   3.106   3.590   3.856 -0.0869 -1.2629 -1.3684
 3556TIP3   OH210631   5.152   1.854   4.179 -0.2524  0.4837  0.0064
 3556TIP3    H110632   5.067   1.812   4.193 -0.9926  1.7904 -0.3627
 3556TIP3    H210633   5.216   1.790   4.210 -1.4167 -0.1134  1.2773
 3557TIP3   OH210634   5.183   6.003   4.663 -0.3102 -0.1935  0.0153
 3557TIP3    H110635   5.246   5.957   4.608 -1.3545 -0.2511 -1.1777
 3557TIP3    H210636   5.218   5.994   4.752  2.0430  0.9334 -0.7127
 3558TIP3   OH210637   3.925   4.807   2.338 -0.4038 -0.2964  0.3656
 3558TIP3    H110638   3.962   4.802   2.250 -0.5007  1.0512  0.2222
 3558TIP3    H210639   4.000   4.794   2.396 -0.8374 -5.0951  0.2439
 3559TIP3   OH210640   1.548   5.274   0.570  0.9591 -0.4578 -0.6875
 3559TIP3    H110641   1.584   5.210   0.508  2.0762 -0.3426 -0.1921
 3559TIP3    H210642   1.603   5.352   0.558  0.0517  0.1802 -0.7985
 3560TIP3   OH210643   5.304   3.862   3.610  0.6071  0.3690  0.1456
 3560TIP3    H110644   5.276   3.954   3.618  1.4288  0.5853  0.6689
 3560TIP3    H210645   5.266   3.820   3.687 -0.2085  0.1388 -0.3644
 3561TIP3   OH210646   5.882   0.248   3.275 -0.4352 -0.3362  0.4334
 3561TIP3    H110647   5.791   0.222   3.267 -0.3700 -1.0892  1.8010
 3561TIP3    H210648   5.892   0.272   3.368  1.0078 -1.2843  0.5531
 3562TIP3   OH210649   6.799   0.926   5.345 -0.4765 -0.6830 -0.0856
 3562TIP3    H110650   6.778   0.900   5.435  0.5852  2.1608  1.0964
 3562TIP3    H210651   6.753   1.009   5.333  0.8994 -0.0755 -1.4638
 3563TIP3   OH210652   5.948   2.883   5.315 -0.0204 -0.0591 -0.3953
 3563TIP3    H110653   5.889   2.840   5.252  0.6463 -0.3991 -0.7958
 3563TIP3    H210654   5.906   2.868   5.400  0.6710 -2.4071 -0.3863
 3564TIP3   OH210655   4.142   5.061   4.049  0.1884 -0.0917  0.7070
 3564TIP3    H110656   4.211   5.048   4.113  0.8841  1.3105  0.2744
 3564TIP3    H210657   4.181   5.037   3.965 -0.7743 -2.1077  0.7802
 3565TIP3   OH210658   1.858   4.718   1.928 -0.2292 -0.2140 -0.0731
 3565TIP3    H110659   1.918   4.645   1.911 -0.6746  0.0015 -3.4147
 3565TIP3    H210660   1.891   4.789   1.872 -1.5706  1.0957  0.7295
 3566TIP3   OH210661   4.715   6.506   0.948 -0.4370 -0.3919 -0.6384
 3566TIP3    H110662   4.702   6.599   0.967 -0.6984 -0.0482 -2.3451
 3566TIP3    H210663   4.810   6.494   0.954 -0.4829 -0.2917  0.6560
 3567TIP3   OH210664   0.702   0.256   4.096  0.1937 -0.6686 -0.2004
 3567TIP3    H110665   0.738   0.344   4.088  0.2965 -0.7102 -0.2028
 3567TIP3    H210666   0.779   0.199   4.101  0.1278 -0.7603 -0.2245
 3568TIP3   OH210667   5.678   0.273   2.608 -0.2135 -0.0095  0.0506
 3568TIP3    H110668   5.636   0.190   2.586 -0.0602 -0.8806  2.7429
 3568TIP3    H210669   5.613   0.319   2.662  0.6251  0.5558  0.6000
 3569TIP3   OH210670   1.493   0.031   4.794 -0.2263 -0.1160 -0.3737
 3569TIP3    H110671   1.445   0.084   4.858 -0.7246  1.7915 -2.2238
 3569TIP3    H210672   1.470  -0.059   4.817  0.5296  0.3645  2.7997
 3570TIP3   OH210673   2.423   0.848   1.565  0.1355 -0.1582  0.2550
 3570TIP3    H110674   2.392   0.936   1.588  2.0846  1.2696 -2.0100
 3570TIP3    H210675   2.348   0.806   1.523 -0.4234  1.0059  0.0469
 3571TIP3   OH210676   6.354   4.583   0.591  0.3686 -0.1032  0.2235
 3571TIP3    H110677   6.414   4.535   0.534  0.5931  0.8039 -0.3356
 3571TIP3    H210678   6.407   4.605   0.668  0.1348 -1.1180  0.6918
 3572TIP3   OH210679   1.748   1.141   3.565  0.6927  0.5982  0.1918
 3572TIP3    H110680   1.655   1.127   3.581  0.7633  0.3267  0.3810
 3572TIP3    H210681   1.789   1.056   3.584  0.9495  0.6510 -0.1116
 3573TIP3   OH210682   0.904   4.276   2.332 -0.5860 -0.0492  0.3921
 3573TIP3    H110683   0.973   4.252   2.271 -0.6049  0.3154  0.2207
 3573TIP3    H210684   0.909   4.372   2.337  0.0634 -0.1301  1.7274
 3574TIP3   OH210685   6.971   3.703   5.861  0.9084  0.1464  0.5928
 3574TIP3    H110686   6.911   3.655   5.805  0.1131 -1.8005  2.9186
 3574TIP3    H210687   7.018   3.762   5.802 -2.3861  0.9109 -1.5373
 3575TIP3   OH210688   3.690   1.320   2.820 -0.2468  0.0991 -0.0657
 3575TIP3    H110689   3.638   1.400   2.808  0.9706  0.9476  0.1431
 3575TIP3    H210690   3.632   1.249   2.791 -1.1874  1.0903 -0.6833
 3576TIP3   OH210691   6.496   4.418   3.827 -0.5417  0.3012 -0.5509
 3576TIP3    H110692   6.554   4.343   3.818 -0.0886  0.4622  0.7522
 3576TIP3    H210693   6.485   4.451   3.738  0.6342 -0.2827 -0.9394
 3577TIP3   OH210694   3.481   0.892   3.365 -0.0767  0.1339  0.3660
 3577TIP3    H110695   3.532   0.825   3.411  0.4676  0.5321  0.3468
 3577TIP3    H210696   3.536   0.918   3.291  0.2857  1.5017  1.0782
 3578TIP3   OH210697   0.661   0.488   3.771 -0.0164 -0.9874 -0.5320
 3578TIP3    H110698   0.629   0.574   3.746 -0.5314 -0.8092  0.6686
 3578TIP3    H210699   0.701   0.501   3.857  0.3713 -1.8503 -0.5658
 3579TIP3   OH210700   4.763   3.767   2.550 -0.1570  0.0551  0.5563
 3579TIP3    H110701   4.723   3.693   2.596  0.8624  0.1405  1.6282
 3579TIP3    H210702   4.729   3.761   2.461 -2.6226  0.2179  1.4166
 3580TIP3   OH210703   6.225   1.229   2.508  0.4501  0.0195  0.7358
 3580TIP3    H110704   6.265   1.245   2.593  0.6166 -3.7415  1.5567
 3580TIP3    H210705   6.299   1.215   2.449  0.4655 -2.1843  1.1786
 3581TIP3   OH210706   6.908   1.128   0.898  1.0670  0.1066 -0.4097
 3581TIP3    H110707   6.897   1.041   0.860  2.0493  0.0686 -0.6317
 3581TIP3    H210708   6.876   1.188   0.831 -1.2411 -0.1252  0.4046
 3582TIP3   OH210709   0.106   1.972   1.249  0.2984  0.1672 -0.1104
 3582TIP3    H110710   0.132   1.954   1.340  0.0077  1.0114  0.1511
 3582TIP3    H210711   0.130   2.063   1.235  1.4501 -0.3020 -1.2975
 3583TIP3   OH210712   2.057   3.047   1.888  0.2758  0.1534 -0.1352
 3583TIP3    H110713   2.073   3.134   1.851  0.7004  0.5569  0.9767
 3583TIP3    H210714   2.071   3.057   1.982  1.4813 -1.3884 -0.1130
 3584TIP3   OH210715   2.822   4.773   2.824  0.0101 -0.0571  0.3056
 3584TIP3    H110716   2.813   4.868   2.838  1.5565  0.1373  0.0943
 3584TIP3    H210717   2.751   4.735   2.876 -0.7224  1.2159  0.2870
 3585TIP3   OH210718   2.499   6.414   2.592 -0.8039  0.1257  0.1803
 3585TIP3    H110719   2.455   6.488   2.549 -1.7440 -0.3720  0.2635
 3585TIP3    H210720   2.445   6.338   2.570  0.7915 -0.7543 -0.9044
 3586TIP3   OH210721   2.180   1.291   3.606  0.0526  0.0972 -0.1417
 3586TIP3    H110722   2.102   1.238   3.618 -2.1872  2.6442 -2.0677
 3586TIP3    H210723   2.161   1.373   3.653  1.5788  0.7656 -0.6109
 3587TIP3   OH210724   4.422   2.322   2.683  0.2539 -0.1168 -0.1984
 3587TIP3    H110725   4.377   2.249   2.642  0.5758  0.8937 -2.5200
 3587TIP3    H210726   4.353   2.383   2.708  0.0727 -0.6432  0.6385
 3588TIP3   OH210727   6.871   0.591   2.512 -0.0954  0.0283 -0.5122
 3588TIP3    H110728   6.890   0.566   2.602 -0.6944  2.0313  0.2427
 3588TIP3    H210729   6.894   0.514   2.459 -1.8617 -2.0470  1.5408
 3589TIP3   OH210730   1.883   6.703   2.993 -0.1016  0.1039 -0.6975
 3589TIP3    H110731   1.866   6.709   2.899 -0.4423 -0.1230 -0.6530
 3589TIP3    H210732   1.896   6.610   3.010 -1.2414 -0.0017 -0.3274
 3590TIP3   OH210733   0.460   3.887   2.179 -0.4866  0.4843 -0.2652
 3590TIP3    H110734   0.514   3.858   2.252 -1.8017  1.5125  1.1723
 3590TIP3    H210735   0.476   3.822   2.110 -0.4268 -1.4296  1.4603
 3591TIP3   OH210736   6.616   1.982   3.031  0.1133 -0.0032  0.2705
 3591TIP3    H110737   6.618   2.041   3.106  2.2208 -1.1284  1.1534
 3591TIP3    H210738   6.610   2.041   2.955  3.1869  1.4941  1.0520
 3592TIP3   OH210739   3.739   2.037   0.162 -0.2039 -0.0958 -0.1062
 3592TIP3    H110740   3.788   1.989   0.229  2.2384  1.6111 -0.5329
 3592TIP3    H210741   3.763   1.994   0.080 -0.8105 -0.3237 -0.1666
 3593TIP3   OH210742   3.407   3.141   4.336 -0.3482 -0.2407  0.0306
 3593TIP3    H110743   3.438   3.071   4.279  1.4287  0.2388  0.3480
 3593TIP3    H210744   3.429   3.111   4.425  0.7460  0.8521  0.1418
 3594TIP3   OH210745   6.325   6.617   1.381 -0.0454 -0.1464 -0.3413
 3594TIP3    H110746   6.416   6.593   1.393 -0.6113 -1.6323  1.3069
 3594TIP3    H210747   6.322   6.711   1.398  0.7113 -0.5973  2.7584
 3595TIP3   OH210748   4.637   2.220   5.815  0.3228  0.4200  0.4752
 3595TIP3    H110749   4.719   2.241   5.860  0.2014 -0.4829  1.1428
 3595TIP3    H210750   4.585   2.173   5.880  0.2158 -1.0774 -0.6520
 3596TIP3   OH210751   3.464   6.482   0.944 -0.1944  0.1852  0.0886
 3596TIP3    H110752   3.470   6.396   0.904  0.3580  0.1744  0.1921
 3596TIP3    H210753   3.506   6.541   0.881 -0.6382  0.3909 -0.0166
 3597TIP3   OH210754   6.263   5.643   0.279  0.5587  0.6093 -0.0921
 3597TIP3    H110755   6.172   5.623   0.303  0.8307  0.7762  1.1819
 3597TIP3    H210756   6.258   5.724   0.230 -0.0077  0.4622 -0.2810
 3598TIP3   OH210757   5.318   5.667   0.455 -0.0659 -0.2890  0.4128
 3598TIP3    H110758   5.389   5.624   0.502 -0.6308 -0.2002  1.3834
 3598TIP3    H210759   5.260   5.595   0.429 -0.7972 -0.1861  1.6714
 3599TIP3   OH210760   5.267   5.625   4.062  0.1005  0.2047  0.9356
 3599TIP3    H110761   5.350   5.619   4.109  0.0011 -0.1824  1.0638
 3599TIP3    H210762   5.203   5.650   4.129 -0.2665 -1.5205  1.2743
 3600TIP3   OH210763   2.092   2.442   1.317 -0.3605  0.2307  0.5853
 3600TIP3    H110764   2.111   2.424   1.409  0.8366 -1.3227  0.0683
 3600TIP3    H210765   2.167   2.493   1.287  0.0807 -0.7069  0.0603
 3601TIP3   OH210766   1.137   4.970   3.037 -0.4667 -0.4804 -0.6216
 3601TIP3    H110767   1.106   4.971   2.947 -0.4201 -0.8022 -0.6427
 3601TIP3    H210768   1.113   4.884   3.070  1.5236 -1.2552 -1.0427
 3602TIP3   OH210769   6.068   6.402   4.813  0.4025  0.2211  0.4239
 3602TIP3    H110770   6.117   6.320   4.820 -1.3772 -0.9015  0.2899
 3602TIP3    H210771   6.077   6.427   4.721 -0.5997 -0.8670  0.0092
 3603TIP3   OH210772   1.198   5.379   1.594  1.1306 -0.1210 -0.1728
 3603TIP3    H110773   1.238   5.455   1.636  1.1878 -1.0509  1.5404
 3603TIP3    H210774   1.121   5.359   1.647 -0.9497  0.8108 -2.6383
 3604TIP3   OH210775   6.604   5.361   1.413  0.1129 -0.4337  0.0841
 3604TIP3    H110776   6.565   5.338   1.497  2.8011 -1.3143  1.2186
 3604TIP3    H210777   6.631   5.452   1.424 -2.6729  0.6692 -1.2217
 3605TIP3   OH210778   3.141   5.473   1.290  0.2609 -0.8748 -0.6152
 3605TIP3    H110779   3.208   5.541   1.301 -1.3106  0.7860 -0.6930
 3605TIP3    H210780   3.082   5.508   1.223  1.4822 -4.1410 -3.6947
 3606TIP3   OH210781   3.510   4.618   2.797  0.5820 -0.5103 -0.4045
 3606TIP3    H110782   3.472   4.679   2.733 -2.0369 -0.7178  0.8190
 3606TIP3    H210783   3.594   4.593   2.759  0.7712  2.1347 -2.0029
 3607TIP3   OH210784   1.913   4.126   1.459 -0.0557 -0.2153 -0.6416
 3607TIP3    H110785   1.878   4.163   1.378  0.1280  3.7112  0.8763
 3607TIP3    H210786   1.853   4.156   1.527  2.1528  0.3594  1.1594
 3608TIP3   OH210787   6.615   5.382   3.192 -0.3052 -0.4246  0.2971
 3608TIP3    H110788   6.650   5.301   3.227 -2.2457 -1.2693  0.4316
 3608TIP3    H210789   6.553   5.412   3.258  0.2101  1.0612  0.1410
 3609TIP3   OH210790   6.691   3.605   5.205  0.7145  0.2099  0.2132
 3609TIP3    H110791   6.681   3.521   5.162 -0.4931  0.0541  0.7505
 3609TIP3    H210792   6.784   3.626   5.197  0.7079 -0.2995 -1.5185
 3610TIP3   OH210793   5.729   3.485   2.197  0.6853 -0.4717 -0.0317
 3610TIP3    H110794   5.699   3.534   2.273  0.2296  0.7255 -0.9596
 3610TIP3    H210795   5.773   3.409   2.234 -0.7039 -0.6332  1.4153
 3611TIP3   OH210796   2.731   6.668   1.521  0.3165  0.0604 -0.4445
 3611TIP3    H110797   2.822   6.638   1.514  0.8133  1.8352 -2.7670
 3611TIP3    H210798   2.693   6.650   1.436 -0.9947  0.8853 -0.0577
 3612TIP3   OH210799   2.084   3.311   1.747 -0.2043  0.6328 -0.5160
 3612TIP3    H110800   1.999   3.350   1.727 -0.1976  0.6800 -0.4545
 3612TIP3    H210801   2.146   3.382   1.737 -0.3509  1.0017  0.9304
 3613TIP3   OH210802   1.882   6.176   0.625 -0.1943  0.3116  0.3195
 3613TIP3    H110803   1.975   6.179   0.603 -0.0533 -0.5487  0.7751
 3613TIP3    H210804   1.876   6.114   0.697 -1.0838  0.6085  0.5117
 3614TIP3   OH210805   6.084   2.737   1.377 -0.5914 -0.8083  0.2361
 3614TIP3    H110806   6.038   2.653   1.383 -1.7774 -0.1395  0.6341
 3614TIP3    H210807   6.020   2.802   1.403  0.2767  0.2541 -0.2047
 3615TIP3   OH210808   4.034   2.534   2.807 -0.8037 -0.1423  0.0120
 3615TIP3    H110809   4.016   2.545   2.900  2.9804  0.5440  0.8418
 3615TIP3    H210810   4.036   2.624   2.772  1.1536 -0.1116  0.1110
 3616TIP3   OH210811   6.137   0.815   2.314  0.4119 -0.5050 -0.3708
 3616TIP3    H110812   6.099   0.750   2.255  2.2290 -0.0138 -2.1896
 3616TIP3    H210813   6.097   0.898   2.286 -0.8172 -0.6077  0.9892
 3617TIP3   OH210814   3.706   6.113   0.769 -0.0528 -0.3105  0.2363
 3617TIP3    H110815   3.663   6.057   0.834  0.8113 -0.7595  0.4284
 3617TIP3    H210816   3.728   6.193   0.816  0.5801 -0.6390  0.5043
 3618TIP3   OH210817   1.955   4.575   2.947 -0.0367 -0.1346 -0.6074
 3618TIP3    H110818   1.994   4.547   2.865  0.8521  0.2531 -0.3270
 3618TIP3    H210819   1.861   4.563   2.934  0.0895 -0.0633 -1.6833
 3619TIP3   OH210820   2.991   2.471   2.423  0.6741  0.5463 -0.0668
 3619TIP3    H110821   2.969   2.437   2.510  0.5515  0.9395  0.0592
 3619TIP3    H210822   3.020   2.394   2.373  2.3633  0.5433  0.8323
 3620TIP3   OH210823   4.446   4.635   4.507  0.1277  0.4587 -0.0163
 3620TIP3    H110824   4.503   4.643   4.431  0.0223 -0.2939 -0.1829
 3620TIP3    H210825   4.438   4.725   4.540 -0.8824  1.0435 -1.6707
 3621TIP3   OH210826   6.045   2.098   0.030 -0.1218  0.4949 -0.1925
 3621TIP3    H110827   5.959   2.103  -0.011 -0.1424 -1.1514 -0.4073
 3621TIP3    H210828   6.028   2.103   0.124 -0.3787  0.9769 -0.2662
 3622TIP3   OH210829   1.168   1.627   0.627  0.2082 -0.1600 -0.4768
 3622TIP3    H110830   1.258   1.626   0.659  0.2064  0.6550 -0.4326
 3622TIP3    H210831   1.124   1.693   0.681  0.4239  1.9358 -2.6846
 3623TIP3   OH210832   1.706   0.657   2.947  0.2115  0.2530 -0.8504
 3623TIP3    H110833   1.752   0.578   2.917  1.6302  0.4835  0.5274
 3623TIP3    H210834   1.772   0.704   2.999 -2.0298 -0.2828  2.8166
 3624TIP3   OH210835   4.553   2.427   4.799 -0.1178  0.1763  0.5263
 3624TIP3    H110836   4.499   2.371   4.854 -0.9484 -0.5690 -0.9848
 3624TIP3    H210837   4.492   2.491   4.762  0.7676  1.9515  1.9950
 3625TIP3   OH210838   5.101   0.597   4.812  0.7405 -0.0500 -0.1334
 3625TIP3    H110839   5.039   0.639   4.753 -1.6791  0.5946  2.6380
 3625TIP3    H210840   5.187   0.612   4.772 -0.6484  1.2155 -2.8656
 3626TIP3   OH210841   0.207   2.857   4.904  0.3696 -0.1139 -0.3665
 3626TIP3    H110842   0.287   2.910   4.904  0.6494 -0.5227 -0.1147
 3626TIP3    H210843   0.136   2.919   4.891  0.8344  0.0771 -2.4244
 3627TIP3   OH210844   1.981   1.050   0.946 -0.1258  0.3484  0.0364
 3627TIP3    H110845   2.002   1.135   0.906 -0.2050  1.0198  1.3715
 3627TIP3    H210846   2.065   1.012   0.968 -0.0807 -0.0354 -0.7496
 3628TIP3   OH210847   1.748   0.282   2.194  0.1305  0.3740 -0.0548
 3628TIP3    H110848   1.654   0.272   2.176  0.0999  2.5388 -1.4555
 3628TIP3    H210849   1.790   0.214   2.140 -0.6080 -0.9075  0.9275
 3629TIP3   OH210850   5.175   3.402   2.351  0.3585 -0.5195 -0.3388
 3629TIP3    H110851   5.170   3.496   2.367  1.3164 -0.6733  1.0216
 3629TIP3    H210852   5.100   3.383   2.295 -0.1706  0.9594 -0.1700
 3630TIP3   OH210853   6.592   5.497   5.456  0.1260 -0.1827 -0.1906
 3630TIP3    H110854   6.599   5.404   5.475 -0.0857  0.0681  1.2594
 3630TIP3    H210855   6.504   5.509   5.421  0.2443 -0.5592 -0.6157
 3631TIP3   OH210856   1.329   5.917   1.811  0.1773 -0.3142  0.0860
 3631TIP3    H110857   1.269   5.947   1.743  0.8891  0.0999 -0.3823
 3631TIP3    H210858   1.412   5.959   1.789  0.6911 -1.0393  0.5991
 3632TIP3   OH210859   4.169   3.021   1.220 -0.2161 -0.1738  0.1208
 3632TIP3    H110860   4.228   3.024   1.145  2.2590  0.6797  1.9624
 3632TIP3    H210861   4.124   3.105   1.218 -0.4365 -0.3009 -0.5838
 3633TIP3   OH210862   4.736   0.489   0.174  0.4681  0.3068 -0.4799
 3633TIP3    H110863   4.734   0.576   0.134 -1.2803  0.5985  0.1476
 3633TIP3    H210864   4.671   0.493   0.244 -0.0390 -1.6757 -0.7667
 3634TIP3   OH210865   5.977   1.927   1.761 -0.0025  0.5022  0.0284
 3634TIP3    H110866   5.998   1.876   1.838 -0.8277  0.3934  0.1983
 3634TIP3    H210867   6.030   2.006   1.768  0.0714  0.3989  0.6029
 3635TIP3   OH210868   2.093   0.968   3.841  0.1078  0.4667 -0.3967
 3635TIP3    H110869   2.116   1.007   3.925  1.1175  0.1075 -0.4884
 3635TIP3    H210870   2.177   0.938   3.805 -0.5936 -1.5242 -0.4624
 3636TIP3   OH210871   2.195   6.659   4.669  0.1769  0.6665  0.3543
 3636TIP3    H110872   2.130   6.727   4.686 -0.6153 -0.2538  1.1352
 3636TIP3    H210873   2.158   6.608   4.597  0.0691  0.2202  0.7153
 3637TIP3   OH210874   5.817   4.348   2.794 -0.0453  0.2328 -0.0621
 3637TIP3    H110875   5.736   4.301   2.777  0.3992 -0.8156  0.6581
 3637TIP3    H210876   5.789   4.438   2.811 -1.2027 -0.4145  1.6789
 3638TIP3   OH210877   2.607   1.289   3.659  0.0901 -0.1989  0.2810
 3638TIP3    H110878   2.595   1.355   3.590 -0.6026  0.0909  0.6689
 3638TIP3    H210879   2.561   1.325   3.735 -1.4788 -1.7366  0.1124
 3639TIP3   OH210880   2.056   4.413   1.194  0.6773 -0.1255  0.5950
 3639TIP3    H110881   1.981   4.470   1.175 -1.1986 -2.7710 -0.5599
 3639TIP3    H210882   2.048   4.394   1.288 -0.2293 -0.5419  0.4382
 3640TIP3   OH210883   0.343   3.549   2.548 -0.6423 -0.0229  0.1012
 3640TIP3    H110884   0.407   3.488   2.510  1.6183  1.7301  0.8796
 3640TIP3    H210885   0.325   3.513   2.635  0.9724  0.5331  0.7076
 3641TIP3   OH210886   3.505   5.786   1.544  0.8487 -0.4800 -0.6302
 3641TIP3    H110887   3.472   5.727   1.476  1.6419 -1.1915 -0.4029
 3641TIP3    H210888   3.439   5.781   1.613 -1.3105  2.1416 -2.2583
 3642TIP3   OH210889   4.418   5.408   4.197 -0.1242  0.2681 -0.6885
 3642TIP3    H110890   4.403   5.356   4.118 -1.8457 -0.2274 -0.0630
 3642TIP3    H210891   4.469   5.351   4.254 -1.5515 -0.5639 -0.2182
 3643TIP3   OH210892   1.708   5.495   0.605  0.6094 -0.1120 -0.2357
 3643TIP3    H110893   1.788   5.497   0.658  0.7800 -1.8014 -0.3723
 3643TIP3    H210894   1.659   5.572   0.633  2.0658  0.6928  0.1945
 3644TIP3   OH210895   3.602   1.531   1.604  0.0687  0.4572 -0.1710
 3644TIP3    H110896   3.675   1.489   1.558  0.7445  3.1530 -1.8018
 3644TIP3    H210897   3.609   1.624   1.580 -3.8123  0.8737 -0.2683
 3645TIP3   OH210898   4.172   5.004   2.117  0.1568  0.1908 -0.6336
 3645TIP3    H110899   4.126   5.039   2.193 -1.6122 -0.0430 -1.5409
 3645TIP3    H210900   4.182   4.911   2.136  2.9432  0.6780  0.8286
 3646TIP3   OH210901   4.625   5.958   2.966 -0.0033 -0.1190  0.4570
 3646TIP3    H110902   4.634   5.911   2.882 -0.8812 -0.3035  0.4533
 3646TIP3    H210903   4.554   5.912   3.011 -1.0856  1.3659  0.3429
 3647TIP3   OH210904   2.647   2.667   1.731  0.0215 -0.5974 -0.0745
 3647TIP3    H110905   2.700   2.667   1.650 -0.4677 -0.6522 -0.3988
 3647TIP3    H210906   2.589   2.743   1.721 -0.8908 -1.3086 -0.3423
 3648TIP3   OH210907   0.904   3.235   4.162 -0.3226 -0.4972 -0.0134
 3648TIP3    H110908   0.832   3.225   4.224 -0.4847 -1.1717 -0.3024
 3648TIP3    H210909   0.958   3.157   4.174  0.3792  0.0139  0.2172
 3649TIP3   OH210910   2.745   6.500   3.024 -0.3352  0.1194 -0.0947
 3649TIP3    H110911   2.829   6.456   3.037  1.1160  2.4837 -0.8270
 3649TIP3    H210912   2.712   6.465   2.941  1.0138  0.6963 -0.9080
 3650TIP3   OH210913   0.786   1.883   3.196 -0.2604 -0.3796 -0.3112
 3650TIP3    H110914   0.854   1.821   3.224 -0.1902 -0.8685 -1.5284
 3650TIP3    H210915   0.782   1.873   3.101 -1.1084  0.6146 -0.3934
 3651TIP3   OH210916   6.302   3.880   3.844  0.2967 -0.1085 -0.3428
 3651TIP3    H110917   6.316   3.852   3.754  2.0368  1.6860 -0.6939
 3651TIP3    H210918   6.298   3.976   3.839  1.2004  0.0688  1.5661
 3652TIP3   OH210919   4.124   1.674   2.794  0.5164  0.1653  0.0296
 3652TIP3    H110920   4.082   1.759   2.784  0.1631  0.2743  2.0155
 3652TIP3    H210921   4.208   1.683   2.749  0.8278  1.8488  0.8831
 3653TIP3   OH210922   2.796   1.847   4.029 -0.5418  0.4182 -0.2739
 3653TIP3    H110923   2.717   1.837   4.083 -0.7427  0.6914 -0.5099
 3653TIP3    H210924   2.768   1.824   3.940 -0.5743  1.3119 -0.5073
 3654TIP3   OH210925   1.996   3.665   2.441 -0.1728 -0.1402 -0.0477
 3654TIP3    H110926   2.074   3.718   2.425 -0.6966  0.7813  0.3817
 3654TIP3    H210927   2.014   3.620   2.524 -1.3407  2.5757  1.8328
 3655TIP3   OH210928   0.541   0.531   2.096 -0.4260 -0.0326 -0.0315
 3655TIP3    H110929   0.538   0.615   2.050  2.3406  0.5341  0.6492
 3655TIP3    H210930   0.560   0.467   2.027 -0.2931  0.2353 -0.2495
 3656TIP3   OH210931   3.198   3.461   0.699  0.5884  0.2057  0.0135
 3656TIP3    H110932   3.266   3.517   0.736  0.4320  0.0722  0.4993
 3656TIP3    H210933   3.125   3.520   0.680 -0.4332 -0.1076  2.5378
 3657TIP3   OH210934   3.796   4.555   2.753  0.2730  0.1033  0.1884
 3657TIP3    H110935   3.873   4.601   2.719  0.9054 -0.2735  1.0665
 3657TIP3    H210936   3.795   4.576   2.846 -0.1912 -0.5926  0.3460
 3658TIP3   OH210937   0.230   4.251   5.808 -0.2366  0.0521 -0.6330
 3658TIP3    H110938   0.256   4.203   5.887 -0.1508 -1.7326 -1.6986
 3658TIP3    H210939   0.309   4.256   5.755 -0.4564  0.6210 -0.9157
 3659TIP3   OH210940   6.976   1.378   4.282 -0.0856  0.0634  0.0981
 3659TIP3    H110941   6.901   1.320   4.296  1.1297 -1.3357  1.0477
 3659TIP3    H210942   6.936   1.463   4.262 -1.9241 -0.4387  1.3327
 3660TIP3   OH210943  -0.001   0.411   2.608 -0.1583  0.1288  0.8133
 3660TIP3    H110944   0.076   0.463   2.630  1.0903 -1.2538 -0.1341
 3660TIP3    H210945  -0.009   0.348   2.680 -0.5269  0.3659  0.9875
 3661TIP3   OH210946   2.403   4.552   2.419  0.4359 -0.5575 -0.1324
 3661TIP3    H110947   2.332   4.609   2.448 -1.4985 -2.1576 -1.3978
 3661TIP3    H210948   2.460   4.543   2.496 -0.9557  0.4436  1.0666
 3662TIP3   OH210949   0.025   0.791   5.484  0.1549  0.3872  0.2267
 3662TIP3    H110950  -0.026   0.762   5.559  0.4186 -1.6084 -0.3186
 3662TIP3    H210951   0.047   0.882   5.504 -2.1541  0.7996  1.2423
 3663TIP3   OH210952   2.157   5.005   2.516  0.2847 -0.1357 -0.1297
 3663TIP3    H110953   2.076   5.046   2.487  0.3663 -0.4464 -0.8069
 3663TIP3    H210954   2.163   5.028   2.609 -0.0014  0.8392 -0.3351
 3664TIP3   OH210955   5.876   4.015   4.663  0.1414  0.2103  0.0008
 3664TIP3    H110956   5.911   4.008   4.574 -0.4084 -0.8910 -0.1533
 3664TIP3    H210957   5.942   4.065   4.711  0.2290  1.2285 -1.1309
 3665TIP3   OH210958   7.176   4.522   4.436  0.3421 -0.5180 -0.1915
 3665TIP3    H110959   7.125   4.549   4.359 -1.4177  0.4093  1.2101
 3665TIP3    H210960   7.175   4.598   4.494  3.3544 -0.4939 -0.0369
 3666TIP3   OH210961   1.798   6.549   5.095  0.0143  0.6570  0.2905
 3666TIP3    H110962   1.744   6.484   5.140  1.4932  0.2908  1.6143
 3666TIP3    H210963   1.883   6.545   5.140  0.6126  2.4167 -0.6064
 3667TIP3   OH210964   4.944   5.812   5.484 -0.0137 -0.0397 -0.0873
 3667TIP3    H110965   5.030   5.810   5.526 -0.3398  0.4006  0.6179
 3667TIP3    H210966   4.890   5.866   5.543 -1.2885 -1.8581  0.4841
 3668TIP3   OH210967   2.544   0.592   3.769 -0.6567  0.6092  0.2394
 3668TIP3    H110968   2.537   0.686   3.785  1.4483  1.5235 -3.1722
 3668TIP3    H210969   2.474   0.573   3.707 -0.2311  0.2419 -0.1335
 3669TIP3   OH210970   0.033   3.410   3.058  0.2669  0.6588 -0.1658
 3669TIP3    H110971   0.022   3.390   2.965 -1.6341  0.2683  0.1118
 3669TIP3    H210972   0.127   3.399   3.073  0.5259  0.1254 -1.8898
 3670TIP3   OH210973   5.792   1.031   4.553  0.1886 -0.3829 -0.4311
 3670TIP3    H110974   5.712   0.984   4.528  0.6617 -2.6097  1.8253
 3670TIP3    H210975   5.767   1.082   4.630  0.2822  1.2875 -1.4584
 3671TIP3   OH210976   6.526   3.692   0.928  0.5724 -0.0886  0.1864
 3671TIP3    H110977   6.530   3.599   0.904  1.3420 -0.1497  0.4947
 3671TIP3    H210978   6.495   3.692   1.018 -0.0779  0.0007 -0.0322
 3672TIP3   OH210979   6.205   5.807   2.780 -0.5775 -0.5300  0.0666
 3672TIP3    H110980   6.262   5.735   2.752 -0.5153 -1.4935  2.4368
 3672TIP3    H210981   6.252   5.848   2.853 -2.0260 -0.1067  0.7977
 3673TIP3   OH210982   5.971   0.930   2.577  0.4357  0.1097 -0.1091
 3673TIP3    H110983   5.946   0.883   2.497  0.3321 -1.0194  0.5574
 3673TIP3    H210984   5.988   0.860   2.641  3.4548  0.8380  0.0374
 3674TIP3   OH210985   3.164   6.605   4.703 -0.5551 -0.3789 -0.3113
 3674TIP3    H110986   3.202   6.566   4.623  2.6822 -0.4421  1.1083
 3674TIP3    H210987   3.149   6.697   4.680 -0.3426 -0.5444 -1.1718
 3675TIP3   OH210988   2.848   6.671   3.919  0.6725 -0.2125  0.4997
 3675TIP3    H110989   2.791   6.677   3.842  0.1548  0.8681  0.9500
 3675TIP3    H210990   2.793   6.700   3.992  2.5224  3.6971  0.5925
 3676TIP3   OH210991   2.329   2.651   4.400  0.1291 -0.1628  0.2844
 3676TIP3    H110992   2.259   2.603   4.445 -0.9502 -0.1089 -1.2580
 3676TIP3    H210993   2.300   2.656   4.309  1.4312  1.2033 -0.0976
 3677TIP3   OH210994   2.666   6.709   3.712 -0.6999  0.4156 -0.4968
 3677TIP3    H110995   2.663   6.805   3.710 -0.5888  0.4687  0.9840
 3677TIP3    H210996   2.587   6.684   3.760 -0.0557 -0.1720  0.2782
 3678TIP3   OH210997   6.214   3.808   0.207 -0.6268 -0.1312 -1.0820
 3678TIP3    H110998   6.270   3.811   0.129 -1.0587 -0.0014 -1.3911
 3678TIP3    H210999   6.224   3.894   0.247  0.9749 -0.7796 -0.0021
 3679TIP3   OH211000   2.430   1.392   3.845  0.2501  0.3984  0.3521
 3679TIP3    H111001   2.348   1.416   3.804 -0.2423 -1.1920  0.3384
 3679TIP3    H211002   2.433   1.444   3.926 -0.3438  1.1008 -0.0697
 3680TIP3   OH211003   1.848   5.763   3.659  0.2582  0.6335 -0.2612
 3680TIP3    H111004   1.798   5.695   3.704 -0.4465  0.4339 -1.3158
 3680TIP3    H211005   1.865   5.829   3.726  3.0047 -1.5892  1.4384
 3681TIP3   OH211006   2.956   0.465   2.265 -0.7181 -0.6981 -0.3870
 3681TIP3    H111007   2.952   0.435   2.356 -1.3628 -0.8078 -0.4490
 3681TIP3    H211008   2.873   0.436   2.226 -1.7176  1.7539 -0.2696
 3682TIP3   OH211009   0.674   3.049   1.708  0.3181 -0.2255  0.4286
 3682TIP3    H111010   0.643   3.107   1.637  1.1281 -1.5404 -1.0568
 3682TIP3    H211011   0.594   3.006   1.740 -0.2645  1.4751  1.3925
 3683TIP3   OH211012   4.922   1.311   1.940 -0.0342  0.3488 -0.0228
 3683TIP3    H111013   5.017   1.324   1.932 -0.3781  2.8674 -0.7021
 3683TIP3    H211014   4.890   1.316   1.850 -0.7462 -1.8048  0.0439
 3684TIP3   OH211015   3.001   4.544   3.655 -0.3809  0.9228  0.1638
 3684TIP3    H111016   3.060   4.491   3.709 -1.2827 -0.2539  0.0542
 3684TIP3    H211017   2.920   4.549   3.707 -1.7052 -1.2897 -1.5065
 3685TIP3   OH211018   3.483   3.592   4.588  0.1527 -0.4130 -0.0103
 3685TIP3    H111019   3.504   3.531   4.517  0.6858 -0.7532  0.4329
 3685TIP3    H211020   3.396   3.625   4.566  0.5294 -0.1060 -1.1012
 3686TIP3   OH211021   5.566   4.145   2.001  0.4359 -0.1465  0.2980
 3686TIP3    H111022   5.650   4.183   2.024  0.0837  1.0270 -0.2796
 3686TIP3    H211023   5.573   4.125   1.908  0.0952 -0.0994  0.2597
 3687TIP3   OH211024   0.072   4.814   3.004 -0.0492  0.3056  0.2602
 3687TIP3    H111025   0.034   4.864   2.931 -0.2493  0.7172  0.6458
 3687TIP3    H211026   0.128   4.877   3.050  0.9429 -0.2302 -0.1663
 3688TIP3   OH211027   5.603   6.615   1.583  0.5044 -0.0653 -0.2086
 3688TIP3    H111028   5.617   6.522   1.599  0.4083 -0.6756 -3.1216
 3688TIP3    H211029   5.691   6.653   1.586  0.7223 -0.5359 -0.4351
 3689TIP3   OH211030   3.136   5.227   3.872 -0.2095  0.2850 -0.0123
 3689TIP3    H111031   3.189   5.227   3.952 -0.6437 -1.1617  0.2920
 3689TIP3    H211032   3.126   5.135   3.849  1.4276  0.6462 -2.7794
 3690TIP3   OH211033   6.414   5.663   0.508  0.5007  0.7641  0.3639
 3690TIP3    H111034   6.413   5.572   0.537  1.7143  0.4323 -0.5616
 3690TIP3    H211035   6.348   5.666   0.438  0.4547  0.5925  0.3991
 3691TIP3   OH211036   1.477   1.219   5.223  0.0641 -0.1308  0.2670
 3691TIP3    H111037   1.547   1.237   5.162 -0.3360  0.0180 -0.1530
 3691TIP3    H211038   1.480   1.124   5.237  0.3489 -0.1231  0.2621
 3692TIP3   OH211039   1.462   3.997   5.694  0.1838  0.2118  0.3131
 3692TIP3    H111040   1.536   4.020   5.639 -0.4656  0.0285 -0.6535
 3692TIP3    H211041   1.401   4.070   5.685 -1.1353 -1.0202 -1.4174
 3693TIP3   OH211042   5.121   4.121   0.662  0.6190  0.1465  0.9148
 3693TIP3    H111043   5.097   4.192   0.720 -2.7724 -0.8440  0.9468
 3693TIP3    H211044   5.125   4.161   0.575 -0.5210  0.5469  1.0296
 3694TIP3   OH211045   5.377   5.884   2.852 -0.0735  0.5298 -0.1492
 3694TIP3    H111046   5.465   5.891   2.814 -0.0614  0.6440 -0.1000
 3694TIP3    H211047   5.327   5.954   2.811 -0.5286 -0.3957 -1.2199
 3695TIP3   OH211048   1.212   4.294   2.423  0.1789  0.2925 -0.7436
 3695TIP3    H111049   1.148   4.363   2.441 -0.2038 -0.0879 -0.6422
 3695TIP3    H211050   1.225   4.298   2.328 -0.7751 -0.3078 -0.9073
 3696TIP3   OH211051   1.655   5.068   5.150  0.0028 -0.0836 -1.1646
 3696TIP3    H111052   1.746   5.054   5.123  0.1846  0.8777 -1.0766
 3696TIP3    H211053   1.653   5.158   5.182 -1.2789  0.3765 -2.4284
 3697TIP3   OH211054   5.375   5.620   1.104 -0.2935  0.2717  0.2159
 3697TIP3    H111055   5.313   5.609   1.177  0.6177 -1.4074  0.7777
 3697TIP3    H211056   5.428   5.540   1.105  1.4422  1.3571 -0.6828
 3698TIP3   OH211057   7.134   5.892   3.653  0.0605 -0.3899  0.5840
 3698TIP3    H111058   7.062   5.949   3.680 -0.8553 -1.0586 -0.3650
 3698TIP3    H211059   7.190   5.886   3.730 -0.1359  1.2908  0.8873
 3699TIP3   OH211060   6.716   0.872   3.744  0.3891 -0.0651  0.1786
 3699TIP3    H111061   6.667   0.796   3.714 -1.8157  1.8391 -1.3965
 3699TIP3    H211062   6.657   0.917   3.804  1.8365  0.2104  1.4601
 3700TIP3   OH211063   0.298   1.390   3.795 -0.1799 -0.5667 -0.2347
 3700TIP3    H111064   0.376   1.431   3.833 -0.2909 -0.3189 -0.2729
 3700TIP3    H211065   0.252   1.352   3.870 -1.5173  1.7570  0.2296
 3701TIP3   OH211066   4.417   2.701   0.430 -0.0681  0.0169 -0.2611
 3701TIP3    H111067   4.342   2.760   0.419  1.1590  1.7669  0.3172
 3701TIP3    H211068   4.449   2.718   0.519  1.8717  0.4076 -0.9786
 3702TIP3   OH211069   1.162   0.034   3.856  0.1513  0.2781  0.1188
 3702TIP3    H111070   1.215   0.063   3.931  1.4995 -0.5597 -0.4703
 3702TIP3    H211071   1.101  -0.030   3.893 -1.9713  2.7700  1.1933
 3703TIP3   OH211072   5.345   6.708   4.827 -0.6107  0.1318 -0.1558
 3703TIP3    H111073   5.301   6.705   4.912  0.1473 -0.7684  0.2329
 3703TIP3    H211074   5.438   6.712   4.849 -0.4291  0.3892 -0.9512
 3704TIP3   OH211075   0.718   6.736   3.856 -0.0180 -0.3761  0.4042
 3704TIP3    H111076   0.781   6.766   3.922 -0.8869  2.2227  0.1703
 3704TIP3    H211077   0.666   6.670   3.901  0.8422 -0.2639  1.6094
 3705TIP3   OH211078   2.951   1.547   2.061  0.2219 -0.1152  0.7664
 3705TIP3    H111079   2.943   1.641   2.048 -0.4194 -0.0189  1.7230
 3705TIP3    H211080   2.861   1.514   2.053  0.4158 -0.6164  0.6339
 3706TIP3   OH211081   2.367   1.597   3.134  0.4086  0.9668  0.7329
 3706TIP3    H111082   2.419   1.616   3.056 -0.6074  0.9954  0.0456
 3706TIP3    H211083   2.380   1.504   3.150  0.6049  0.9571  0.5146
 3707TIP3   OH211084   3.829   2.876   0.089  0.2717 -0.3030 -0.9241
 3707TIP3    H111085   3.739   2.909   0.087  0.6809  1.1363  1.7029
 3707TIP3    H211086   3.868   2.910   0.008 -0.9208  0.8976 -1.0392
 3708TIP3   OH211087   6.931   5.019   2.642  0.8109 -0.2792 -0.3062
 3708TIP3    H111088   6.980   5.009   2.724  2.9750  1.5646 -1.2697
 3708TIP3    H211089   6.867   5.088   2.661  0.2833 -0.9193  0.2547
 3709TIP3   OH211090   4.453   0.019   5.616  0.5014 -0.8274 -0.0431
 3709TIP3    H111091   4.392   0.059   5.679  1.8296  0.3739  0.5225
 3709TIP3    H211092   4.397  -0.038   5.562 -0.7485 -1.6669  1.9967
 3710TIP3   OH211093   2.952   6.630   3.455 -0.0617  0.1944 -0.2359
 3710TIP3    H111094   2.981   6.652   3.544  0.8132  0.5839 -0.6090
 3710TIP3    H211095   2.857   6.622   3.462  0.1188 -1.2962  1.0614
 3711TIP3   OH211096   2.686   5.696   4.557 -0.3019 -0.1982 -0.3423
 3711TIP3    H111097   2.655   5.606   4.549  0.0301 -0.4593  0.9482
 3711TIP3    H211098   2.780   5.688   4.575 -0.5813  0.2911  1.5477
 3712TIP3   OH211099   3.814   4.485   1.050 -0.1228  0.3117  0.2081
 3712TIP3    H111100   3.855   4.403   1.078 -0.8578 -0.2478 -0.3234
 3712TIP3    H211101   3.806   4.537   1.131 -0.4435 -0.4918  0.6974
 3713TIP3   OH211102   1.973   5.813   2.592 -0.3225  0.0670  0.1339
 3713TIP3    H111103   2.065   5.811   2.564 -0.5086  2.2168 -0.9095
 3713TIP3    H211104   1.932   5.741   2.545  0.9582 -1.4545  1.2599
 3714TIP3   OH211105   5.604   5.236   3.759 -0.1531 -0.4603  0.1060
 3714TIP3    H111106   5.649   5.169   3.708 -0.4603 -0.2965 -0.3885
 3714TIP3    H211107   5.512   5.212   3.756 -0.5654  1.0918 -1.8697
 3715TIP3   OH211108   4.695   6.336   2.543 -0.6051  0.0612 -0.4160
 3715TIP3    H111109   4.641   6.271   2.499 -1.4406  1.7046 -1.9444
 3715TIP3    H211110   4.781   6.296   2.549 -1.4887 -1.8637  0.3221
 3716TIP3   OH211111   1.343   5.865   4.943  0.6263 -0.0142  0.1186
 3716TIP3    H111112   1.322   5.931   5.009  3.0643  0.9361  0.0676
 3716TIP3    H211113   1.342   5.913   4.860 -1.3834 -0.9672 -0.4675
 3717TIP3   OH211114   5.254   1.212   5.100  0.1064 -0.1348  0.2920
 3717TIP3    H111115   5.272   1.256   5.183 -1.3154  0.0229  0.5440
 3717TIP3    H211116   5.282   1.121   5.114  0.6319  0.0811  0.6536
 3718TIP3   OH211117   5.549   1.460   4.145  0.2673  0.2876  0.2746
 3718TIP3    H111118   5.621   1.400   4.126  1.0359  1.2569  0.0275
 3718TIP3    H211119   5.558   1.480   4.238 -1.7789 -2.2346  1.1272
 3719TIP3   OH211120   7.075   5.560   0.860 -0.7852 -0.6493  0.2891
 3719TIP3    H111121   6.987   5.558   0.823 -0.2951 -0.4479 -0.9301
 3719TIP3    H211122   7.072   5.629   0.926 -1.4026 -0.3177 -0.0788
 3720TIP3   OH211123   4.902   1.985   5.048  0.3092 -0.1312  0.0038
 3720TIP3    H111124   4.917   1.991   4.953  1.5845  0.0434  0.2021
 3720TIP3    H211125   4.807   1.992   5.057  0.0093 -1.6850 -1.3789
 3721TIP3   OH211126   3.585   4.116   3.963 -0.0389 -0.0226 -0.0421
 3721TIP3    H111127   3.557   4.028   3.938  0.3285  0.0104 -0.5874
 3721TIP3    H211128   3.612   4.108   4.054 -2.3189  0.0662  0.6998
 3722TIP3   OH211129   3.234   0.390   2.599  0.1017 -0.3299  0.2602
 3722TIP3    H111130   3.249   0.336   2.522  0.5744  0.3894 -0.1718
 3722TIP3    H211131   3.152   0.358   2.636  0.0096 -0.8601 -0.3928
 3723TIP3   OH211132   3.502   5.443   5.381 -0.1990  0.0399 -0.1240
 3723TIP3    H111133   3.467   5.374   5.325 -2.7355  1.8353 -0.9668
 3723TIP3    H211134   3.456   5.433   5.465 -2.9664  2.3140 -1.1849
 3724TIP3   OH211135   1.284   2.344   2.850  0.4634 -0.0042  0.3787
 3724TIP3    H111136   1.249   2.328   2.938  1.2585  0.0295  0.7154
 3724TIP3    H211137   1.238   2.281   2.794 -0.0169 -0.0585  0.8232
 3725TIP3   OH211138   6.894   5.320   2.834 -0.1681 -0.0354  0.0765
 3725TIP3    H111139   6.841   5.267   2.893 -0.6004  0.9929  0.6358
 3725TIP3    H211140   6.979   5.328   2.879 -1.0453  2.2425  1.5054
 3726TIP3   OH211141   0.004   4.326   0.708 -0.1960 -0.2067  0.2668
 3726TIP3    H111142   0.027   4.374   0.629 -0.7321 -2.0139 -1.0493
 3726TIP3    H211143   0.082   4.274   0.729  0.2642  0.9168  1.4814
 3727TIP3   OH211144   0.890   1.735   2.167  0.6171 -0.5439 -0.3016
 3727TIP3    H111145   0.885   1.674   2.093 -0.7335  0.2479 -0.9123
 3727TIP3    H211146   0.892   1.822   2.126 -0.8142 -0.0594  0.5678
 3728TIP3   OH211147   5.946   2.372   5.070 -0.2055  0.0756 -0.5081
 3728TIP3    H111148   5.903   2.302   5.121 -0.4532  0.3818 -0.2897
 3728TIP3    H211149   6.032   2.336   5.047 -0.6896 -0.6614 -1.2102
 3729TIP3   OH211150   2.860   3.363   5.728 -0.0671  0.1910 -0.2413
 3729TIP3    H111151   2.829   3.277   5.698 -0.3980  0.7284 -1.5322
 3729TIP3    H211152   2.813   3.426   5.672  2.3169  1.0972 -1.3743
 3730TIP3   OH211153   0.794   5.129   2.533  0.1482 -0.0325  0.4640
 3730TIP3    H111154   0.806   5.103   2.625 -0.8791  0.8633  0.8784
 3730TIP3    H211155   0.850   5.206   2.523  0.0553  0.0311  0.4292
 3731TIP3   OH211156   2.382   5.788   0.625 -0.5541  0.2849 -0.4738
 3731TIP3    H111157   2.476   5.802   0.635 -0.6592  0.2804  0.6514
 3731TIP3    H211158   2.375   5.716   0.562  0.1364  1.4642 -1.9629
 3732TIP3   OH211159   3.460   0.200   3.096  0.2562  0.1115 -0.0514
 3732TIP3    H111160   3.547   0.176   3.127  0.4619  0.7109 -0.1410
 3732TIP3    H211161   3.426   0.122   3.054  0.5767 -0.2581  0.3706
 3733TIP3   OH211162   2.539   0.358   0.592 -0.3220  0.1640 -0.3084
 3733TIP3    H111163   2.569   0.380   0.680 -0.2625  0.0710 -0.3058
 3733TIP3    H211164   2.509   0.441   0.555  0.3415  0.3340 -0.4691
 3734TIP3   OH211165   1.040   2.260   1.223 -0.6794  0.1296  0.3018
 3734TIP3    H111166   1.083   2.198   1.282  0.1585  0.8410  0.4740
 3734TIP3    H211167   0.986   2.206   1.166  0.4172 -0.8135  0.1132
 3735TIP3   OH211168   3.018   1.351   2.697  0.1779 -0.6282  0.6594
 3735TIP3    H111169   3.107   1.378   2.718 -0.5171  1.4338  1.2022
 3735TIP3    H211170   2.963   1.424   2.726 -1.8383 -2.4128  1.6765
 3736TIP3   OH211171   1.031   4.941   1.368  0.0628 -0.1691  0.2610
 3736TIP3    H111172   1.056   5.009   1.306 -0.3351 -0.5059 -0.2815
 3736TIP3    H211173   0.963   4.982   1.422 -0.3758 -0.2146 -0.2451
 3737TIP3   OH211174   1.326   4.091   5.172 -0.3799 -0.5710  0.1935
 3737TIP3    H111175   1.378   4.011   5.162  0.1844 -0.2822  0.7379
 3737TIP3    H211176   1.256   4.067   5.232 -0.5191 -0.7931 -0.0533
 3738TIP3   OH211177   2.830   3.439   2.801  0.1260  0.3601  0.5913
 3738TIP3    H111178   2.819   3.382   2.877 -0.2857 -1.0877 -0.5184
 3738TIP3    H211179   2.765   3.408   2.738  0.0922  1.8800 -0.1712
 3739TIP3   OH211180   0.029   3.344   0.332 -0.0231 -0.0440 -0.2660
 3739TIP3    H111181  -0.043   3.344   0.395 -0.4167  0.9193 -0.6981
 3739TIP3    H211182   0.051   3.436   0.322 -0.0871 -0.1674 -1.6629
 3740TIP3   OH211183   6.685   2.436   4.775 -1.0015  0.4924  0.0811
 3740TIP3    H111184   6.733   2.460   4.854 -0.6567  1.0796 -0.2998
 3740TIP3    H211185   6.631   2.513   4.756 -0.8536  0.4759 -0.4214
 3741TIP3   OH211186   4.779   2.547   4.925  0.0329  0.2482 -0.4664
 3741TIP3    H111187   4.779   2.640   4.947  0.1120 -0.1892  1.5480
 3741TIP3    H211188   4.703   2.536   4.867  0.0650  1.5539 -0.7888
 3742TIP3   OH211189   5.115   4.444   3.573 -0.6648  0.7185 -0.0282
 3742TIP3    H111190   5.141   4.431   3.481 -0.4199 -3.1447  0.4384
 3742TIP3    H211191   5.197   4.446   3.621 -0.8401  1.3598  0.2473
 3743TIP3   OH211192   5.765   1.775   1.643  0.0548  0.7359  0.3413
 3743TIP3    H111193   5.823   1.824   1.701 -0.8795  1.5994  0.5703
 3743TIP3    H211194   5.756   1.830   1.565 -0.3419  0.5497  0.2528
 3744TIP3   OH211195   4.260   6.765   0.082  0.0038 -0.0404  0.1916
 3744TIP3    H111196   4.209   6.685   0.077 -0.0775 -0.0008  0.3916
 3744TIP3    H211197   4.198   6.832   0.112  0.6005 -0.3876  2.3987
 3745TIP3   OH211198   4.948   4.378   5.314 -0.3548 -0.5650 -0.0523
 3745TIP3    H111199   4.933   4.325   5.236  0.1550 -0.1930 -0.4132
 3745TIP3    H211200   4.938   4.317   5.387  1.2637 -1.4239 -0.4971
 3746TIP3   OH211201   3.803   4.300   3.259 -0.3003 -0.4710 -0.1268
 3746TIP3    H111202   3.779   4.370   3.319 -0.0352  1.3475 -2.0612
 3746TIP3    H211203   3.728   4.240   3.260 -2.2003  1.7615 -1.1889
 3747TIP3   OH211204   4.598   1.887   3.899  0.0982  0.1000 -0.0617
 3747TIP3    H111205   4.611   1.966   3.846 -2.0088  0.2022 -0.5025
 3747TIP3    H211206   4.539   1.914   3.969 -1.4208 -1.2448 -0.7568
 3748TIP3   OH211207   1.448   4.391   2.839  0.0822 -0.1812  0.2628
 3748TIP3    H111208   1.533   4.382   2.882 -0.7483 -1.2543  1.7666
 3748TIP3    H211209   1.396   4.444   2.900 -0.0263  1.4374 -1.1621
 3749TIP3   OH211210   1.103   0.168   4.632 -0.0208  0.6663  0.2722
 3749TIP3    H111211   1.030   0.138   4.686 -0.0462 -0.1037 -0.1743
 3749TIP3    H211212   1.169   0.098   4.639  0.1949  0.8088 -0.2460
 3750TIP3   OH211213   1.473   1.716   5.764  0.4036 -0.6472 -0.0942
 3750TIP3    H111214   1.471   1.694   5.671  0.5441  0.3276 -0.3420
 3750TIP3    H211215   1.381   1.712   5.791  0.2180  0.2197 -0.5678
 3751TIP3   OH211216   1.483   6.187   0.996  0.2239  0.0330 -0.6736
 3751TIP3    H111217   1.550   6.204   0.929  1.5397 -0.1787  0.5462
 3751TIP3    H211218   1.452   6.098   0.976  1.7378 -0.6564 -0.1087
 3752TIP3   OH211219   6.429   5.226   3.607 -0.4010  0.5552  0.1071
 3752TIP3    H111220   6.434   5.157   3.540  1.3686  0.8372 -0.0982
 3752TIP3    H211221   6.440   5.180   3.690  1.8423  0.6503 -0.0883
 3753TIP3   OH211222   6.307   1.193   1.379  0.2282 -0.0017 -0.0128
 3753TIP3    H111223   6.257   1.265   1.342 -0.9214  0.1077  1.6795
 3753TIP3    H211224   6.270   1.115   1.337 -1.0821  0.1177  0.8616
 3754TIP3   OH211225   6.625   2.830   4.910  0.4083  0.0099 -0.3500
 3754TIP3    H111226   6.638   2.925   4.909  0.7155 -0.0343 -0.9224
 3754TIP3    H211227   6.713   2.794   4.911  0.3315 -0.2776  1.9079
 3755TIP3   OH211228   6.470   3.272   5.123  0.3956 -0.5248 -0.2598
 3755TIP3    H111229   6.433   3.267   5.211 -3.1688 -0.1347 -1.5858
 3755TIP3    H211230   6.456   3.185   5.086  0.8952 -0.3780 -0.8055
 3756TIP3   OH211231   0.508   3.826   3.363  0.0331 -0.3495  0.1956
 3756TIP3    H111232   0.417   3.849   3.382  0.0217 -0.2643  0.0442
 3756TIP3    H211233   0.531   3.881   3.288  0.0739 -0.6784 -0.0354
 3757TIP3   OH211234   5.528   0.772   5.892  0.0521  0.5578 -0.0862
 3757TIP3    H111235   5.540   0.772   5.797  1.6800 -0.7151  0.0648
 3757TIP3    H211236   5.443   0.731   5.906  0.2411 -0.1587 -0.9602
 3758TIP3   OH211237   6.799   2.257   3.346  0.0971 -0.2901 -0.6298
 3758TIP3    H111238   6.847   2.335   3.319  0.5199 -0.0914  0.6500
 3758TIP3    H211239   6.862   2.186   3.339 -0.4809 -0.6773 -2.4736
 3759TIP3   OH211240   5.525   2.871   1.268  0.1574  0.0468  0.1078
 3759TIP3    H111241   5.486   2.810   1.206  0.5461  0.2160 -0.2989
 3759TIP3    H211242   5.566   2.938   1.214 -0.6163  0.8945  0.5480
 3760TIP3   OH211243   0.770   1.200   5.293 -0.2997 -0.2265  0.2074
 3760TIP3    H111244   0.705   1.169   5.230 -0.5700  2.0071 -0.6949
 3760TIP3    H211245   0.813   1.273   5.250  1.3013 -0.2437  1.6561
 3761TIP3   OH211246   2.205   2.340   2.801  0.3333 -0.6759  0.1423
 3761TIP3    H111247   2.135   2.403   2.819  1.1113  0.0723  0.6655
 3761TIP3    H211248   2.166   2.254   2.817 -0.7598 -0.3295 -0.6197
 3762TIP3   OH211249   4.439   1.012   4.100 -0.0840  0.0346  0.4439
 3762TIP3    H111250   4.467   1.086   4.153  3.1179  0.7157 -1.9011
 3762TIP3    H211251   4.520   0.968   4.074 -1.4782 -1.0436 -2.6422
 3763TIP3   OH211252   6.265   0.197   2.529 -0.4534 -0.1024 -0.3233
 3763TIP3    H111253   6.206   0.245   2.587  0.5393  2.2534 -1.1512
 3763TIP3    H211254   6.318   0.143   2.588 -1.6390 -0.2309  0.6443
 3764TIP3   OH211255   6.359   6.391   3.430  0.4430  0.2991  0.3089
 3764TIP3    H111256   6.405   6.468   3.463  0.6120 -0.3256  1.6061
 3764TIP3    H211257   6.426   6.324   3.422 -0.1954 -0.7312  2.5660
 3765TIP3   OH211258   7.096   5.429   1.799  0.2921 -0.5105  0.7288
 3765TIP3    H111259   7.023   5.425   1.861  0.9366 -0.4684  1.4987
 3765TIP3    H211260   7.136   5.515   1.814  1.3447 -1.0824  1.2867
 3766TIP3   OH211261   1.275   3.743   5.351  0.4769 -0.2022  0.1750
 3766TIP3    H111262   1.233   3.663   5.385  0.2887  0.4063  1.4671
 3766TIP3    H211263   1.342   3.712   5.291  0.6883 -1.3597  0.9742
 3767TIP3   OH211264   1.954   2.246   4.074  0.0198 -0.3436  0.2772
 3767TIP3    H111265   1.896   2.321   4.089 -1.6200 -1.4418 -0.3630
 3767TIP3    H211266   1.919   2.176   4.128  0.5003 -1.1541 -0.4344
 3768TIP3   OH211267   0.520   1.097   5.149 -0.6162 -0.2962  0.2325
 3768TIP3    H111268   0.542   1.153   5.074  0.6594  1.0898  1.5637
 3768TIP3    H211269   0.425   1.087   5.144 -0.7455  1.0640 -0.6912
 3769TIP3   OH211270   5.204   1.044   2.899 -0.0131 -0.2332  0.2705
 3769TIP3    H111271   5.140   1.030   2.829 -0.3922 -0.6299  0.6943
 3769TIP3    H211272   5.233   1.135   2.887 -2.4682  0.8366  1.5482
 3770TIP3   OH211273   4.052   5.993   3.649 -0.1020 -1.1571 -0.8267
 3770TIP3    H111274   4.008   6.055   3.591  0.3747 -0.5541 -0.5546
 3770TIP3    H211275   3.990   5.977   3.719  0.7862  1.2670  0.6672
 3771TIP3   OH211276   5.814   6.215   2.294  0.4725  0.5607 -0.6317
 3771TIP3    H111277   5.829   6.279   2.364  0.8466  0.1214 -0.3010
 3771TIP3    H211278   5.899   6.172   2.282  0.7022  1.3569 -2.0978
 3772TIP3   OH211279   4.745   0.882   5.174  0.2520 -0.2050 -0.1306
 3772TIP3    H111280   4.683   0.859   5.243 -0.8161  1.2087 -0.5662
 3772TIP3    H211281   4.802   0.948   5.214 -2.3126  3.0274 -1.3337
 3773TIP3   OH211282   4.178   1.439   0.276 -0.5636 -0.8145 -0.1572
 3773TIP3    H111283   4.159   1.347   0.292  0.0944 -0.7796  0.9362
 3773TIP3    H211284   4.254   1.438   0.218 -1.3494 -0.9424 -1.2181
 3774TIP3   OH211285   3.800   2.320   4.762 -0.0374  0.8780 -0.7533
 3774TIP3    H111286   3.872   2.325   4.699  0.1548 -0.7487 -0.7044
 3774TIP3    H211287   3.737   2.260   4.722 -0.8757  1.4313 -0.3003
 3775TIP3   OH211288   4.171   5.704   3.278 -0.0489  0.0076  0.6933
 3775TIP3    H111289   4.178   5.645   3.203  1.4732 -1.0981  1.6320
 3775TIP3    H211290   4.262   5.720   3.304 -0.5341 -0.4287  2.8629
 3776TIP3   OH211291   6.387   1.061   3.087  0.2593 -0.1443 -0.6103
 3776TIP3    H111292   6.472   1.102   3.072  0.5178 -0.2203  0.5396
 3776TIP3    H211293   6.325   1.135   3.090  0.6189  0.1270  0.7314
 3777TIP3   OH211294   0.520   5.794   3.497  0.1370 -0.3170  0.4727
 3777TIP3    H111295   0.530   5.699   3.494  1.6279 -0.2679  2.2685
 3777TIP3    H211296   0.489   5.811   3.585 -0.0307  0.8867  0.1910
 3778TIP3   OH211297   3.272   3.139   5.328 -0.0223  0.0384  0.6361
 3778TIP3    H111298   3.283   3.064   5.387 -1.0903 -1.0618 -0.4853
 3778TIP3    H211299   3.338   3.126   5.260  1.3626  1.4286  1.6565
 3779TIP3   OH211300   0.180   6.217   5.796 -0.1586  0.8346  0.1830
 3779TIP3    H111301   0.222   6.246   5.715  2.3104 -0.1442  1.0318
 3779TIP3    H211302   0.236   6.147   5.829 -3.0551 -1.3567  0.9105
 3780TIP3   OH211303   1.612   4.188   3.919 -0.3873 -0.1901 -0.8709
 3780TIP3    H111304   1.532   4.200   3.970 -0.3455  0.0579 -0.8624
 3780TIP3    H211305   1.679   4.238   3.966 -0.0572 -0.9870 -0.4835
 3781TIP3   OH211306   6.537   5.902   2.687  0.1652 -0.2375 -0.0143
 3781TIP3    H111307   6.543   5.839   2.759 -2.0269 -0.3344  0.1462
 3781TIP3    H211308   6.499   5.853   2.615 -3.1548  1.1446  0.6082
 3782TIP3   OH211309   4.368   1.784   2.237  0.1827 -0.3098 -0.0008
 3782TIP3    H111310   4.273   1.782   2.247  0.0829  2.0516  0.2727
 3782TIP3    H211311   4.383   1.755   2.148 -1.0075  1.0355 -0.6984
 3783TIP3   OH211312   2.390   5.163   0.063  0.3978  0.0868  0.6867
 3783TIP3    H111313   2.417   5.171  -0.029 -1.5867  0.3318  0.0861
 3783TIP3    H211314   2.374   5.253   0.091 -3.0700 -0.1711 -0.0879
 3784TIP3   OH211315   4.199   0.920   3.334 -0.6961 -0.2591 -0.0157
 3784TIP3    H111316   4.255   0.945   3.407 -1.4024  1.8100 -0.1097
 3784TIP3    H211317   4.240   0.962   3.258 -0.3847 -1.7687 -0.7188
 3785TIP3   OH211318   5.507   6.722   3.046  0.1565 -0.4474  0.0768
 3785TIP3    H111319   5.569   6.650   3.044 -1.0161 -1.4928  0.3265
 3785TIP3    H211320   5.436   6.695   2.988  0.7846  1.5854 -1.7878
 3786TIP3   OH211321   2.742   4.821   3.502  0.2608  0.8144  0.3252
 3786TIP3    H111322   2.824   4.827   3.552  0.9482  1.4215 -0.8418
 3786TIP3    H211323   2.770   4.812   3.411 -0.9804  0.5271 -0.0427
 3787TIP3   OH211324   3.312   4.070   4.200 -0.5482 -0.5924 -0.0607
 3787TIP3    H111325   3.237   4.047   4.254  0.4855 -0.9676  1.2772
 3787TIP3    H211326   3.387   4.034   4.247  0.5212  0.2301 -1.0851
 3788TIP3   OH211327   7.076   2.080   1.665  0.1292  0.3876 -0.3249
 3788TIP3    H111328   7.113   2.149   1.720  0.5581 -0.4600  0.4821
 3788TIP3    H211329   7.103   2.102   1.576  0.5189  1.0883 -0.0370
 3789TIP3   OH211330   0.789   2.859   4.115 -0.1797  0.2355 -0.1719
 3789TIP3    H111331   0.799   2.917   4.190 -1.0346  1.8393 -1.2284
 3789TIP3    H211332   0.703   2.880   4.079 -0.7536 -2.1024 -0.3094
 3790TIP3   OH211333   0.616   5.790   0.234 -0.5786 -0.2832 -0.3656
 3790TIP3    H111334   0.650   5.701   0.227  0.3456 -0.0849  1.0141
 3790TIP3    H211335   0.563   5.789   0.314  0.9151  0.7816  0.7144
 3791TIP3   OH211336   4.320   1.000   3.835 -0.3072  0.3058 -0.3015
 3791TIP3    H111337   4.361   1.043   3.760  0.8593 -1.3098 -0.6438
 3791TIP3    H211338   4.379   1.017   3.908  0.4284 -1.0475 -0.5449
 3792TIP3   OH211339   2.522   4.989   3.143  0.4105 -0.1295 -0.2893
 3792TIP3    H111340   2.511   5.000   3.237  1.8163 -0.1645 -0.0998
 3792TIP3    H211341   2.433   4.984   3.108 -0.1337  1.1746  0.8668
 3793TIP3   OH211342   3.004   0.036   5.552  0.4459 -0.0503 -0.0413
 3793TIP3    H111343   3.080  -0.021   5.566  1.0077  0.3005 -1.5077
 3793TIP3    H211344   2.968   0.008   5.468 -0.9557 -0.0808  0.5456
 3794TIP3   OH211345   1.594   2.011   3.497 -0.1354 -0.6921  0.3875
 3794TIP3    H111346   1.504   2.000   3.464 -0.3338  1.1801  0.2428
 3794TIP3    H211347   1.647   1.958   3.438 -0.7689  0.7463 -1.5727
 3795TIP3   OH211348   0.144   5.787   4.188 -0.5586 -0.3241  0.0151
 3795TIP3    H111349   0.196   5.823   4.116  0.7773 -2.4410 -0.1550
 3795TIP3    H211350   0.065   5.842   4.190  0.5913  1.5037 -1.2608
 3796TIP3   OH211351   6.928   0.677   3.625 -0.0734  0.8947 -0.1113
 3796TIP3    H111352   6.907   0.733   3.700  0.6519  1.5844 -0.4097
 3796TIP3    H211353   6.847   0.628   3.608 -0.0198  0.1671  1.5838
 3797TIP3   OH211354   1.882   3.321   5.163 -0.3315  0.2366 -0.6416
 3797TIP3    H111355   1.934   3.247   5.194  0.0448  0.8499  0.2250
 3797TIP3    H211356   1.813   3.281   5.109 -0.7528 -0.8475  0.6468
 3798TIP3   OH211357   3.923   5.302   2.519  0.5942  0.1696 -0.0949
 3798TIP3    H111358   4.013   5.332   2.511  0.8087  0.1708  1.8688
 3798TIP3    H211359   3.926   5.233   2.585 -1.0467  1.2681  1.2235
 3799TIP3   OH211360   6.633   6.226   4.210  0.2475  0.2310 -0.8706
 3799TIP3    H111361   6.619   6.179   4.128  1.0442  0.1621 -0.9712
 3799TIP3    H211362   6.669   6.161   4.270 -0.7650  0.1598 -0.3017
 3800TIP3   OH211363   6.676   6.325   1.972 -1.1669 -0.3269  0.2820
 3800TIP3    H111364   6.676   6.329   2.068  1.1598 -1.3198  0.3826
 3800TIP3    H211365   6.714   6.409   1.944  3.7125 -2.1243  0.5862
 3801TIP3   OH211366   1.048   1.402   0.325 -0.7063 -0.0733  0.2318
 3801TIP3    H111367   1.135   1.429   0.295 -0.8496 -0.7964 -0.8871
 3801TIP3    H211368   1.001   1.484   0.340 -0.4125  0.3288 -0.9265
 3802TIP3   OH211369   4.463   3.550   4.711 -0.0842 -0.0352  0.5801
 3802TIP3    H111370   4.552   3.571   4.683 -0.5361 -1.7808 -2.6246
 3802TIP3    H211371   4.468   3.547   4.807  2.3276  3.6128  0.7478
 3803TIP3   OH211372   5.998   6.016   0.622 -0.5265  0.3670 -0.0170
 3803TIP3    H111373   5.981   6.087   0.683 -1.8924 -0.1642  0.2413
 3803TIP3    H211374   6.049   5.953   0.672 -2.5426 -0.5598  0.9534
 3804TIP3   OH211375   3.374   2.792   1.198  0.4502 -0.1391  0.6319
 3804TIP3    H111376   3.340   2.721   1.144  0.6303 -0.1442  0.5243
 3804TIP3    H211377   3.352   2.767   1.287 -3.0140  1.5319  0.3892
 3805TIP3   OH211378   3.698   2.001   1.240 -1.2839 -0.4719 -0.1271
 3805TIP3    H111379   3.790   2.022   1.255 -1.1713  0.7213 -2.0951
 3805TIP3    H211380   3.661   2.081   1.201 -3.5182 -0.4241  1.8583
 3806TIP3   OH211381   2.333   3.196   0.553  0.0885 -0.0127  0.3578
 3806TIP3    H111382   2.345   3.246   0.472 -2.1292  1.4066  0.8063
 3806TIP3    H211383   2.240   3.171   0.551 -1.0377  2.9803  3.9349
 3807TIP3   OH211384   1.688   3.223   4.949  0.3755 -0.4704 -0.0869
 3807TIP3    H111385   1.641   3.141   4.934  0.1371 -0.3585  0.0342
 3807TIP3    H211386   1.773   3.211   4.907  0.1330 -0.5716 -0.5523
 3808TIP3   OH211387   6.211   5.253   5.849 -0.1013 -0.3917 -0.0556
 3808TIP3    H111388   6.146   5.183   5.842 -0.3921 -0.2595  1.1608
 3808TIP3    H211389   6.217   5.289   5.760 -1.6629 -0.4344 -0.2146
 3809TIP3   OH211390   2.659   4.353   1.737  0.2515  0.0260 -0.0433
 3809TIP3    H111391   2.673   4.328   1.829  0.5205 -1.5024 -0.4677
 3809TIP3    H211392   2.741   4.394   1.710  0.0901  0.6928  0.4471
 3810TIP3   OH211393   2.759   2.197   0.742  0.4861 -0.6504 -0.0896
 3810TIP3    H111394   2.790   2.243   0.820 -0.3314 -0.9137  0.3978
 3810TIP3    H211395   2.811   2.116   0.741 -0.0602 -1.0300  0.6557
 3811TIP3   OH211396   1.361   2.026   0.976  0.0402  0.4497  0.6045
 3811TIP3    H111397   1.391   2.069   0.896  1.3221  0.8238  1.2676
 3811TIP3    H211398   1.299   1.959   0.946  0.1863  0.8651 -0.6586
 3812TIP3   OH211399   2.184   6.563   3.935  0.0362 -0.0431 -0.1540
 3812TIP3    H111400   2.108   6.510   3.960 -0.7232  0.7464 -0.7238
 3812TIP3    H211401   2.149   6.652   3.925  1.1613  0.4589  0.1833
 3813TIP3   OH211402   4.265   1.404   1.092 -0.1878  0.1503 -0.1310
 3813TIP3    H111403   4.185   1.437   1.052 -0.6882 -0.9904 -0.1231
 3813TIP3    H211404   4.274   1.452   1.174 -1.3201 -0.2769  0.2575
 3814TIP3   OH211405   5.727   3.696   4.661  0.7578 -0.0495  0.5022
 3814TIP3    H111406   5.741   3.651   4.744  1.2517 -0.5595  0.1557
 3814TIP3    H211407   5.636   3.678   4.638  0.7146 -0.1755  0.7750
 3815TIP3   OH211408   3.532   1.655   5.258  0.3254  0.4861  0.2845
 3815TIP3    H111409   3.583   1.618   5.185  0.2818  0.7899  0.0947
 3815TIP3    H211410   3.446   1.615   5.250  0.6309 -0.2926  0.8138
 3816TIP3   OH211411   6.210   4.668   1.567  0.1378 -0.0338 -0.1980
 3816TIP3    H111412   6.212   4.573   1.581 -2.1377  0.0155  0.8931
 3816TIP3    H211413   6.235   4.680   1.476  1.1087 -1.6127 -0.1757
 3817TIP3   OH211414   4.354   4.763   3.409 -0.3442  0.1305 -0.2112
 3817TIP3    H111415   4.424   4.825   3.392  1.4559 -1.5997  0.5348
 3817TIP3    H211416   4.307   4.800   3.484 -0.0915  1.1822 -0.5535
 3818TIP3   OH211417   4.671   3.557   3.088  0.0930  0.0268  0.1079
 3818TIP3    H111418   4.587   3.543   3.132 -0.2326 -0.7267 -0.7318
 3818TIP3    H211419   4.681   3.652   3.085 -0.0119  0.1108  1.5265
 3819TIP3   OH211420   4.438   1.315   0.500  0.0497 -0.2704 -0.2680
 3819TIP3    H111421   4.372   1.334   0.566  1.5368  0.9739  0.9317
 3819TIP3    H211422   4.467   1.401   0.469 -0.1106 -0.8150 -2.0556
 3820TIP3   OH211423   4.481   4.330   1.442 -0.3685 -0.2088 -0.6484
 3820TIP3    H111424   4.523   4.316   1.527  0.5242 -0.5018 -1.1223
 3820TIP3    H211425   4.413   4.263   1.437 -0.8574  0.2222  0.0992
 3821TIP3   OH211426   2.794   0.443   1.089 -0.1991 -0.6940  0.3260
 3821TIP3    H111427   2.827   0.354   1.101 -0.0720 -0.5709  0.9308
 3821TIP3    H211428   2.856   0.498   1.138 -0.4110 -0.2997  0.1559
 3822TIP3   OH211429   5.267   0.636   3.231 -0.6702 -0.1919 -0.4032
 3822TIP3    H111430   5.312   0.565   3.186  0.0888 -0.1482  0.2661
 3822TIP3    H211431   5.297   0.716   3.187  1.6467  0.0236  1.3847
 3823TIP3   OH211432   7.122   3.811   1.768  0.0995 -0.3728  0.2880
 3823TIP3    H111433   7.067   3.820   1.690  0.9806  0.4970 -0.2560
 3823TIP3    H211434   7.064   3.835   1.841 -0.3856  0.0391 -0.2235
 3824TIP3   OH211435   5.726   6.617   0.051 -0.7821  0.1033  0.1402
 3824TIP3    H111436   5.656   6.551   0.042 -0.5122 -0.1341 -0.2510
 3824TIP3    H211437   5.705   6.682  -0.016 -0.2233 -0.3433 -0.4838
 3825TIP3   OH211438   6.777   2.425   1.756  0.2919  0.2271 -0.6411
 3825TIP3    H111439   6.746   2.369   1.827  2.6624 -1.3288 -0.7023
 3825TIP3    H211440   6.740   2.511   1.774 -0.9812 -0.6524  1.2089
 3826TIP3   OH211441   3.022   6.643   1.738 -0.0033  0.4181 -0.6422
 3826TIP3    H111442   3.011   6.738   1.729 -1.0444  0.4993  1.1096
 3826TIP3    H211443   2.948   6.615   1.791  0.7569 -1.2591 -0.4017
 3827TIP3   OH211444   3.296   2.063   4.319  0.0308 -0.0081 -0.0293
 3827TIP3    H111445   3.374   2.046   4.264 -0.3059 -1.7487 -0.0313
 3827TIP3    H211446   3.273   1.977   4.354 -1.9065  0.4672 -0.0338
 3828TIP3   OH211447   0.209   2.007   1.642 -0.1090  0.0170 -0.2622
 3828TIP3    H111448   0.223   2.012   1.737 -0.5569 -1.7402 -0.0831
 3828TIP3    H211449   0.186   2.097   1.617  1.3245  0.8110  1.0553
 3829TIP3   OH211450   3.209   4.575   1.975  0.9517 -0.2559 -0.7765
 3829TIP3    H111451   3.303   4.562   1.971  1.1088  0.7188 -0.5151
 3829TIP3    H211452   3.198   4.657   2.022  0.0519  0.9147 -2.9157
 3830TIP3   OH211453   6.656   0.721   3.446 -0.3782 -0.2380  0.1769
 3830TIP3    H111454   6.582   0.779   3.434 -1.0123 -0.9655  0.5008
 3830TIP3    H211455   6.656   0.666   3.367  0.1014  0.0663 -0.0395
 3831TIP3   OH211456   1.723   1.911   5.125  0.1670  0.0550  0.5505
 3831TIP3    H111457   1.758   1.943   5.208 -2.3943  2.5139  0.8385
 3831TIP3    H211458   1.628   1.907   5.139 -0.2152 -0.9366 -1.8067
 3832TIP3   OH211459   7.030   6.404   5.165 -0.1635 -0.4737 -0.0849
 3832TIP3    H111460   7.118   6.405   5.204 -0.4203 -0.8885  0.5037
 3832TIP3    H211461   7.002   6.496   5.168 -0.1102 -0.4743  0.5497
 3833TIP3   OH211462   7.073   0.709   1.169  0.0430 -0.2132  0.9291
 3833TIP3    H111463   7.059   0.661   1.251  0.2037 -1.6967  0.1258
 3833TIP3    H211464   6.986   0.720   1.132  0.1703 -2.0645 -0.0367
 3834TIP3   OH211465   6.849   0.971   4.517  0.3013  0.1006  0.0403
 3834TIP3    H111466   6.925   1.028   4.510 -0.2903  0.7782 -1.1040
 3834TIP3    H211467   6.885   0.885   4.541  1.3308  0.5934  0.2978
 3835TIP3   OH211468   2.728   2.576   2.611 -0.4539  0.2384 -0.3563
 3835TIP3    H111469   2.805   2.612   2.567 -0.4660  2.5465  1.3120
 3835TIP3    H211470   2.654   2.621   2.570 -0.6454  0.5492  0.3246
 3836TIP3   OH211471   1.449   4.126   4.696 -0.2839 -0.0745 -0.1364
 3836TIP3    H111472   1.411   4.157   4.614 -0.7022  0.2434  0.1724
 3836TIP3    H211473   1.392   4.163   4.764 -1.2132 -2.0357  0.2384
 3837TIP3   OH211474   0.263   3.199   5.700 -0.1744 -0.6276 -0.0476
 3837TIP3    H111475   0.234   3.170   5.787  1.2892 -1.7799  0.1038
 3837TIP3    H211476   0.198   3.264   5.674 -0.5693 -0.1166  1.9851
 3838TIP3   OH211477   4.095   5.768   1.791  0.2611 -0.1987  0.0959
 3838TIP3    H111478   4.002   5.786   1.808  0.7136  2.5747  0.1372
 3838TIP3    H211479   4.137   5.779   1.876  0.9477  1.5283 -0.4135
 3839TIP3   OH211480   3.728   0.316   5.322 -0.4717 -0.1345  0.3543
 3839TIP3    H111481   3.779   0.394   5.296 -2.4659  0.9445 -0.5400
 3839TIP3    H211482   3.726   0.262   5.243 -1.9849  0.5727 -0.1147
 3840TIP3   OH211483   2.654   3.522   2.243 -0.2169 -0.0760 -0.1458
 3840TIP3    H111484   2.658   3.544   2.150 -0.1478  0.4310 -0.0266
 3840TIP3    H211485   2.729   3.465   2.257 -0.7679 -0.9324 -0.5989
 3841TIP3   OH211486   1.462   3.607   0.169 -0.5949  0.4707  0.0422
 3841TIP3    H111487   1.421   3.689   0.144  0.4058  1.1785  0.6262
 3841TIP3    H211488   1.551   3.632   0.194  0.8036 -1.2020 -2.8076
 3842TIP3   OH211489   6.344   2.452   4.505  0.1130 -0.3527 -0.0381
 3842TIP3    H111490   6.439   2.447   4.497  0.0930 -0.3861 -0.2648
 3842TIP3    H211491   6.329   2.480   4.596  0.3382 -0.3168 -0.0110
 3843TIP3   OH211492   5.513   0.963   4.486 -0.0221  0.1760 -0.1721
 3843TIP3    H111493   5.462   0.965   4.405  0.0388 -0.1952 -0.2242
 3843TIP3    H211494   5.489   1.043   4.532  0.0679  0.4726 -0.6319
 3844TIP3   OH211495   1.625   4.469   1.594  0.3333  0.6698  0.2424
 3844TIP3    H111496   1.714   4.463   1.628  0.1814  1.5223  0.8272
 3844TIP3    H211497   1.629   4.428   1.508  1.4074  1.1428  0.0498
 3845TIP3   OH211498   5.958   1.502   0.167 -0.2056 -0.2216 -0.1916
 3845TIP3    H111499   6.047   1.484   0.138 -0.0659 -0.0124  0.1065
 3845TIP3    H211500   5.946   1.596   0.153 -0.5068 -0.3140 -0.5757
 3846TIP3   OH211501   3.130   2.289   1.170 -0.4247 -0.3095  0.2573
 3846TIP3    H111502   3.125   2.385   1.179  1.5562 -0.1000 -0.3077
 3846TIP3    H211503   3.174   2.260   1.250  1.2444 -0.4291 -0.6634
 3847TIP3   OH211504   5.987   0.764   3.040  0.1962  0.2912 -0.2881
 3847TIP3    H111505   6.067   0.814   3.053  0.6300 -0.2615 -0.7522
 3847TIP3    H211506   5.919   0.830   3.026  0.5833  0.7631  0.0367
 3848TIP3   OH211507   0.780   1.691   5.868 -0.3258  0.8538 -0.7281
 3848TIP3    H111508   0.859   1.677   5.817 -0.6070  0.3077 -1.0293
 3848TIP3    H211509   0.713   1.710   5.803 -0.4709  1.1661 -0.4879
 3849TIP3   OH211510   6.704   4.614   3.710 -0.5050 -0.6694  0.4016
 3849TIP3    H111511   6.641   4.575   3.649  0.3065 -0.4522 -0.5916
 3849TIP3    H211512   6.763   4.542   3.733 -0.4854 -0.6202  0.5064
 3850TIP3   OH211513   0.602   2.371   4.202 -0.0074 -0.2225 -0.3784
 3850TIP3    H111514   0.633   2.294   4.250 -0.8525 -1.3004 -1.5194
 3850TIP3    H211515   0.650   2.444   4.242  0.7535 -1.3080  0.7879
 3851TIP3   OH211516   5.745   0.862   2.929  0.1496  0.5983  0.4479
 3851TIP3    H111517   5.680   0.805   2.971  1.1976 -0.0729  1.2099
 3851TIP3    H211518   5.802   0.801   2.882  1.9483  0.8479  2.1649
 3852TIP3   OH211519   3.979   1.563   0.662 -0.3571  0.4798 -0.1473
 3852TIP3    H111520   3.962   1.471   0.682 -1.4926  0.3432 -1.6411
 3852TIP3    H211521   3.910   1.611   0.709 -0.2288  0.5256 -0.0018
 3853TIP3   OH211522   2.496   4.915   4.056  0.6566  0.1961 -0.2392
 3853TIP3    H111523   2.558   4.842   4.053 -1.3558 -1.6385  0.1380
 3853TIP3    H211524   2.513   4.957   4.141  0.1108 -1.5108  0.7612
 3854TIP3   OH211525   5.796   0.358   0.358 -0.2189  0.1754 -0.1799
 3854TIP3    H111526   5.719   0.321   0.402  0.1557 -0.2479  0.1332
 3854TIP3    H211527   5.846   0.281   0.329  1.3998  0.3318  1.9065
 3855TIP3   OH211528   1.568   5.665   5.160  0.6459  0.3243  0.4437
 3855TIP3    H111529   1.619   5.746   5.155 -1.1003  1.5122  0.9429
 3855TIP3    H211530   1.574   5.639   5.252  1.3916 -0.2680  0.2386
 3856TIP3   OH211531   0.734   3.533   4.027 -0.1834 -0.1524  0.0483
 3856TIP3    H111532   0.744   3.441   4.004 -0.5310  0.0272 -0.8279
 3856TIP3    H211533   0.817   3.556   4.069  1.1715 -0.0520 -2.5108
 3857TIP3   OH211534   1.236   2.470   5.570 -0.2452  0.0478 -0.2047
 3857TIP3    H111535   1.289   2.545   5.597 -1.3141  0.8019 -0.1157
 3857TIP3    H211536   1.146   2.502   5.574 -0.7186 -1.2157 -0.2864
 3858TIP3   OH211537   4.940   6.261   5.588 -0.5575  0.0913  0.2736
 3858TIP3    H111538   4.907   6.302   5.509  0.2617 -0.6511 -0.4801
 3858TIP3    H211539   5.029   6.232   5.565  0.0195  0.5984  1.7144
 3859TIP3   OH211540   7.062   2.207   5.190  0.1217 -0.3538  0.9618
 3859TIP3    H111541   7.123   2.262   5.140  1.4641 -0.8708  1.9853
 3859TIP3    H211542   7.035   2.261   5.264 -1.7790  0.3695 -0.1885
 3860TIP3   OH211543   4.225   1.173   2.825  0.1548  0.2126  0.2519
 3860TIP3    H111544   4.172   1.245   2.789 -1.0797 -0.2701  1.0428
 3860TIP3    H211545   4.253   1.205   2.911 -1.9081 -0.8611  1.4133
 3861TIP3   OH211546   0.888   2.582   2.199  0.3036 -0.0589  0.3921
 3861TIP3    H111547   0.858   2.673   2.204 -0.8306 -0.3798 -0.1045
 3861TIP3    H211548   0.829   2.534   2.257 -0.4318 -0.7706 -0.8897
 3862TIP3   OH211549   3.700   2.105   5.400  0.2947 -0.0668 -0.3576
 3862TIP3    H111550   3.766   2.083   5.333  0.3895 -2.0865  0.3061
 3862TIP3    H211551   3.641   2.030   5.400  0.4619 -0.2846  1.9982
 3863TIP3   OH211552   3.767   1.015   1.231  0.3949 -0.2479 -0.4035
 3863TIP3    H111553   3.728   1.046   1.312  2.3389  0.1960  0.4156
 3863TIP3    H211554   3.719   0.935   1.210 -0.4030 -0.1538  0.9650
 3864TIP3   OH211555   1.303   0.978   2.827 -0.0878  0.6897 -0.0165
 3864TIP3    H111556   1.256   0.898   2.802  1.2995 -0.7738  1.7843
 3864TIP3    H211557   1.371   0.987   2.760  1.5525 -1.3379  1.2787
 3865TIP3   OH211558   0.022   3.114   4.382  0.0656 -0.3750  0.2390
 3865TIP3    H111559   0.006   3.020   4.381  0.7532 -0.4926 -0.0226
 3865TIP3    H211560   0.017   3.140   4.290  1.9916 -0.5328  0.0584
 3866TIP3   OH211561   2.249   1.500   3.441  0.0520  0.3678 -0.1311
 3866TIP3    H111562   2.229   1.437   3.509  0.1902  0.6002  0.1251
 3866TIP3    H211563   2.258   1.447   3.361  0.8318 -0.0142  0.2020
 3867TIP3   OH211564   1.453   5.520   2.853 -0.6364 -0.1751  0.1545
 3867TIP3    H111565   1.386   5.584   2.829 -0.0320  0.5299  0.3213
 3867TIP3    H211566   1.536   5.564   2.833 -0.1532 -0.1409  2.0918
 3868TIP3   OH211567   0.021   0.583   3.922 -0.2134 -0.1501 -0.0404
 3868TIP3    H111568   0.076   0.656   3.894 -1.6397  0.7789 -0.5304
 3868TIP3    H211569  -0.048   0.577   3.856 -2.1109  0.3295  1.7650
 3869TIP3   OH211570   4.361   3.950   2.117  0.0662  0.0188 -0.2883
 3869TIP3    H111571   4.379   3.968   2.209  2.0616 -1.1219 -0.4021
 3869TIP3    H211572   4.404   4.021   2.070 -0.6456  0.4023 -0.3759
 3870TIP3   OH211573   3.088   5.205   2.956 -0.2008 -0.5452  0.3125
 3870TIP3    H111574   3.069   5.160   2.873  2.3595 -0.3345 -0.4699
 3870TIP3    H211575   3.062   5.296   2.940 -0.5439 -0.6786  0.0780
 3871TIP3   OH211576   4.176   0.392   5.340 -0.2820  0.6911 -0.4524
 3871TIP3    H111577   4.271   0.385   5.328 -0.1842 -0.0760  0.6503
 3871TIP3    H211578   4.153   0.475   5.298  0.9866  1.2500 -0.1015
 3872TIP3   OH211579   7.075   2.888   4.836  0.6956 -0.1941 -0.3631
 3872TIP3    H111580   7.074   2.968   4.887 -0.5013 -0.0380 -0.6210
 3872TIP3    H211581   7.027   2.824   4.889 -0.2169 -0.1372 -1.1024
 3873TIP3   OH211582   2.811   3.443   3.906 -0.2470  0.3848 -0.0875
 3873TIP3    H111583   2.894   3.479   3.937  0.1300 -1.6059  1.4573
 3873TIP3    H211584   2.836   3.377   3.842 -0.4674 -1.3583  1.5528
 3874TIP3   OH211585   6.978   1.819   1.713 -0.0157  0.3867 -0.1534
 3874TIP3    H111586   7.034   1.894   1.693 -0.8075  0.8706 -0.6197
 3874TIP3    H211587   7.018   1.779   1.790 -0.0537  1.7978  0.6322
 3875TIP3   OH211588   4.953   1.244   2.777 -0.0056 -0.1313 -0.2418
 3875TIP3    H111589   4.951   1.157   2.739  0.5182 -0.2791  0.0452
 3875TIP3    H211590   4.884   1.243   2.843  0.2560 -0.4671  0.0342
 3876TIP3   OH211591   2.874   6.213   2.860  0.0349  0.4926  0.7816
 3876TIP3    H111592   2.908   6.267   2.789 -1.8192 -1.0849 -1.4153
 3876TIP3    H211593   2.782   6.239   2.868 -0.3678 -0.9505  1.0156
 3877TIP3   OH211594   4.010   4.914   5.487  0.8676  0.1585  0.0600
 3877TIP3    H111595   4.067   4.870   5.425  2.2100  0.3584  1.0931
 3877TIP3    H211596   4.060   4.990   5.516 -0.0696  0.5429  0.7291
 3878TIP3   OH211597   4.822   3.532   2.791 -0.2448  0.3349 -0.0691
 3878TIP3    H111598   4.766   3.505   2.864  0.5234 -0.8441  0.0884
 3878TIP3    H211599   4.880   3.459   2.776 -0.4654  0.4980 -1.9689
 3879TIP3   OH211600   2.908   0.369   5.062 -0.2826 -0.3165 -0.5197
 3879TIP3    H111601   2.959   0.447   5.039 -0.4205 -0.3456 -0.9407
 3879TIP3    H211602   2.952   0.297   5.017 -0.4672 -0.3991 -0.5693
 3880TIP3   OH211603   6.982   5.112   3.355 -0.2524  0.1485  0.6430
 3880TIP3    H111604   7.048   5.164   3.308 -1.8158  0.8606 -0.8755
 3880TIP3    H211605   7.001   5.022   3.329  0.3885  0.2876  0.5916
 3881TIP3   OH211606   6.860   3.256   3.265 -0.2612  0.5132  0.0247
 3881TIP3    H111607   6.887   3.316   3.195 -0.7998 -1.7006 -2.2254
 3881TIP3    H211608   6.785   3.299   3.306 -0.9354  1.2015 -1.8254
 3882TIP3   OH211609   3.256   6.055   3.163 -0.2193  0.3125 -0.0904
 3882TIP3    H111610   3.306   6.034   3.242 -0.1734 -0.0130 -0.2042
 3882TIP3    H211611   3.173   6.007   3.173  0.0377 -0.2329 -0.5263
 3883TIP3   OH211612   5.019   0.499   3.520 -0.7287 -0.0101 -0.6572
 3883TIP3    H111613   5.084   0.441   3.559 -1.1697 -0.3838 -0.4550
 3883TIP3    H211614   4.981   0.447   3.449 -2.3407 -0.6503  0.6108
 3884TIP3   OH211615   6.115   5.603   1.728 -0.1318  0.2797 -0.3159
 3884TIP3    H111616   6.090   5.511   1.736  1.5499 -0.2459 -0.8301
 3884TIP3    H211617   6.190   5.603   1.669  1.5693  1.6765  1.7024
 3885TIP3   OH211618   4.882   1.007   5.533  0.3247  0.1887  0.5509
 3885TIP3    H111619   4.971   1.030   5.559  0.2392 -0.6510  1.6859
 3885TIP3    H211620   4.865   0.924   5.578 -0.8951  0.1416  0.0388
 3886TIP3   OH211621   1.943   3.033   4.317 -0.7732  0.2088  0.8806
 3886TIP3    H111622   1.943   2.943   4.351 -0.6763 -1.3963 -2.8220
 3886TIP3    H211623   2.020   3.037   4.260 -1.0179  2.5445  0.6150
 3887TIP3   OH211624   6.807   5.899   3.887 -0.2541  0.1890  0.1697
 3887TIP3    H111625   6.842   5.814   3.915  0.7844 -0.4094 -2.5611
 3887TIP3    H211626   6.715   5.882   3.868  0.0001 -0.4219 -0.5755
 3888TIP3   OH211627   5.336   5.931   4.921  0.3485  0.6646 -0.3991
 3888TIP3    H111628   5.384   5.984   4.985  0.3365 -0.6736  0.7649
 3888TIP3    H211629   5.402   5.874   4.883 -0.1849 -1.0687  1.0903
 3889TIP3   OH211630   5.938   5.444   4.400 -0.1897  0.3414 -0.2743
 3889TIP3    H111631   5.896   5.388   4.335  1.3891 -0.7680 -0.4132
 3889TIP3    H211632   6.021   5.470   4.360  0.9208 -0.5294  1.3072
 3890TIP3   OH211633   5.823   2.687   3.774  0.1432 -0.3425  0.1322
 3890TIP3    H111634   5.808   2.616   3.838  0.6820  0.7067  1.4768
 3890TIP3    H211635   5.753   2.750   3.792 -0.3855 -0.5376 -1.1188
 3891TIP3   OH211636   5.331   3.301   5.239 -0.2236 -0.7621  0.3641
 3891TIP3    H111637   5.240   3.322   5.261 -0.0950 -1.0600  1.2489
 3891TIP3    H211638   5.373   3.385   5.224 -0.3780 -0.5483  1.1028
 3892TIP3   OH211639   2.909   5.789   5.108 -0.3244 -0.0271 -0.3687
 3892TIP3    H111640   2.819   5.821   5.096  0.4766  2.1442 -1.1055
 3892TIP3    H211641   2.945   5.844   5.178  0.7161 -0.1936 -0.7561
 3893TIP3   OH211642   5.615   5.716   1.522 -0.5098 -0.6167 -0.6552
 3893TIP3    H111643   5.631   5.783   1.456 -0.7741  0.5419  0.4015
 3893TIP3    H211644   5.688   5.655   1.514  1.1866  1.1993  0.0231
 3894TIP3   OH211645   6.426   6.563   4.519 -0.1844 -0.1881 -0.1165
 3894TIP3    H111646   6.476   6.625   4.572 -1.9551  0.4188  0.8909
 3894TIP3    H211647   6.494   6.509   4.477  1.3599  1.5845 -0.0410
 3895TIP3   OH211648   5.078   4.581   3.942 -0.0369  0.3581 -0.7056
 3895TIP3    H111649   5.037   4.508   3.896  0.3657 -0.0290 -0.4581
 3895TIP3    H211650   5.086   4.552   4.032 -1.8936  1.5741 -0.1092
 3896TIP3   OH211651   2.743   0.846   3.401  0.0690  0.5745 -0.1438
 3896TIP3    H111652   2.719   0.918   3.460  0.2211  1.3382 -0.9851
 3896TIP3    H211653   2.679   0.777   3.420 -0.1897  0.9944  0.5592
 3897TIP3   OH211654   2.122   1.731   3.475  0.5207  0.2484  0.4724
 3897TIP3    H111655   2.176   1.792   3.424  2.0704  0.0051  1.7674
 3897TIP3    H211656   2.162   1.645   3.460 -2.2954 -0.7962 -2.2548
 3898TIP3   OH211657   0.561   3.118   3.939 -0.3567 -0.1069  0.3981
 3898TIP3    H111658   0.549   3.036   3.987  0.6860  0.9415  2.6155
 3898TIP3    H211659   0.493   3.176   3.973 -1.3270 -0.1105 -1.4216
 3899TIP3   OH211660   0.696   5.402   0.453 -0.8073  0.4201  0.0904
 3899TIP3    H111661   0.681   5.496   0.462  0.1588  0.8068 -1.7690
 3899TIP3    H211662   0.721   5.373   0.541 -1.1465  1.8895  0.6993
 3900TIP3   OH211663   6.044   6.337   3.768 -0.1963  0.2096  0.3038
 3900TIP3    H111664   6.029   6.318   3.675 -1.0007 -0.0097  0.4688
 3900TIP3    H211665   6.088   6.422   3.768 -0.3380  0.2874 -0.2743
 3901TIP3   OH211666   2.344   1.645   2.711 -0.1506  0.8219  0.4121
 3901TIP3    H111667   2.431   1.613   2.684 -1.3187 -1.8061 -0.5465
 3901TIP3    H211668   2.300   1.665   2.629 -1.3471 -0.5135  0.6919
 3902TIP3   OH211669   3.311   0.153   1.363  0.1044  0.1274  0.2123
 3902TIP3    H111670   3.303   0.105   1.281  1.3938  0.7662 -0.3240
 3902TIP3    H211671   3.352   0.092   1.424  2.5362  0.7418 -0.7144
 3903TIP3   OH211672   2.183   3.272   4.024  0.0713  0.2320  0.0118
 3903TIP3    H111673   2.146   3.194   4.065  1.1057  0.7019  1.9880
 3903TIP3    H211674   2.272   3.247   4.000  0.7076  0.9900  1.4404
 3904TIP3   OH211675   1.327   4.812   3.950 -0.8480  0.0028 -0.3747
 3904TIP3    H111676   1.237   4.813   3.918 -0.7163 -0.5443 -0.7673
 3904TIP3    H211677   1.335   4.728   3.995  0.2896 -1.2410 -2.7551
 3905TIP3   OH211678   3.888   0.198   5.727  0.1199 -0.1223  0.6298
 3905TIP3    H111679   3.794   0.218   5.735  0.1516 -0.0944  0.9701
 3905TIP3    H211680   3.891   0.102   5.721  0.0097 -0.0709 -0.3507
 3906TIP3   OH211681   0.742   6.202   1.200 -0.3647 -0.0404 -0.0219
 3906TIP3    H111682   0.784   6.193   1.115 -0.2294 -0.3869  0.0795
 3906TIP3    H211683   0.803   6.162   1.262 -0.1684  0.7914  0.3252
 3907TIP3   OH211684   4.232   4.419   3.532  0.4621 -0.5449 -0.0638
 3907TIP3    H111685   4.198   4.505   3.556 -0.2579 -1.2197  1.4232
 3907TIP3    H211686   4.179   4.392   3.457 -0.9203 -0.6972  0.9433
 3908TIP3   OH211687   4.956   6.349   3.740  0.2695 -0.2468 -0.3464
 3908TIP3    H111688   4.892   6.416   3.764 -0.4103 -1.0690  0.2049
 3908TIP3    H211689   5.007   6.335   3.820  1.3165  0.5632 -0.8429
 3909TIP3   OH211690   3.919   3.894   2.068 -0.4227 -0.3424  0.5360
 3909TIP3    H111691   3.916   3.988   2.050  0.1404 -0.7678 -2.1694
 3909TIP3    H211692   4.011   3.870   2.061 -0.7412 -1.3667 -0.5567
 3910TIP3   OH211693   0.942   6.356   0.043  0.3087 -0.1200 -0.3751
 3910TIP3    H111694   1.037   6.354   0.053  0.1665 -1.4480  0.9150
 3910TIP3    H211695   0.922   6.284  -0.017  0.1467  0.5268 -1.1166
 3911TIP3   OH211696   4.516   0.043   0.844 -0.5785 -0.3351  0.4583
 3911TIP3    H111697   4.526   0.021   0.752 -0.1008  1.6549 -0.0107
 3911TIP3    H211698   4.497  -0.040   0.887  0.2289 -1.4621 -1.2739
 3912TIP3   OH211699   7.153   2.562   5.858  0.0970  0.6088 -0.5725
 3912TIP3    H111700   7.186   2.652   5.865 -1.5787  1.1561  0.9975
 3912TIP3    H211701   7.063   2.572   5.828 -0.3139 -0.4820  0.2293
 3913TIP3   OH211702   5.446   2.645   2.246 -0.2542 -0.0538 -0.1716
 3913TIP3    H111703   5.374   2.590   2.278  1.5373 -1.4392  1.8296
 3913TIP3    H211704   5.433   2.729   2.290 -0.1777 -0.5825  0.8914
 3914TIP3   OH211705   4.762   4.625   3.914  0.8757 -0.0239 -0.0151
 3914TIP3    H111706   4.798   4.551   3.865  3.6224  1.4766 -0.5222
 3914TIP3    H211707   4.740   4.690   3.847 -0.1275  0.1846  0.4950
 3915TIP3   OH211708   5.827   2.461   1.937 -0.2699 -0.0429 -0.2212
 3915TIP3    H111709   5.778   2.381   1.957 -1.1470  0.0007 -1.9646
 3915TIP3    H211710   5.763   2.532   1.948  0.1822  0.3099  0.1886
 3916TIP3   OH211711   7.128   2.376   2.128  0.1776 -0.3265  0.4624
 3916TIP3    H111712   7.177   2.384   2.210  1.2221  1.0390 -0.2552
 3916TIP3    H211713   7.136   2.462   2.087 -0.9023 -0.7794 -0.7773
 3917TIP3   OH211714   2.577   4.992   4.317  0.2352 -0.5146 -0.2679
 3917TIP3    H111715   2.629   5.016   4.394  0.4850  0.6068 -0.7672
 3917TIP3    H211716   2.496   4.958   4.354 -0.5976  2.0698  0.5659
 3918TIP3   OH211717   0.312   1.055   3.681 -0.1208 -0.2932  0.2348
 3918TIP3    H111718   0.306   1.085   3.771  1.4770  0.5354  0.1077
 3918TIP3    H211719   0.247   1.108   3.634 -0.4522 -0.2132  0.7758
 3919TIP3   OH211720   5.117   2.742   4.863  0.3294  0.0999  0.0745
 3919TIP3    H111721   5.203   2.748   4.907 -0.0255 -0.5456  0.8876
 3919TIP3    H211722   5.128   2.793   4.783  1.3297  0.4350  0.4009
 3920TIP3   OH211723   1.328   5.198   2.993 -0.2884  0.4084  0.3823
 3920TIP3    H111724   1.262   5.134   3.019  0.3523 -0.1187  0.7363
 3920TIP3    H211725   1.403   5.146   2.966 -0.6307  0.9473 -1.7998
 3921TIP3   OH211726   3.174   6.734   0.315 -0.1126 -0.4354  0.2022
 3921TIP3    H111727   3.111   6.665   0.295 -1.0874  0.9865 -1.9192
 3921TIP3    H211728   3.135   6.814   0.280  2.9276  0.4802 -1.4730
 3922TIP3   OH211729   1.175   3.951   0.187 -0.1740  0.0014 -0.2897
 3922TIP3    H111730   1.088   3.914   0.204 -0.3586  0.6997  0.3306
 3922TIP3    H211731   1.195   3.924   0.097 -0.7870 -0.6363 -0.2475
 3923TIP3   OH211732   6.609   4.795   4.491  0.2270  0.0621 -0.3210
 3923TIP3    H111733   6.691   4.769   4.535 -0.4186 -1.1600  0.2179
 3923TIP3    H211734   6.628   4.784   4.398  0.8590  0.3537 -0.2354
 3924TIP3   OH211735   1.257   3.106   5.195  0.1418  0.2068 -0.3564
 3924TIP3    H111736   1.268   3.025   5.146  0.5862 -1.6666  2.6064
 3924TIP3    H211737   1.329   3.162   5.166  0.1663 -0.6494 -2.0369
 3925TIP3   OH211738   2.352   6.524   1.567 -0.1041 -0.1674 -0.0442
 3925TIP3    H111739   2.324   6.459   1.632  2.0405 -0.0658  1.0724
 3925TIP3    H211740   2.274   6.579   1.553 -1.0070 -0.9862  1.4611
 3926TIP3   OH211741   2.184   0.853   5.287  0.2633  0.3354 -0.2130
 3926TIP3    H111742   2.121   0.782   5.274  0.1275  0.5626 -0.8423
 3926TIP3    H211743   2.210   0.878   5.198 -0.6751  1.9688 -0.0688
 3927TIP3   OH211744   2.516   1.813   1.703  0.5172 -0.0741  0.0785
 3927TIP3    H111745   2.446   1.819   1.767  2.1134 -0.5675  1.9515
 3927TIP3    H211746   2.509   1.725   1.667 -0.7165  0.3890 -0.8732
 3928TIP3   OH211747   7.163   3.907   4.929  0.3148  0.2471 -0.5270
 3928TIP3    H111748   7.119   3.873   4.851  0.3353 -0.7322 -0.1267
 3928TIP3    H211749   7.231   3.842   4.949 -0.1802  0.0747  0.7335
 3929TIP3   OH211750   5.400   6.782   0.750  0.2290 -0.0964 -0.2129
 3929TIP3    H111751   5.436   6.762   0.663  0.8622 -0.4350  0.1160
 3929TIP3    H211752   5.476   6.812   0.800 -0.4319  1.8372 -0.2767
 3930TIP3   OH211753   6.977   1.496   3.626  0.0856  0.2940 -0.3656
 3930TIP3    H111754   6.991   1.488   3.532 -1.3650  1.2467 -0.6961
 3930TIP3    H211755   7.058   1.464   3.665 -0.6068 -3.7196 -1.7614
 3931TIP3   OH211756   1.697   6.234   0.824 -0.3631 -0.8502  0.6363
 3931TIP3    H111757   1.776   6.226   0.878  0.5785  1.1672 -0.3292
 3931TIP3    H211758   1.730   6.236   0.734 -1.4527  0.4650  0.2372
 3932TIP3   OH211759   3.500   5.108   3.836  0.4506 -0.6454  0.2248
 3932TIP3    H111760   3.473   5.181   3.781  0.5813 -1.3349 -0.7895
 3932TIP3    H211761   3.528   5.040   3.774  1.1697 -1.2356  1.1548
 3933TIP3   OH211762   6.688   2.492   3.667  0.0104  0.7567  0.2529
 3933TIP3    H111763   6.720   2.491   3.757  0.6503  0.4892  0.0282
 3933TIP3    H211764   6.686   2.400   3.641  0.2952  0.8678 -0.1650
 3934TIP3   OH211765   2.971   4.466   2.060 -0.0218  0.3657  0.5825
 3934TIP3    H111766   3.025   4.533   2.019 -0.7580  0.2442 -0.6505
 3934TIP3    H211767   2.960   4.496   2.151  0.1213  1.6174  0.2088
 3935TIP3   OH211768   2.136   0.467   0.213  0.2069 -0.3233  0.0601
 3935TIP3    H111769   2.146   0.439   0.304 -0.0581 -0.7573 -0.0427
 3935TIP3    H211770   2.045   0.495   0.206  0.3942  0.2940  0.0860
 3936TIP3   OH211771   5.965   1.311   1.936 -0.2363  0.1306  0.0415
 3936TIP3    H111772   6.042   1.302   1.991 -0.5459  1.2080  0.7008
 3936TIP3    H211773   5.990   1.375   1.869  0.5436 -2.0628 -1.8986
 3937TIP3   OH211774   6.293   5.912   0.232 -0.4514 -0.0939  0.5121
 3937TIP3    H111775   6.247   5.959   0.302 -0.3933 -3.1691  2.8349
 3937TIP3    H211776   6.386   5.931   0.248 -0.5098  0.2559  0.4451
 3938TIP3   OH211777   6.602   1.480   4.150 -0.4705  0.2700  0.0778
 3938TIP3    H111778   6.549   1.400   4.148 -3.5253  2.1217  0.4008
 3938TIP3    H211779   6.581   1.520   4.235  1.2263  1.2904  0.0627
 3939TIP3   OH211780   6.467   1.035   4.864 -0.5246  0.9003  0.3966
 3939TIP3    H111781   6.407   1.108   4.849 -0.6492  0.7309  0.0662
 3939TIP3    H211782   6.539   1.049   4.803  0.0988  1.4496  1.2243
 3940TIP3   OH211783   1.145   1.775   3.182  0.2507  0.1002 -0.0879
 3940TIP3    H111784   1.080   1.742   3.243  1.1771  1.3242  1.6380
 3940TIP3    H211785   1.214   1.709   3.182 -0.2652 -0.4543 -0.7352
 3941TIP3   OH211786   3.374   1.519   3.525  0.2871  0.1615 -0.0710
 3941TIP3    H111787   3.460   1.481   3.507 -0.2432 -0.7904 -0.6785
 3941TIP3    H211788   3.358   1.500   3.617  0.4648 -0.2138 -0.1154
 3942TIP3   OH211789   6.321   6.604   5.274 -0.3966  0.7208 -0.4258
 3942TIP3    H111790   6.351   6.527   5.227 -0.3231  0.5663 -0.1287
 3942TIP3    H211791   6.231   6.617   5.244 -0.8867 -0.2981  0.5397
 3943TIP3   OH211792   6.966   3.558   1.836 -0.1743 -0.8205 -0.0293
 3943TIP3    H111793   6.891   3.518   1.793  0.7202 -0.2957 -2.1795
 3943TIP3    H211794   6.931   3.638   1.876 -0.8865 -0.9481 -0.3830
 3944TIP3   OH211795   2.045   0.090   0.161 -0.2448 -0.5303 -0.4397
 3944TIP3    H111796   2.084   0.089   0.248  0.8658 -1.2663 -0.9122
 3944TIP3    H211797   2.093   0.022   0.113 -0.0530  0.6120 -1.9342
 3945TIP3   OH211798   1.920   1.501   1.697 -0.6598 -0.3853 -0.0958
 3945TIP3    H111799   1.896   1.427   1.753 -0.7118 -2.2346 -2.3871
 3945TIP3    H211800   1.858   1.497   1.624  1.0995  0.1710 -1.6986
 3946TIP3   OH211801   3.477   3.195   5.619 -0.4438  0.1268 -0.1098
 3946TIP3    H111802   3.550   3.135   5.638  1.8779  1.9630 -2.5099
 3946TIP3    H211803   3.499   3.275   5.666  0.1670  1.3380 -2.3566
 3947TIP3   OH211804   6.015   4.933   1.027 -0.4369 -0.0840 -0.3528
 3947TIP3    H111805   5.936   4.983   1.010 -0.4335  0.0245 -0.0507
 3947TIP3    H211806   6.002   4.851   0.979 -0.1857  0.4391 -1.3238
 3948TIP3   OH211807   4.829   6.226   0.007 -0.7787  0.1532  0.1354
 3948TIP3    H111808   4.838   6.132   0.015  2.8697  0.5139  2.4545
 3948TIP3    H211809   4.768   6.251   0.076 -0.1030 -0.3353  0.9170
 3949TIP3   OH211810   2.613   5.198   1.021  0.0332  0.5976  0.1547
 3949TIP3    H111811   2.571   5.219   1.104  0.2504 -0.8101  0.6406
 3949TIP3    H211812   2.700   5.239   1.028 -0.0964  0.8282  0.4533
 3950TIP3   OH211813   6.869   3.307   3.803  0.2553  0.3709 -0.1147
 3950TIP3    H111814   6.958   3.272   3.804  0.9777  2.0586 -1.3870
 3950TIP3    H211815   6.821   3.248   3.746  1.7202  1.8616 -3.1212
 3951TIP3   OH211816   0.757   1.341   3.598  0.4493  0.2807  0.2561
 3951TIP3    H111817   0.752   1.370   3.507  0.2839 -0.3001  0.0725
 3951TIP3    H211818   0.674   1.366   3.636 -0.4056 -1.4256 -0.3645
 3952TIP3   OH211819   0.455   1.817   4.919 -0.4842  0.4197  0.1925
 3952TIP3    H111820   0.394   1.758   4.962  0.0027 -0.4426 -0.2740
 3952TIP3    H211821   0.437   1.903   4.957 -2.2329  0.2584 -0.2075
 3953TIP3   OH211822   1.226   5.020   0.065  0.4687 -0.0042  0.0599
 3953TIP3    H111823   1.296   5.072   0.024  0.5395  0.6719  1.0038
 3953TIP3    H211824   1.179   5.083   0.119  1.3422 -1.1372  2.2576
 3954TIP3   OH211825   4.833   4.471   3.255  0.3564 -0.2968 -0.1988
 3954TIP3    H111826   4.774   4.530   3.207 -1.3175  0.0777  2.1245
 3954TIP3    H211827   4.921   4.505   3.237 -0.3975  1.4241 -0.8566
 3955TIP3   OH211828   6.505   2.972   2.842 -0.2785 -0.5448  0.3907
 3955TIP3    H111829   6.479   2.994   2.752 -1.0963 -0.5077  0.6288
 3955TIP3    H211830   6.515   3.056   2.886  0.9077 -0.5328  0.1347
 3956TIP3   OH211831   0.051   6.636   2.592 -0.7287 -0.6855 -0.2524
 3956TIP3    H111832   0.044   6.653   2.498 -0.1336  1.5384  0.0475
 3956TIP3    H211833   0.006   6.710   2.633  0.5326 -0.6995  1.2383
 3957TIP3   OH211834   0.173   1.558   2.219 -0.3158  0.4601  0.5962
 3957TIP3    H111835   0.190   1.495   2.289 -1.5427 -0.9176 -0.3147
 3957TIP3    H211836   0.221   1.524   2.144  0.3134  1.4920  0.5106
 3958TIP3   OH211837   1.685   0.675   0.475  0.2508  0.3481 -0.5791
 3958TIP3    H111838   1.679   0.662   0.380  1.1132 -0.1337 -0.5750
 3958TIP3    H211839   1.610   0.732   0.496 -1.5063 -1.6182 -1.1484
 3959TIP3   OH211840   0.058   4.533   1.527  0.0285  0.5373 -0.3873
 3959TIP3    H111841  -0.034   4.515   1.505  0.1240  0.4283 -0.7003
 3959TIP3    H211842   0.069   4.626   1.509  0.2104  0.3711 -1.1926
 3960TIP3   OH211843   2.302   2.045   4.738 -0.5108  0.1922 -0.3215
 3960TIP3    H111844   2.241   2.118   4.750  0.0021  0.6812 -0.6712
 3960TIP3    H211845   2.372   2.062   4.800 -0.6071 -0.2501 -0.0841
 3961TIP3   OH211846   0.472   3.663   5.894 -0.0410  0.2234 -0.4150
 3961TIP3    H111847   0.562   3.692   5.908  0.2389  0.0375 -1.7418
 3961TIP3    H211848   0.480   3.579   5.849 -0.8436  1.3201 -2.7729
 3962TIP3   OH211849   3.929   2.273   5.038  0.1181  0.2415  0.1678
 3962TIP3    H111850   3.926   2.325   4.958  1.5918  0.7748  0.4395
 3962TIP3    H211851   3.884   2.328   5.103  2.2959  1.5819  0.6366
 3963TIP3   OH211852   4.163   4.922   2.693  0.5230  0.0215 -0.3033
 3963TIP3    H111853   4.114   4.880   2.764  0.3978 -1.3569 -1.1849
 3963TIP3    H211854   4.131   5.013   2.693  0.4607  0.0301  1.3274
 3964TIP3   OH211855   5.864   5.958   1.874  0.6301 -0.8928 -0.6102
 3964TIP3    H111856   5.950   5.917   1.872  1.4176  0.6019  0.5923
 3964TIP3    H211857   5.834   5.948   1.964  0.3792  0.2008 -0.5552
 3965TIP3   OH211858   4.686   4.125   2.749 -0.5631  0.4066 -0.2699
 3965TIP3    H111859   4.726   4.182   2.684 -0.5256  0.3950 -0.2574
 3965TIP3    H211860   4.674   4.181   2.826  1.7444 -0.1790  0.6171
 3966TIP3   OH211861   4.100   5.912   4.036 -0.4595 -0.1143  0.3242
 3966TIP3    H111862   4.051   5.879   3.960 -1.2817  0.0761  0.7681
 3966TIP3    H211863   4.126   5.833   4.083 -0.0295 -0.2306 -0.0942
 3967TIP3   OH211864   4.047   3.641   0.057  0.2305 -0.0561  0.2424
 3967TIP3    H111865   4.011   3.726   0.080  1.6459  1.3303 -2.1933
 3967TIP3    H211866   3.983   3.603  -0.002 -1.3505 -1.6875  2.8190
 3968TIP3   OH211867   5.578   1.399   5.141 -0.6163 -0.1995 -0.1257
 3968TIP3    H111868   5.503   1.386   5.199 -0.6239  0.5926  0.0544
 3968TIP3    H211869   5.650   1.351   5.182  0.1871  2.6338  2.1778
 3969TIP3   OH211870   6.505   3.565   5.567  0.2409  0.4067  0.1896
 3969TIP3    H111871   6.504   3.660   5.553 -0.4872  0.2502 -0.9242
 3969TIP3    H211872   6.425   3.534   5.525  0.1409 -0.6302  1.1138
 3970TIP3   OH211873   2.979   4.372   3.224 -0.1331  0.0315 -0.1726
 3970TIP3    H111874   3.044   4.358   3.155 -0.0553 -2.4247  0.2799
 3970TIP3    H211875   3.030   4.369   3.305 -0.6158 -0.4265  0.1195
 3971TIP3   OH211876   2.638   4.174   4.010 -0.2146 -0.0516  0.2681
 3971TIP3    H111877   2.698   4.249   4.008  0.8863 -0.9103  0.2072
 3971TIP3    H211878   2.573   4.194   3.943  1.0160  0.0861 -0.9116
 3972TIP3   OH211879   3.349   5.159   4.060 -0.2159 -0.1616  0.2503
 3972TIP3    H111880   3.394   5.141   3.977 -0.8693  0.7744 -0.3180
 3972TIP3    H211881   3.349   5.075   4.106  1.7170 -0.3044  0.0844
 3973TIP3   OH211882   4.846   5.324   1.000  0.5855 -0.4734 -0.1737
 3973TIP3    H111883   4.839   5.229   1.007 -1.4494 -0.3667 -0.2920
 3973TIP3    H211884   4.756   5.355   0.993  1.1793  1.5160  0.3101
 3974TIP3   OH211885   4.612   5.672   5.618 -0.5450 -0.6663 -0.2220
 3974TIP3    H111886   4.686   5.690   5.677 -1.0530  0.4410  0.1171
 3974TIP3    H211887   4.565   5.756   5.614 -1.5160 -1.2267 -0.8003
 3975TIP3   OH211888   4.998   1.716   5.073 -0.2564 -0.3298  0.4252
 3975TIP3    H111889   4.936   1.718   5.146  1.8613 -0.2790  2.3569
 3975TIP3    H211890   4.988   1.801   5.030 -1.5753 -0.3806  0.6158
 3976TIP3   OH211891   4.947   1.469   5.825  0.4786 -0.4896  0.2632
 3976TIP3    H111892   4.976   1.523   5.751  1.0348  0.4360  1.1266
 3976TIP3    H211893   4.880   1.412   5.788  1.2297 -0.5353 -1.1093
 3977TIP3   OH211894   5.005   4.093   3.543  0.4520  0.3634  0.4608
 3977TIP3    H111895   4.939   4.116   3.608  0.2701  2.9888 -0.5435
 3977TIP3    H211896   5.084   4.140   3.570  0.4159  1.3956 -1.0713
 3978TIP3   OH211897   4.780   0.153   0.142  0.1102 -0.0209  0.3492
 3978TIP3    H111898   4.717   0.183   0.077 -1.0995 -0.8553  1.1164
 3978TIP3    H211899   4.736   0.083   0.190  1.2168  0.0905  1.6164
 3979TIP3   OH211900   4.409   0.250   3.493 -0.3953  0.1797  0.0793
 3979TIP3    H111901   4.464   0.176   3.522 -0.9650 -0.5079 -0.5505
 3979TIP3    H211902   4.400   0.238   3.399 -1.8552  0.1066  0.2055
 3980TIP3   OH211903   4.808   5.304   4.774 -0.3715  0.1110 -0.0812
 3980TIP3    H111904   4.768   5.390   4.761 -1.4740 -0.3452  0.1941
 3980TIP3    H211905   4.856   5.313   4.856 -0.5341  0.4516 -0.0189
 3981TIP3   OH211906   0.219   1.547   1.917 -0.9116 -0.6769  0.3701
 3981TIP3    H111907   0.310   1.544   1.886 -1.3522 -0.3017 -1.0564
 3981TIP3    H211908   0.182   1.623   1.873 -1.4395  0.3060  2.3897
 3982TIP3   OH211909   0.639   1.280   4.988 -0.0778  0.5641 -0.4174
 3982TIP3    H111910   0.626   1.297   4.895 -0.5379 -0.4581 -0.5618
 3982TIP3    H211911   0.735   1.278   4.999 -0.0232  1.0229 -0.8004
 3983TIP3   OH211912   1.356   2.251   4.582  0.4351  0.3658 -0.2337
 3983TIP3    H111913   1.278   2.230   4.635  1.9588 -2.9525  0.9810
 3983TIP3    H211914   1.409   2.306   4.639  0.8227 -0.8896  0.6540
 3984TIP3   OH211915   1.619   0.150   5.099  0.5051 -0.5794  0.4273
 3984TIP3    H111916   1.529   0.119   5.092  0.1050  0.7379 -0.4538
 3984TIP3    H211917   1.634   0.201   5.020  1.9435 -0.5454  0.6894
 3985TIP3   OH211918   3.296   3.040  -0.013  0.1596 -0.3087  0.4699
 3985TIP3    H111919   3.243   3.048   0.066  0.3964  0.5832  0.5478
 3985TIP3    H211920   3.372   3.097   0.003  0.0004  0.2167 -0.5552
 3986TIP3   OH211921   4.849   5.472   5.133  0.0368 -0.2166 -0.4325
 3986TIP3    H111922   4.839   5.562   5.164 -1.3525 -0.2406 -0.7310
 3986TIP3    H211923   4.884   5.424   5.208  0.4895  0.4928 -0.1731
 3987TIP3   OH211924   4.789   5.691   1.450  0.0924 -0.7687 -0.3456
 3987TIP3    H111925   4.715   5.736   1.409 -1.1098 -0.8517  1.5721
 3987TIP3    H211926   4.804   5.614   1.396 -1.5230 -0.9708 -0.5782
 3988TIP3   OH211927   3.313   4.307   3.182  0.2080  0.1176 -0.4481
 3988TIP3    H111928   3.389   4.357   3.152  1.9888 -1.4756  1.1400
 3988TIP3    H211929   3.252   4.310   3.108  1.4405  2.1327 -1.4802
 3989TIP3   OH211930   0.050   2.779   2.365 -0.0789  0.1238 -0.0865
 3989TIP3    H111931   0.002   2.857   2.335 -0.4461 -0.2349 -0.4427
 3989TIP3    H211932   0.026   2.770   2.457  0.8699  1.0979  0.2803
 3990TIP3   OH211933   1.405   2.962   3.433 -0.2890 -0.1881 -0.6034
 3990TIP3    H111934   1.467   2.990   3.500  0.3538 -1.5050 -0.6122
 3990TIP3    H211935   1.433   2.873   3.410 -2.2118 -0.8500 -0.5722
 3991TIP3   OH211936   4.096   0.580   2.299  0.1823 -0.1786  0.4823
 3991TIP3    H111937   4.134   0.658   2.260  0.6982 -0.0784  1.1737
 3991TIP3    H211938   4.040   0.612   2.370 -1.9172 -0.2615 -1.0315
 3992TIP3   OH211939   4.096   1.590   0.967  0.3595 -0.1583  0.2049
 3992TIP3    H111940   4.043   1.630   0.897  1.1981  1.6649  0.5666
 3992TIP3    H211941   4.185   1.619   0.949  0.4939  0.9989  2.4364
 3993TIP3   OH211942   2.259   1.824   3.248 -0.4169  0.2820 -0.2333
 3993TIP3    H111943   2.238   1.885   3.177  0.8452  0.6359 -0.3265
 3993TIP3    H211944   2.317   1.759   3.208 -1.3016 -0.6803  0.0029
 3994TIP3   OH211945   5.704   3.333   2.704  0.4633  0.3331  0.0898
 3994TIP3    H111946   5.708   3.326   2.800 -0.1858  1.9383  0.2708
 3994TIP3    H211947   5.759   3.409   2.684  0.2313  0.2850 -0.7626
 3995TIP3   OH211948   2.500   0.037   3.984  0.1225 -0.5419  0.2101
 3995TIP3    H111949   2.521   0.052   3.892 -0.2367 -0.3752  0.1533
 3995TIP3    H211950   2.585   0.023   4.026  0.4642  1.2085  0.1793
 3996TIP3   OH211951   2.769   0.712   4.493 -0.0145 -0.8386 -0.2569
 3996TIP3    H111952   2.745   0.620   4.483  3.1439 -1.8182  0.2072
 3996TIP3    H211953   2.864   0.713   4.488 -0.0017  2.7624 -2.6497
 3997TIP3   OH211954   3.670   4.047   4.968 -0.4065  0.3834 -0.4153
 3997TIP3    H111955   3.674   4.119   4.905  2.1586 -0.3207 -1.1766
 3997TIP3    H211956   3.734   3.984   4.936  0.0945 -0.5770  2.2246
 3998TIP3   OH211957   3.726   3.245   0.717  0.2184  0.2133 -0.3999
 3998TIP3    H111958   3.786   3.310   0.682  0.3588  0.1137 -0.3482
 3998TIP3    H211959   3.639   3.276   0.692  0.2918  0.3544 -0.4821
 3999TIP3   OH211960   5.861   4.653   2.340 -0.4341 -0.1417 -0.2671
 3999TIP3    H111961   5.882   4.741   2.374 -0.6246  0.0629 -0.6730
 3999TIP3    H211962   5.776   4.633   2.379 -0.2786 -0.2482  0.0181
 4000TIP3   OH211963   7.178   4.884   3.447  0.0711 -0.1131 -0.2175
 4000TIP3    H111964   7.274   4.876   3.450  0.2479  1.7016 -0.0343
 4000TIP3    H211965   7.156   4.928   3.530 -0.9110 -0.3927 -0.3257
 4001TIP3   OH211966   0.061   1.978   4.075  0.0666 -0.0321  0.3400
 4001TIP3    H111967   0.037   2.060   4.033 -1.1554 -0.4697  0.1363
 4001TIP3    H211968   0.157   1.975   4.070  0.0184  0.4184 -1.4653
 4002TIP3   OH211969   7.133   5.673   3.450 -0.0886  0.3640 -0.0133
 4002TIP3    H111970   7.160   5.737   3.516  1.5990  0.7106 -1.0013
 4002TIP3    H211971   7.110   5.725   3.374 -0.7258 -0.1194 -0.1657
 4003TIP3   OH211972   5.977   0.924   4.310  0.4003 -0.3227  0.2563
 4003TIP3    H111973   5.927   0.852   4.272  0.0436  0.3325 -0.5487
 4003TIP3    H211974   6.054   0.932   4.254  1.5204 -1.4184  1.5714
 4004TIP3   OH211975   0.457   0.055   1.447 -0.3168 -0.1940 -0.1614
 4004TIP3    H111976   0.401   0.120   1.405  0.4431  0.0504 -0.8057
 4004TIP3    H211977   0.464  -0.015   1.382  1.8065  0.6937 -0.9603
 4005TIP3   OH211978   6.908   2.202   5.825  0.3060  0.4762 -0.1172
 4005TIP3    H111979   6.900   2.194   5.730  1.0221  2.1548 -0.3564
 4005TIP3    H211980   6.996   2.238   5.838  0.9928 -1.5402  1.3189
 4006TIP3   OH211981   6.302   5.515   5.435  0.2749 -0.3316  0.1613
 4006TIP3    H111982   6.292   5.610   5.423  0.6809  0.1237  2.8001
 4006TIP3    H211983   6.315   5.504   5.529  2.3820 -2.8269 -0.3151
 4007TIP3   OH211984   5.886   5.272   2.339 -0.5320  0.2839  0.2841
 4007TIP3    H111985   5.860   5.234   2.255  0.5682  0.9664 -0.3982
 4007TIP3    H211986   5.803   5.293   2.382 -1.2116  2.3199 -1.7630
 4008TIP3   OH211987   0.144   5.547   5.482 -0.2718  0.0994  0.0058
 4008TIP3    H111988   0.189   5.583   5.559 -0.7245 -0.0575  0.3482
 4008TIP3    H211989   0.164   5.608   5.412 -2.1670  1.8476  0.8686
 4009TIP3   OH211990   3.028   6.356   2.661 -0.3339  0.0855  0.4342
 4009TIP3    H111991   3.090   6.321   2.597 -0.4780  1.7768 -0.6775
 4009TIP3    H211992   2.942   6.336   2.624 -0.4177  1.2602 -0.0292
 4010TIP3   OH211993   1.340   2.589   0.033  0.3752  0.2519  0.2181
 4010TIP3    H111994   1.308   2.499   0.037 -2.0478  1.0476  0.5872
 4010TIP3    H211995   1.379   2.604   0.119  1.6719 -0.6996 -0.1722
 4011TIP3   OH211996   0.148   6.388   2.277  0.1333  0.2504  0.2110
 4011TIP3    H111997   0.066   6.398   2.229  0.0258  0.1258  0.3651
 4011TIP3    H211998   0.199   6.466   2.256  0.2775 -0.0204 -0.4741
 4012TIP3   OH211999   2.863   4.128   3.127 -1.0125 -0.5142  0.3611
 4012TIP3    H112000   2.897   4.216   3.144  0.9185 -0.7633 -1.7003
 4012TIP3    H212001   2.783   4.142   3.076 -0.9084  0.0540  0.3482
 4013TIP3   OH212002   0.499   3.366   2.393 -0.2859  0.1581 -0.6860
 4013TIP3    H112003   0.572   3.321   2.350 -0.6108  0.9307 -2.0915
 4013TIP3    H212004   0.455   3.414   2.323 -2.1494 -0.2775  0.1181
 4014TIP3   OH212005   3.265   1.818   4.456 -0.2011  0.1197  0.0390
 4014TIP3    H112006   3.185   1.815   4.508 -1.0298  0.3545 -1.1858
 4014TIP3    H212007   3.333   1.784   4.515 -1.0443  0.6162  1.3468
 4015TIP3   OH212008   4.851   0.791   5.692  0.4055 -0.1732 -0.6448
 4015TIP3    H112009   4.917   0.750   5.748  2.3482  0.7543 -2.1474
 4015TIP3    H212010   4.788   0.829   5.754  0.7733 -1.8162  0.8152
 4016TIP3   OH212011   1.774   6.485   0.677  0.3151 -0.3652  0.8727
 4016TIP3    H112012   1.690   6.484   0.632  0.1705  0.9810  1.0831
 4016TIP3    H212013   1.758   6.438   0.758 -0.0479 -0.7296  0.5938
 4017TIP3   OH212014   2.054   5.226   1.943  0.0549 -0.8447 -0.1388
 4017TIP3    H112015   2.102   5.163   1.996 -1.2693 -1.5031  0.3066
 4017TIP3    H212016   2.003   5.173   1.883 -0.4908 -0.1684 -0.2808
 4018TIP3   OH212017   3.126   5.422   3.676  0.3500 -0.0472  0.0911
 4018TIP3    H112018   3.139   5.333   3.707  0.0635  0.3163  1.2909
 4018TIP3    H212019   3.146   5.478   3.751 -0.7701  0.8383 -0.2244
 4019TIP3   OH212020   0.266   5.183   3.626  0.0941  0.5404 -0.1440
 4019TIP3    H112021   0.206   5.171   3.553  1.5079  0.6512 -1.3572
 4019TIP3    H212022   0.257   5.276   3.649  2.1054  1.3867 -2.4627
 4020TIP3   OH212023   6.515   0.751   2.979  0.0101 -0.1006  0.0123
 4020TIP3    H112024   6.570   0.826   3.003  0.0846 -0.1738  0.0670
 4020TIP3    H212025   6.576   0.684   2.952 -0.0853  0.1085 -0.7428
 4021TIP3   OH212026   1.925   6.323   1.266  0.0002  0.0616 -0.3871
 4021TIP3    H112027   1.845   6.374   1.252  0.6754  1.2819 -0.0522
 4021TIP3    H212028   1.993   6.390   1.274  0.8288 -0.8830  0.7577
 4022TIP3   OH212029   6.853   4.751   2.595  0.2314  0.0677 -0.0288
 4022TIP3    H112030   6.894   4.836   2.583 -0.4333  0.3963 -0.0260
 4022TIP3    H212031   6.766   4.761   2.557 -0.4663 -0.0909  1.4467
 4023TIP3   OH212032   2.411   3.480   0.778  0.2026  0.5002 -0.1068
 4023TIP3    H112033   2.362   3.398   0.787  1.5318 -0.2648  0.3578
 4023TIP3    H212034   2.463   3.486   0.858  3.1725 -0.3026 -1.8218
 4024TIP3   OH212035   0.914   4.981   5.366 -0.3559 -0.0498  0.3632
 4024TIP3    H112036   0.942   4.890   5.358  0.6409  0.0997  1.8179
 4024TIP3    H212037   0.965   5.027   5.300 -0.1794 -0.4142  0.2410
 4025TIP3   OH212038   6.584   1.356   3.552  0.0076 -0.3442 -0.5736
 4025TIP3    H112039   6.532   1.287   3.593 -0.7098 -0.2603 -1.3102
 4025TIP3    H212040   6.580   1.337   3.459  1.7756 -0.6395 -0.6234
 4026TIP3   OH212041   6.891   1.991   4.174  0.4004  0.4092 -0.6419
 4026TIP3    H112042   6.932   2.057   4.118  1.4281 -0.6849 -1.2015
 4026TIP3    H212043   6.961   1.962   4.232 -0.2892  0.4755  0.2532
 4027TIP3   OH212044   3.445   4.546   0.717 -0.6771  0.2522 -0.4046
 4027TIP3    H112045   3.431   4.463   0.671 -2.2674  0.8341 -1.0042
 4027TIP3    H212046   3.451   4.521   0.809  0.0505 -0.6424 -0.6734
 4028TIP3   OH212047   0.033   1.464   5.607 -0.2144  0.0597 -0.0432
 4028TIP3    H112048   0.035   1.559   5.620  1.4587  0.0512  0.0312
 4028TIP3    H212049   0.016   1.453   5.513  0.5140  0.4815 -0.2376
 4029TIP3   OH212050   0.415   4.736   0.891  0.3441 -0.3862  0.1698
 4029TIP3    H112051   0.347   4.765   0.830 -0.9866  0.8573  2.1206
 4029TIP3    H212052   0.391   4.646   0.913  1.0301 -0.9757 -1.3026
 4030TIP3   OH212053   3.791   0.173   2.167 -0.2161 -0.7380 -0.4104
 4030TIP3    H112054   3.758   0.128   2.089  0.6622 -0.2090 -1.0954
 4030TIP3    H212055   3.886   0.170   2.158 -0.1028  1.8956 -0.8696
 4031TIP3   OH212056   6.239   5.342   3.797  0.3360 -0.4156  0.3767
 4031TIP3    H112057   6.242   5.262   3.744 -0.3064 -0.8804  1.0301
 4031TIP3    H212058   6.315   5.392   3.768  0.9660 -1.4280  0.2170
 4032TIP3   OH212059   5.715   1.683   0.409 -0.4523  0.1392 -0.6065
 4032TIP3    H112060   5.677   1.738   0.478 -1.0575  0.1257 -0.9203
 4032TIP3    H212061   5.710   1.594   0.444  2.6024  0.4081  0.8788
 4033TIP3   OH212062   0.915   1.003   5.653 -0.1711 -0.5780 -0.6943
 4033TIP3    H112063   0.995   0.955   5.632  0.0148  0.5919 -3.0476
 4033TIP3    H212064   0.848   0.963   5.598 -1.0445 -1.0354  0.6755
 4034TIP3   OH212065   1.957   0.024   4.112 -0.6559 -0.3254 -0.3069
 4034TIP3    H112066   1.918   0.021   4.024  1.1406  0.0339 -1.1669
 4034TIP3    H212067   2.015   0.100   4.110  0.8912 -1.4160  0.5197
 4035TIP3   OH212068   2.599   3.596   4.712 -0.4954 -0.1744 -0.4527
 4035TIP3    H112069   2.541   3.559   4.778  1.1322 -1.0469  0.5543
 4035TIP3    H212070   2.642   3.520   4.673  0.2645  0.4682 -0.8875
 4036TIP3   OH212071   5.298   0.100   1.009  0.3936 -0.0750  0.1307
 4036TIP3    H112072   5.229   0.135   1.066  0.8134 -1.4290  1.5359
 4036TIP3    H212073   5.252   0.040   0.950  0.2344 -0.3117  0.4890
 4037TIP3   OH212074   2.052   5.195   2.785 -0.2144 -0.5796  0.4701
 4037TIP3    H112075   1.998   5.227   2.857  0.3709 -0.7619  1.0020
 4037TIP3    H212076   2.025   5.246   2.709 -2.5531 -2.0153  0.2466
 4038TIP3   OH212077   0.912   6.068   3.337 -0.0057  0.2806  0.3794
 4038TIP3    H112078   0.959   6.151   3.346  1.3146 -0.6173  2.5785
 4038TIP3    H212079   0.834   6.078   3.390  0.7652 -0.2581  1.6523
 4039TIP3   OH212080   5.607   5.878   3.820  0.0384  0.7825  0.2269
 4039TIP3    H112081   5.585   5.790   3.851 -1.1136  0.6744 -0.8136
 4039TIP3    H212082   5.694   5.896   3.857  0.3208 -0.8121  0.4023
 4040TIP3   OH212083   3.379   3.687   0.817  0.3643 -0.4534  0.0957
 4040TIP3    H112084   3.334   3.701   0.900  0.9787 -1.2033  0.5764
 4040TIP3    H212085   3.396   3.775   0.783 -1.3013 -0.1448 -0.0365
 4041TIP3   OH212086   2.431   3.122   3.329 -0.3570 -0.0214  0.3986
 4041TIP3    H112087   2.510   3.149   3.282 -0.8319 -0.7178 -0.8398
 4041TIP3    H212088   2.450   3.142   3.421  0.6709  1.1966 -0.0476
 4042TIP3   OH212089   5.313   6.109   3.153  0.3264 -0.1323  0.1457
 4042TIP3    H112090   5.258   6.094   3.076  0.2988  0.4707  0.0477
 4042TIP3    H212091   5.385   6.047   3.143  1.1497  0.9769 -1.1652
 4043TIP3   OH212092   6.458   5.349   1.663 -0.4470 -0.4442 -0.2713
 4043TIP3    H112093   6.505   5.269   1.686  0.5191  0.5287  1.3787
 4043TIP3    H212094   6.369   5.335   1.698 -0.3258 -0.8515 -0.1166
 4044TIP3   OH212095   4.331   1.657   0.878  0.4406  0.0077  0.0078
 4044TIP3    H112096   4.374   1.742   0.885  1.1865 -0.4046  0.5120
 4044TIP3    H212097   4.400   1.597   0.852  0.0829 -0.5808  0.3890
 4045TIP3   OH212098   6.189   6.466   0.673  1.3721  0.7876 -0.3297
 4045TIP3    H112099   6.219   6.556   0.678 -1.5330  1.7488  1.4109
 4045TIP3    H212100   6.129   6.455   0.746 -0.7456 -1.6269 -2.2263
 4046TIP3   OH212101   2.868   4.303   1.157 -0.1827 -0.3006  0.6082
 4046TIP3    H112102   2.948   4.270   1.198  0.5351 -0.3583 -0.7946
 4046TIP3    H212103   2.882   4.397   1.147 -0.8325 -0.0935  1.5132
 4047TIP3   OH212104   4.586   6.325   2.238 -0.2472  0.3445  0.3143
 4047TIP3    H112105   4.558   6.259   2.301 -0.5119  0.2762  0.1229
 4047TIP3    H212106   4.678   6.343   2.261 -0.2017 -0.0231  0.4195
 4048TIP3   OH212107   6.481   5.889   4.425 -0.0198  0.0893  0.7919
 4048TIP3    H112108   6.500   5.817   4.365 -0.1217  1.2054 -0.6179
 4048TIP3    H212109   6.550   5.885   4.491  0.8488 -0.3622 -0.1330
 4049TIP3   OH212110   0.518   6.560   2.034 -0.0428 -0.4160  0.3589
 4049TIP3    H112111   0.558   6.473   2.044  0.8709  0.1131  1.6407
 4049TIP3    H212112   0.478   6.577   2.119 -0.6259  0.2304 -0.0410
 4050TIP3   OH212113   5.274   5.538   4.539 -0.2348  0.6633 -0.7151
 4050TIP3    H112114   5.254   5.595   4.613  1.8465  0.8549 -0.2502
 4050TIP3    H212115   5.333   5.471   4.575  0.1055  0.2461 -1.9974
 4051TIP3   OH212116   5.531   5.379   3.198 -0.2007  0.2228  0.2375
 4051TIP3    H112117   5.461   5.412   3.142 -1.0043 -2.6200 -0.5566
 4051TIP3    H212118   5.520   5.426   3.281 -2.0635  0.9211 -0.3642
 4052TIP3   OH212119   5.251   3.327   1.983 -0.2129  0.1173  0.4318
 4052TIP3    H112120   5.268   3.235   1.960 -0.3177 -0.2529  1.7570
 4052TIP3    H212121   5.306   3.343   2.059  1.2621  1.7604 -0.9297
 4053TIP3   OH212122   1.584   3.451   2.271  0.8966 -0.1234 -0.1518
 4053TIP3    H112123   1.580   3.421   2.180  2.6745 -1.0099  0.0147
 4053TIP3    H212124   1.606   3.372   2.320  1.2622  0.6077  0.8836
 4054TIP3   OH212125   5.689   0.510   5.064  0.7013 -0.2226 -0.1860
 4054TIP3    H112126   5.706   0.536   4.973  2.0087  0.0139  0.1091
 4054TIP3    H212127   5.749   0.563   5.116  0.3697 -0.7708  0.7736
 4055TIP3   OH212128   5.809   4.632   1.237  0.0637  0.4559 -0.1343
 4055TIP3    H112129   5.829   4.540   1.221 -0.9972  0.3132 -0.7232
 4055TIP3    H212130   5.767   4.662   1.157  2.2052  2.0289 -0.7786
 4056TIP3   OH212131   3.024   5.251   0.139  0.1037 -0.7893  0.3272
 4056TIP3    H112132   3.098   5.198   0.107  0.4323 -0.3611  0.3688
 4056TIP3    H212133   2.963   5.254   0.065 -0.6292 -2.4812  0.8141
 4057TIP3   OH212134   0.797   3.916   5.199 -0.1092 -0.2244 -0.1048
 4057TIP3    H112135   0.859   3.848   5.224 -0.0449 -0.2313 -0.2845
 4057TIP3    H212136   0.724   3.906   5.260 -0.4662 -0.9675 -0.6388
 4058TIP3   OH212137   1.392   3.673   1.988  0.1903 -0.0481  0.4823
 4058TIP3    H112138   1.356   3.589   2.017 -2.7645  1.2979  1.0944
 4058TIP3    H212139   1.431   3.711   2.067 -0.2902  0.0036  0.6979
 4059TIP3   OH212140   1.547   2.824   0.390  0.1143  0.3171  0.1582
 4059TIP3    H112141   1.481   2.831   0.459  1.1071 -0.8516  1.2770
 4059TIP3    H212142   1.511   2.761   0.328  0.0466 -0.1032  0.6203
 4060TIP3   OH212143   4.731   5.182   3.494 -0.2618 -0.6200 -0.2680
 4060TIP3    H112144   4.803   5.208   3.436 -0.4185 -1.6790 -0.9684
 4060TIP3    H212145   4.770   5.183   3.581 -0.2325  1.7819 -0.2360
 4061TIP3   OH212146   3.017   6.497   4.061  0.4254 -0.2333  0.0425
 4061TIP3    H112147   3.097   6.541   4.088  0.4330  0.2241 -0.6905
 4061TIP3    H212148   2.977   6.556   3.998  0.2490 -1.1145 -0.6995
 4062TIP3   OH212149   1.562   1.458   2.045 -0.4747  0.0754  0.3121
 4062TIP3    H112150   1.510   1.441   2.124  1.5227  4.1310  2.8586
 4062TIP3    H212151   1.627   1.389   2.044 -1.8859 -1.3270  0.8603
 4063TIP3   OH212152   0.888   2.053   1.840 -0.2401 -0.0278  0.1714
 4063TIP3    H112153   0.890   1.959   1.824 -1.1145 -0.4550  2.2719
 4063TIP3    H212154   0.913   2.092   1.756  0.8558 -2.1199 -0.5472
 4064TIP3   OH212155   4.343   0.663   4.187 -0.1242 -1.0002  0.2044
 4064TIP3    H112156   4.398   0.589   4.160  1.5944 -0.2167  1.3627
 4064TIP3    H212157   4.295   0.631   4.263 -0.8842 -1.5225 -0.4850
 4065TIP3   OH212158   2.434   5.453   0.197 -0.2018  0.2351 -0.2805
 4065TIP3    H112159   2.461   5.503   0.274 -0.3638 -0.5449  0.2932
 4065TIP3    H212160   2.380   5.514   0.146 -1.8058  0.1593  1.2453
 4066TIP3   OH212161   6.206   1.851   0.016 -0.0808  0.1075  0.2879
 4066TIP3    H112162   6.280   1.900   0.053  0.7395 -0.2256 -0.8492
 4066TIP3    H212163   6.247   1.774  -0.024 -0.9519  0.3087 -1.0395
 4067TIP3   OH212164   6.015   4.417   5.422  0.0074  0.2521 -0.4423
 4067TIP3    H112165   6.023   4.355   5.350 -0.0613  0.9816 -1.0984
 4067TIP3    H212166   5.921   4.433   5.430  0.1210  1.6949 -1.5594
 4068TIP3   OH212167   2.323   1.559   4.902  0.3867  0.6058  0.2240
 4068TIP3    H112168   2.241   1.604   4.925 -0.5590 -0.2323 -1.2975
 4068TIP3    H212169   2.369   1.620   4.845  0.8314  1.0647  1.0541
 4069TIP3   OH212170   1.537   5.007   3.029 -0.2189  0.1222 -0.3649
 4069TIP3    H112171   1.630   4.996   3.008 -0.2755  1.5125 -1.5306
 4069TIP3    H212172   1.537   5.061   3.108 -0.0426 -1.9275  1.0956
 4070TIP3   OH212173   6.008   5.683   5.070  0.3091  0.5751  0.6676
 4070TIP3    H112174   6.050   5.623   5.131 -0.6336  1.3460  2.1443
 4070TIP3    H212175   5.917   5.687   5.099  0.0867  1.8074 -0.1195
 4071TIP3   OH212176   0.049   2.412   3.226 -0.1850 -0.0621  0.1003
 4071TIP3    H112177   0.052   2.325   3.187 -1.8590  0.4916 -1.4175
 4071TIP3    H212178   0.094   2.403   3.310 -2.3573 -3.0157  1.1168
 4072TIP3   OH212179   3.856   4.360   4.650 -0.9293 -0.1360 -0.1446
 4072TIP3    H112180   3.940   4.402   4.631 -1.3601  0.5073 -0.6397
 4072TIP3    H212181   3.823   4.331   4.565 -2.9346  2.8877 -0.5439
 4073TIP3   OH212182   6.784   5.945   1.373 -0.8566  0.0639  0.0078
 4073TIP3    H112183   6.814   6.000   1.445 -0.5911 -0.5548  0.3881
 4073TIP3    H212184   6.855   5.881   1.361 -0.7901  0.3051 -0.9684
 4074TIP3   OH212185   6.472   2.665   1.764 -0.5334 -0.0069 -0.2836
 4074TIP3    H112186   6.428   2.686   1.846  1.4314 -0.1262  0.8582
 4074TIP3    H212187   6.437   2.580   1.739 -1.2318  0.0806  0.3578
 4075TIP3   OH212188   2.626   1.764   2.114  0.0832 -0.5524 -0.1416
 4075TIP3    H112189   2.682   1.827   2.161  0.9124 -1.5394  0.2413
 4075TIP3    H212190   2.568   1.818   2.061  1.0730  0.5260 -0.1657
 4076TIP3   OH212191   0.777   3.394   3.664  0.5232 -0.5554 -0.0436
 4076TIP3    H112192   0.799   3.389   3.757 -0.2496 -0.3244  0.1529
 4076TIP3    H212193   0.859   3.423   3.622  0.1908  1.9282  0.8754
 4077TIP3   OH212194   1.831   3.669   2.840 -0.4690 -0.0563 -0.0370
 4077TIP3    H112195   1.791   3.744   2.883  0.5720 -0.1741  1.1752
 4077TIP3    H212196   1.784   3.593   2.875  1.6217 -0.3156  2.4956
 4078TIP3   OH212197   3.509   0.484   3.115  0.0111  0.2640  0.0691
 4078TIP3    H112198   3.514   0.518   3.204  0.6658  1.8679 -0.5440
 4078TIP3    H212199   3.461   0.402   3.124 -0.3237  0.6001  1.8360
 4079TIP3   OH212200   4.018   4.654   1.845 -0.5395  0.1051 -0.2882
 4079TIP3    H112201   4.114   4.648   1.850 -0.4984  0.9895  0.3594
 4079TIP3    H212202   4.001   4.699   1.762 -0.3902  0.0547 -0.3463
 4080TIP3   OH212203   1.788   2.647   1.696 -0.6465 -0.3398 -0.3360
 4080TIP3    H112204   1.769   2.717   1.759 -1.2357 -1.6973  1.0417
 4080TIP3    H212205   1.828   2.693   1.622  0.4802  1.2555  1.1731
 4081TIP3   OH212206   5.562   6.369   3.251  0.1192 -0.8055 -0.4767
 4081TIP3    H112207   5.495   6.306   3.227 -2.3502  1.7592 -0.9153
 4081TIP3    H212208   5.566   6.429   3.176  1.5507  0.1582  0.3224
 4082TIP3   OH212209   0.053   5.231   5.807 -0.2630  0.2807  0.0453
 4082TIP3    H112210   0.005   5.296   5.756  0.8812  1.3718  0.2876
 4082TIP3    H212211  -0.002   5.154   5.807 -0.8658  0.6788 -1.7557
 4083TIP3   OH212212   0.348   2.793   2.200 -0.3317 -0.6807  0.3056
 4083TIP3    H112213   0.291   2.855   2.154 -0.1815 -0.6467  0.1653
 4083TIP3    H212214   0.328   2.708   2.161 -0.1808 -0.6471  0.1527
 4084TIP3   OH212215   4.457   2.727   4.520  0.6281  0.5084  0.2993
 4084TIP3    H112216   4.384   2.775   4.560 -0.4655 -1.0521  0.2590
 4084TIP3    H212217   4.449   2.638   4.554  1.2726 -0.2106 -1.3026
 4085TIP3   OH212218   3.384   5.353   4.718 -0.1930  0.1430 -0.0924
 4085TIP3    H112219   3.394   5.441   4.682 -2.3960  0.4818 -0.0494
 4085TIP3    H212220   3.363   5.368   4.811  1.9133 -0.5727  0.5561
 4086TIP3   OH212221   5.150   6.106   2.939 -0.2392  0.4175  0.7302
 4086TIP3    H112222   5.168   6.171   2.871 -1.9204  0.6272  0.4243
 4086TIP3    H212223   5.058   6.081   2.924 -1.3734  1.9193  4.0886
 4087TIP3   OH212224   7.095   3.008   3.105  1.1332 -0.1036 -0.2325
 4087TIP3    H112225   7.147   3.051   3.038  0.9244 -0.8311 -0.8739
 4087TIP3    H212226   7.009   2.995   3.064  0.8944 -0.2321  0.3006
 4088TIP3   OH212227   0.295   3.839   0.125 -1.2631  0.6959  0.3541
 4088TIP3    H112228   0.226   3.851   0.190 -2.3993 -0.0146 -0.6599
 4088TIP3    H212229   0.298   3.744   0.111 -1.0687  0.8319 -0.6319
 4089TIP3   OH212230   0.645   4.040   2.513  0.7302  0.2564 -0.4676
 4089TIP3    H112231   0.688   4.069   2.593  0.3613  0.0035 -0.1682
 4089TIP3    H212232   0.556   4.076   2.519 -0.0300 -1.5790  0.3373
 4090TIP3   OH212233   1.893   4.241   4.050  0.5148  0.3582  0.1118
 4090TIP3    H112234   1.896   4.153   4.089 -3.0202  0.5637  1.1929
 4090TIP3    H212235   1.874   4.299   4.123 -0.7674  1.5145 -1.0785
 4091TIP3   OH212236   3.764   6.108   1.852 -0.0071  0.4348 -0.3862
 4091TIP3    H112237   3.735   6.106   1.761 -0.7444 -0.4385 -0.1513
 4091TIP3    H212238   3.855   6.138   1.848  0.4436 -0.9868 -1.5452
 4092TIP3   OH212239   3.985   0.562   2.952 -0.5534 -0.1728  0.3880
 4092TIP3    H112240   4.069   0.598   2.979 -0.6040  0.3658 -0.1595
 4092TIP3    H212241   3.971   0.487   3.011  0.5005 -0.5392  0.1921
 4093TIP3   OH212242   5.332   5.192   4.134  0.0175  0.4858 -0.5952
 4093TIP3    H112243   5.378   5.110   4.116  0.0469 -0.0212  1.4753
 4093TIP3    H212244   5.290   5.215   4.051 -2.3374 -3.1277 -0.6378
 4094TIP3   OH212245   2.120   5.363   2.389  0.1212 -0.0490  0.1091
 4094TIP3    H112246   2.105   5.378   2.296  0.7802  1.0536  0.1622
 4094TIP3    H212247   2.058   5.294   2.413  0.7622 -1.1991 -1.4088
 4095TIP3   OH212248   0.945   3.104   1.767  0.4153  1.2742  0.0196
 4095TIP3    H112249   0.993   3.164   1.710  1.5921  1.3147  1.0114
 4095TIP3    H212250   0.865   3.085   1.719  1.7867  0.4825 -2.1478
 4096TIP3   OH212251   5.810   0.699   1.677  0.1963 -0.1862 -0.0262
 4096TIP3    H112252   5.843   0.624   1.726  2.3598  0.3815 -0.4936
 4096TIP3    H212253   5.852   0.775   1.719 -1.0135  0.6587 -0.3005
 4097TIP3   OH212254   7.024   3.757   4.750 -0.5079 -0.4027  0.3357
 4097TIP3    H112255   6.945   3.802   4.779  0.4190  2.3837 -1.1035
 4097TIP3    H212256   6.994   3.696   4.683 -1.4184  1.1502 -0.7340
 4098TIP3   OH212257   1.998   1.319   5.294  0.0235 -0.0260 -0.3680
 4098TIP3    H112258   2.076   1.266   5.275  0.2793 -0.1794  1.0077
 4098TIP3    H212259   2.033   1.406   5.311 -0.1498  0.0140 -0.2206
 4099TIP3   OH212260   6.727   6.318   0.315  0.5585  0.8210  0.1375
 4099TIP3    H112261   6.649   6.360   0.281 -2.3288 -3.2883  0.8622
 4099TIP3    H212262   6.773   6.285   0.238 -0.9544 -0.5434 -0.2337
 4100TIP3   OH212263   0.745   0.721   1.684 -0.0532 -0.2598  0.1602
 4100TIP3    H112264   0.821   0.776   1.704 -0.7650  0.6928  0.3273
 4100TIP3    H212265   0.736   0.727   1.589  0.7029 -1.2343  0.0144
 4101TIP3   OH212266   3.719   0.723   3.979 -0.0698  0.0556 -0.2776
 4101TIP3    H112267   3.744   0.810   4.011 -0.7026  0.2138 -0.1875
 4101TIP3    H212268   3.716   0.668   4.057  1.8705 -0.4619 -0.5160
 4102TIP3   OH212269   4.468   3.465   0.302 -0.0137 -0.2846  0.3583
 4102TIP3    H112270   4.504   3.379   0.323  0.8084  0.1297  0.6850
 4102TIP3    H212271   4.511   3.489   0.220 -0.0430 -0.0659  0.4066
 4103TIP3   OH212272   2.381   6.271   3.001  0.3091 -0.1796 -0.1752
 4103TIP3    H112273   2.328   6.195   2.977  0.1797 -0.0770 -0.2154
 4103TIP3    H212274   2.442   6.237   3.067 -0.1659 -0.1758  0.2727
 4104TIP3   OH212275   2.650   6.041   4.840  0.4538 -0.0556  0.1438
 4104TIP3    H112276   2.676   6.075   4.755  0.1472 -0.3606 -0.0720
 4104TIP3    H212277   2.651   6.117   4.898  0.7355  0.1383 -0.1132
 4105TIP3   OH212278   1.012   5.108   3.992  0.0105  0.4377  0.1875
 4105TIP3    H112279   1.053   5.156   4.064 -1.1285 -0.9891  1.8579
 4105TIP3    H212280   0.920   5.135   3.995 -0.4967 -1.2418  0.7010
 4106TIP3   OH212281   6.109   1.908   5.483  0.3676  0.0558 -0.5904
 4106TIP3    H112282   6.191   1.887   5.439  0.0199 -0.5113 -0.9848
 4106TIP3    H212283   6.131   1.977   5.545  0.9335  0.6529 -1.4426
 4107TIP3   OH212284   0.973   1.089   0.498 -0.6220 -0.0226 -0.0151
 4107TIP3    H112285   1.007   1.145   0.568 -0.9634  1.9034 -1.2955
 4107TIP3    H212286   0.910   1.031   0.541  0.9733 -0.5856  1.6416
 4108TIP3   OH212287   5.403   5.734   0.826  0.0393  0.0736 -0.0628
 4108TIP3    H112288   5.407   5.701   0.915  1.3859 -0.5766 -0.3419
 4108TIP3    H212289   5.353   5.669   0.777  1.4706 -0.8837 -0.3048
 4109TIP3   OH212290   2.201   4.707   2.508 -0.4800  0.2468 -0.2654
 4109TIP3    H112291   2.174   4.697   2.417 -0.5875 -0.3607 -0.1733
 4109TIP3    H212292   2.192   4.800   2.526 -0.9254  0.2992 -0.7345
 4110TIP3   OH212293   3.551   5.030   0.399  0.2202 -0.2953 -0.0920
 4110TIP3    H112294   3.470   5.018   0.450  1.1341  1.0857  1.7875
 4110TIP3    H212295   3.553   4.954   0.341 -2.1925 -0.6099  0.1037
 4111TIP3   OH212296   6.572   6.196   4.523  0.1313 -0.7409  0.0703
 4111TIP3    H112297   6.648   6.167   4.471  1.4822 -0.7445  1.9687
 4111TIP3    H212298   6.598   6.280   4.559 -0.8419 -0.6819  0.6547
 4112TIP3   OH212299   0.605   0.569   2.645 -0.4157 -0.7455  0.3250
 4112TIP3    H112300   0.603   0.653   2.692 -3.1808 -0.9057  0.6555
 4112TIP3    H212301   0.690   0.531   2.668  0.2745  1.2796  1.3887
 4113TIP3   OH212302   1.522   5.379   4.359  0.2560 -0.0569  0.0159
 4113TIP3    H112303   1.615   5.394   4.378  0.0821  2.2972 -0.6643
 4113TIP3    H212304   1.520   5.349   4.269  0.3456  0.0778 -0.0312
 4114TIP3   OH212305   3.436   1.843   2.890 -0.3488  0.3516 -0.1515
 4114TIP3    H112306   3.388   1.920   2.859  1.4349  0.8891 -1.7125
 4114TIP3    H212307   3.513   1.878   2.934 -0.7486 -0.5365  1.3739
 4115TIP3   OH212308   2.798   2.788   4.238 -0.3892 -0.3420 -0.2343
 4115TIP3    H112309   2.709   2.774   4.207 -0.5526 -1.5997  0.6956
 4115TIP3    H212310   2.789   2.799   4.333  0.4048 -0.0900 -0.1815
 4116TIP3   OH212311   3.388   3.634   5.035  0.4886 -0.3296  0.7910
 4116TIP3    H112312   3.317   3.636   5.100  0.1978  0.8561  0.4637
 4116TIP3    H212313   3.430   3.720   5.043  0.2121 -0.0184 -0.8252
 4117TIP3   OH212314   4.646   0.215   2.078  0.6372 -0.2028  0.3581
 4117TIP3    H112315   4.716   0.234   2.140  0.0352  0.5816  0.8167
 4117TIP3    H212316   4.588   0.291   2.084 -0.0954 -0.7090 -0.2261
 4118TIP3   OH212317   6.149   4.792   2.229 -0.1309 -0.3145 -0.3344
 4118TIP3    H112318   6.107   4.807   2.314  2.2027 -2.0869  1.2514
 4118TIP3    H212319   6.161   4.880   2.192 -1.5762  0.4564  0.9480
 4119TIP3   OH212320   6.330   4.383   1.660 -0.2167 -0.2160 -0.0687
 4119TIP3    H112321   6.403   4.327   1.687 -0.4313 -0.1959  0.5624
 4119TIP3    H212322   6.361   4.472   1.677  0.4210 -0.0793 -1.7891
 4120TIP3   OH212323   6.201   6.701   0.980  0.4454  0.1185 -0.1913
 4120TIP3    H112324   6.187   6.788   1.019 -1.1016 -0.1959  0.0442
 4120TIP3    H212325   6.153   6.641   1.038 -0.9741 -0.4984 -1.9188
 4121TIP3   OH212326   0.414   2.117   1.279  0.1514 -0.0167  0.5060
 4121TIP3    H112327   0.346   2.137   1.215 -0.5174 -0.9183  0.9079
 4121TIP3    H212328   0.401   2.183   1.348 -0.8716 -0.6661  0.9692
 4122TIP3   OH212329   2.057   4.068   5.103 -0.0925 -0.5104 -0.2085
 4122TIP3    H112330   2.009   3.986   5.097  2.2035 -2.0029  0.6755
 4122TIP3    H212331   2.148   4.043   5.117  0.6408  2.1936  0.6094
 4123TIP3   OH212332   5.306   1.484   4.016  0.2028  0.0240 -0.1495
 4123TIP3    H112333   5.218   1.521   4.027 -0.4424 -1.1201 -1.3067
 4123TIP3    H212334   5.333   1.462   4.106 -1.8230 -2.0951  0.0433
 4124TIP3   OH212335   2.173   6.100   3.224  0.4192 -0.3594  0.1861
 4124TIP3    H112336   2.114   6.175   3.227  1.4914  0.6005 -1.2099
 4124TIP3    H212337   2.157   6.053   3.306 -1.2438  0.6316  0.4784
 4125TIP3   OH212338   6.867   6.350   5.752 -0.2222 -0.1910 -0.8067
 4125TIP3    H112339   6.933   6.282   5.743 -0.6860 -0.8033  0.2366
 4125TIP3    H212340   6.878   6.382   5.842 -0.9881  0.0670 -0.7995
 4126TIP3   OH212341   6.496   4.849   3.667 -0.2659 -0.5051  0.2712
 4126TIP3    H112342   6.462   4.769   3.629  0.1830  0.0240 -1.3047
 4126TIP3    H212343   6.428   4.914   3.652 -0.0111 -0.2517  0.2008
 4127TIP3   OH212344   2.094   6.711   2.609 -0.2749 -0.3090 -0.0696
 4127TIP3    H112345   2.092   6.760   2.527 -1.3273 -1.7213 -0.9227
 4127TIP3    H212346   2.173   6.658   2.605 -0.5809 -0.7435 -0.4018
 4128TIP3   OH212347   0.269   6.670   4.863  0.2859 -0.0695  0.2433
 4128TIP3    H112348   0.258   6.723   4.785  1.9759 -1.4608 -1.0089
 4128TIP3    H212349   0.335   6.716   4.915  0.1479  0.1577  0.2192
 4129TIP3   OH212350   2.425   5.656   4.980  0.4882 -0.1528  0.0475
 4129TIP3    H112351   2.387   5.600   5.048 -0.2844 -0.6769 -0.7894
 4129TIP3    H212352   2.485   5.713   5.027 -0.4444 -0.1237  1.2570
 4130TIP3   OH212353   3.163   1.266   1.414  0.1056 -0.0452  0.6200
 4130TIP3    H112354   3.163   1.259   1.319 -0.1662 -0.0303  0.6170
 4130TIP3    H212355   3.255   1.268   1.438  0.1844  1.0867  0.2764
 4131TIP3   OH212356   5.756   3.309   5.020 -0.5209 -0.0290 -0.0889
 4131TIP3    H112357   5.700   3.330   4.945 -0.1281  0.5348 -0.2252
 4131TIP3    H212358   5.770   3.214   5.013  0.6606  0.2211 -1.5331
 4132TIP3   OH212359   4.646   4.794   4.804 -0.5176  0.1455 -0.2102
 4132TIP3    H112360   4.733   4.807   4.765 -0.5966 -0.3728 -0.5674
 4132TIP3    H212361   4.654   4.830   4.893  0.0214  0.2199 -0.2862
 4133TIP3   OH212362   0.513   2.559   1.738  0.3522  0.0657  0.0022
 4133TIP3    H112363   0.548   2.485   1.788 -1.3059 -0.4347  0.4857
 4133TIP3    H212364   0.418   2.546   1.739  0.1900  0.6260 -2.3804
 4134TIP3   OH212365   5.957   1.329   3.633 -0.2066 -0.6919  0.3450
 4134TIP3    H112366   5.896   1.352   3.703  0.0715  0.9931  0.0812
 4134TIP3    H212367   5.939   1.392   3.563  0.9492 -0.9892 -0.2562
 4135TIP3   OH212368   0.399   3.174   4.590  0.4673  0.1096  0.2771
 4135TIP3    H112369   0.407   3.257   4.637  2.9848 -0.4445  0.9597
 4135TIP3    H212370   0.317   3.181   4.542  0.5705  2.9587  0.3879
 4136TIP3   OH212371   6.812   3.875   1.400  0.4557  0.0669  0.0262
 4136TIP3    H112372   6.769   3.829   1.472 -1.4212 -1.5592 -2.0270
 4136TIP3    H212373   6.741   3.912   1.348  1.5612 -1.0584 -2.4407
 4137TIP3   OH212374   6.104   4.950   4.860  0.1793 -0.0671 -0.4838
 4137TIP3    H112375   6.165   5.001   4.807 -0.7340  3.2889  1.4251
 4137TIP3    H212376   6.020   4.996   4.851 -0.2178  0.1591  3.0381
 4138TIP3   OH212377   6.463   4.826   1.988 -0.3762 -1.0570 -0.5814
 4138TIP3    H112378   6.405   4.895   1.957 -0.1791  0.9057  2.8807
 4138TIP3    H212379   6.549   4.850   1.955  0.1656  1.9769  2.4150
 4139TIP3   OH212380   3.370   3.744   2.851  0.7973  0.0504 -0.0088
 4139TIP3    H112381   3.358   3.834   2.883 -1.4419  0.2404 -1.1613
 4139TIP3    H212382   3.337   3.747   2.761  2.4289 -1.5487 -0.7299
 4140TIP3   OH212383   7.106   1.864   1.086  0.5218  0.3345 -0.1869
 4140TIP3    H112384   7.075   1.780   1.120  0.9069 -0.3401 -1.4454
 4140TIP3    H212385   7.137   1.911   1.164  0.2279 -0.6491  0.5468
 4141TIP3   OH212386   1.466   6.109   3.182 -0.2352 -0.0171 -0.2181
 4141TIP3    H112387   1.398   6.165   3.219 -0.7414 -0.2801 -0.7296
 4141TIP3    H212388   1.427   6.022   3.180  0.7218 -0.5056  1.0267
 4142TIP3   OH212389   6.065   1.223   0.394  0.5593  0.1215  0.4621
 4142TIP3    H112390   5.970   1.219   0.384  0.5298  0.9674  0.3081
 4142TIP3    H212391   6.079   1.253   0.484  0.6384  1.2589  0.0928
 4143TIP3   OH212392   4.356   2.293   3.458 -0.2595 -0.0526  0.0164
 4143TIP3    H112393   4.324   2.319   3.372 -0.1604  1.5796  0.4397
 4143TIP3    H212394   4.365   2.375   3.506  2.1280 -0.6663  0.7520
 4144TIP3   OH212395   4.906   3.453   4.664  0.2181  0.0234  0.6691
 4144TIP3    H112396   4.974   3.466   4.598 -0.1569 -0.1822  0.2356
 4144TIP3    H212397   4.906   3.358   4.680  2.0057  0.2979  2.8057
 4145TIP3   OH212398   7.157   2.684   5.432  0.0976  0.1714 -0.3594
 4145TIP3    H112399   7.064   2.705   5.444 -1.0802 -2.6825 -3.1346
 4145TIP3    H212400   7.183   2.733   5.353  0.8832  0.6868  0.2041
 4146TIP3   OH212401   0.531   1.182   5.455  0.1743 -0.5868 -0.2735
 4146TIP3    H112402   0.474   1.134   5.395 -0.5353 -0.6402  0.4298
 4146TIP3    H212403   0.608   1.205   5.402 -0.2988 -0.9004 -1.1127
 4147TIP3   OH212404   1.615   4.627   1.843  0.0985 -0.2096  0.1361
 4147TIP3    H112405   1.624   4.556   1.780 -0.3862 -0.1084 -0.0522
 4147TIP3    H212406   1.705   4.653   1.863  0.2679 -0.6446 -0.0542
 4148TIP3   OH212407   5.674   4.768   5.868 -0.0117 -0.3271  0.3199
 4148TIP3    H112408   5.738   4.755   5.938  0.9673 -0.1881 -0.5078
 4148TIP3    H212409   5.713   4.836   5.813 -0.1928 -1.2144 -0.9646
 4149TIP3   OH212410   4.016   2.561   1.427 -0.4075  0.3267 -0.3074
 4149TIP3    H112411   3.954   2.628   1.455  0.2452  1.1702 -0.8381
 4149TIP3    H212412   4.101   2.592   1.459  0.3734  1.2987 -3.0703
 4150TIP3   OH212413   2.751   3.901   2.531  0.6408  0.1329 -0.0719
 4150TIP3    H112414   2.782   3.810   2.532 -0.4542 -0.2527 -0.1328
 4150TIP3    H212415   2.777   3.934   2.446 -0.1747 -0.5732 -0.6119
 4151TIP3   OH212416   1.997   2.708   4.153  0.3221  0.3493 -0.0344
 4151TIP3    H112417   1.983   2.763   4.076 -3.2905 -0.3203 -0.0250
 4151TIP3    H212418   1.966   2.760   4.227  0.0579 -0.4285  0.4268
 4152TIP3   OH212419   4.293   1.957   5.201  0.2576 -0.2196 -0.2425
 4152TIP3    H112420   4.344   1.909   5.135  0.4467 -0.0686 -0.2056
 4152TIP3    H212421   4.278   2.043   5.162 -2.3038 -1.1037 -1.4325
 4153TIP3   OH212422   6.625   4.066   5.584 -0.2151  0.1223 -0.2873
 4153TIP3    H112423   6.712   4.053   5.624 -0.6077 -0.3756  0.4259
 4153TIP3    H212424   6.642   4.124   5.510  0.8681 -0.6568 -0.6849
 4154TIP3   OH212425   6.913   1.235   2.441 -0.3595 -0.0884  0.0668
 4154TIP3    H112426   6.953   1.149   2.437 -1.8783 -0.8017 -0.3416
 4154TIP3    H212427   6.967   1.284   2.504  1.7023 -0.6638 -1.1703
 4155TIP3   OH212428   2.123   6.317   4.233 -0.1833 -0.0049  0.1097
 4155TIP3    H112429   2.072   6.395   4.213  0.1598  0.5300  1.2073
 4155TIP3    H212430   2.203   6.351   4.273 -0.3911 -0.9466  1.3795
 4156TIP3   OH212431   4.519   3.550   0.040 -0.0811 -0.4806  0.3685
 4156TIP3    H112432   4.504   3.536  -0.053  1.1038 -1.7547  0.3201
 4156TIP3    H212433   4.505   3.644   0.054  2.5578  0.3510 -1.7052
 4157TIP3   OH212434   6.410   2.119   3.918 -0.4632 -0.3981 -0.1069
 4157TIP3    H112435   6.378   2.139   3.830 -1.2618 -1.2017 -0.0031
 4157TIP3    H212436   6.467   2.043   3.906  0.7891  0.5255 -0.1683
 4158TIP3   OH212437   0.818   5.073   0.371  0.3246  0.7173  0.4969
 4158TIP3    H112438   0.770   5.094   0.451 -1.0172 -3.0139  0.8891
 4158TIP3    H212439   0.902   5.039   0.402 -0.1940 -0.7256  0.3917
 4159TIP3   OH212440   0.018   3.866   4.537  0.1698  0.0333 -0.5944
 4159TIP3    H112441   0.103   3.855   4.580 -0.2491  0.7785  0.4887
 4159TIP3    H212442  -0.042   3.816   4.592 -0.3631  0.9322 -0.3314
 4160TIP3   OH212443   7.128   3.063   5.719 -0.0040  0.0450  0.5157
 4160TIP3    H112444   7.092   3.145   5.685 -1.5740 -0.7706  0.1213
 4160TIP3    H212445   7.166   3.020   5.642 -1.8540 -0.9253  0.0873
 4161TIP3   OH212446   6.801   0.126   3.653 -0.6389  0.5035  0.2584
 4161TIP3    H112447   6.764   0.056   3.707 -1.0377  0.1316 -0.4877
 4161TIP3    H212448   6.887   0.143   3.692 -0.5825 -0.3224  0.5126
 4162TIP3   OH212449   0.815   4.842   4.497  0.1314 -0.7155  0.0460
 4162TIP3    H112450   0.836   4.930   4.529 -0.2117 -0.7063  0.2457
 4162TIP3    H212451   0.729   4.851   4.456  0.6690 -0.6733 -1.0997
 4163TIP3   OH212452   4.039   1.418   3.265 -0.5921  0.0303 -0.3861
 4163TIP3    H112453   3.949   1.384   3.258 -0.8813  0.7783 -0.4433
 4163TIP3    H212454   4.065   1.435   3.175 -0.1584 -0.7556 -0.4160
 4164TIP3   OH212455   6.269   2.858   1.530  0.1072 -0.0966  0.5235
 4164TIP3    H112456   6.264   2.943   1.487  2.6715 -0.8158 -1.4360
 4164TIP3    H212457   6.201   2.806   1.488  1.2566 -0.1827 -1.3413
 4165TIP3   OH212458   6.474   6.170   5.541  0.2239 -0.5639  0.8381
 4165TIP3    H112459   6.500   6.184   5.450  1.2150 -1.6894  0.9032
 4165TIP3    H212460   6.556   6.143   5.584 -0.4286 -1.0004  1.8320
 4166TIP3   OH212461   0.752   6.208   4.892 -0.1279 -0.0769  0.2726
 4166TIP3    H112462   0.696   6.251   4.957 -0.4765  0.7495 -0.5643
 4166TIP3    H212463   0.757   6.269   4.819 -0.1756 -1.2170 -0.7187
 4167TIP3   OH212464   3.128   6.437   0.762 -0.0442  0.6932 -0.2139
 4167TIP3    H112465   3.211   6.397   0.736  0.7143  2.2642 -0.2949
 4167TIP3    H212466   3.134   6.527   0.732 -1.7260  0.8897 -0.0686
 4168TIP3   OH212467   1.480   5.642   0.714 -0.4351  0.3409 -0.2347
 4168TIP3    H112468   1.524   5.647   0.800 -1.4300 -0.0520  0.3087
 4168TIP3    H212469   1.427   5.721   0.710  2.2308  2.2030 -2.0212
 4169TIP3   OH212470   1.899   3.995   4.168  0.3699 -0.0095  0.2700
 4169TIP3    H112471   1.835   3.951   4.225 -0.2104 -0.5697 -0.7816
 4169TIP3    H212472   1.941   3.924   4.120  1.1970  0.4224  0.3391
 4170TIP3   OH212473   4.555   6.187   0.756 -0.4552  0.0420 -0.1831
 4170TIP3    H112474   4.582   6.166   0.666  1.1110  2.9888 -0.4942
 4170TIP3    H212475   4.613   6.135   0.811 -0.9498 -1.2400 -0.8149
 4171TIP3   OH212476   5.860   0.568   3.861  0.0154 -1.0838  0.3734
 4171TIP3    H112477   5.926   0.564   3.792 -0.2567  2.3862 -0.3044
 4171TIP3    H212478   5.802   0.639   3.833 -1.1409 -0.7495  3.3082
 4172TIP3   OH212479   2.377   5.848   4.301  0.3300  0.7202  0.1711
 4172TIP3    H112480   2.304   5.910   4.302  0.7104  1.1764 -0.4533
 4172TIP3    H212481   2.394   5.831   4.394 -1.1153 -0.0473  0.3369
 4173TIP3   OH212482   1.648   6.212   0.497 -0.4073 -0.0737  0.0385
 4173TIP3    H112483   1.729   6.219   0.548 -0.6224 -0.1201  0.3912
 4173TIP3    H212484   1.672   6.159   0.421  0.2159  0.9682 -0.5231
 4174TIP3   OH212485   3.584   4.171   5.517 -0.3176  0.2979 -0.2871
 4174TIP3    H112486   3.613   4.231   5.448 -0.3473  1.8691  1.0163
 4174TIP3    H212487   3.507   4.128   5.480  0.6161 -0.1361 -1.8358
 4175TIP3   OH212488   0.417   2.026   5.845  0.2520  0.3715  0.4494
 4175TIP3    H112489   0.428   1.931   5.843 -0.1778  0.3247  0.1382
 4175TIP3    H212490   0.489   2.059   5.790 -0.0896  0.1727 -0.1332
 4176TIP3   OH212491   3.287   2.296   1.817 -0.5216  0.8609  0.0142
 4176TIP3    H112492   3.367   2.346   1.799  0.2489 -0.0772  0.7045
 4176TIP3    H212493   3.309   2.206   1.792 -0.9254  0.3567  1.3854
 4177TIP3   OH212494   4.034   4.384   1.650  0.2627 -0.4889  0.3394
 4177TIP3    H112495   4.106   4.447   1.651  0.8467 -1.0295 -1.6886
 4177TIP3    H212496   3.981   4.410   1.574  0.0852 -1.9740 -0.0687
 4178TIP3   OH212497   3.733   2.961   2.047  0.5200  0.3452 -0.0676
 4178TIP3    H112498   3.803   2.916   2.094  0.2784  0.4045  0.3505
 4178TIP3    H212499   3.772   3.044   2.021  0.5389  0.4693  0.3523
 4179TIP3   OH212500   6.185   3.693   4.590  0.3665 -0.3316  0.4160
 4179TIP3    H112501   6.178   3.611   4.638  2.0142 -0.1481  1.0307
 4179TIP3    H212502   6.099   3.705   4.550 -0.1025 -2.0146  0.8486
 4180TIP3   OH212503   2.587   2.928   0.283 -0.1251  0.5858  0.4649
 4180TIP3    H112504   2.548   2.994   0.341  2.4243  2.7479 -0.0976
 4180TIP3    H212505   2.521   2.912   0.217 -1.3763  1.4625  1.4489
 4181TIP3   OH212506   2.780   2.267   1.704 -0.8890 -0.1748 -0.3102
 4181TIP3    H112507   2.816   2.352   1.728  0.6852 -1.0982  0.7777
 4181TIP3    H212508   2.754   2.228   1.787 -0.8110 -1.0937 -0.7055
 4182TIP3   OH212509   5.654   4.841   1.462 -0.2592  0.4981 -0.1366
 4182TIP3    H112510   5.660   4.755   1.422  0.1006  0.6015 -0.3140
 4182TIP3    H212511   5.735   4.885   1.435 -1.1380  1.4420 -1.3138
 4183TIP3   OH212512   2.794   4.562   3.130  0.0950  0.9580 -0.0237
 4183TIP3    H112513   2.724   4.507   3.095  1.6090 -1.1677  0.0722
 4183TIP3    H212514   2.852   4.501   3.177  0.8008  2.9667  1.9088
 4184TIP3   OH212515   5.811   2.061   5.706 -0.1508 -0.2316  0.5855
 4184TIP3    H112516   5.753   1.986   5.715  1.9699 -1.7226  2.7606
 4184TIP3    H212517   5.813   2.078   5.611 -3.1650 -0.7630  0.3076
 4185TIP3   OH212518   1.717   1.988   5.601  0.1342  0.0381 -0.3097
 4185TIP3    H112519   1.735   1.998   5.695 -1.7149 -0.6917  0.1762
 4185TIP3    H212520   1.729   1.894   5.585  1.2938  0.2910 -1.0313
 4186TIP3   OH212521   1.225   5.117   3.292  0.0151 -0.2059 -0.2251
 4186TIP3    H112522   1.144   5.164   3.314 -0.1600 -0.0175 -1.2268
 4186TIP3    H212523   1.199   5.052   3.227  0.5270 -0.7095  0.0615
 4187TIP3   OH212524   2.882   1.287   3.742  0.1078 -0.2890 -0.0203
 4187TIP3    H112525   2.788   1.299   3.726 -0.1881 -0.9339  1.0989
 4187TIP3    H212526   2.887   1.203   3.789  1.2141 -0.1123  0.1910
 4188TIP3   OH212527   2.019   3.832   0.738 -0.2064 -0.3441 -0.0821
 4188TIP3    H112528   1.926   3.837   0.717  0.1838  0.1335 -1.8686
 4188TIP3    H212529   2.049   3.751   0.697  0.7014  0.9053 -2.0758
 4189TIP3   OH212530   2.033   5.747   5.139 -0.4436 -0.4539  0.1658
 4189TIP3    H112531   2.048   5.787   5.053 -1.3385 -0.1589  0.1438
 4189TIP3    H212532   2.016   5.655   5.119  2.5327 -1.1513  0.2775
 4190TIP3   OH212533   6.880   4.771   5.241  0.1506  0.4306  0.1423
 4190TIP3    H112534   6.928   4.731   5.313  0.1258  0.6923  0.3053
 4190TIP3    H212535   6.870   4.701   5.177  0.5594  0.3158  0.1996
 4191TIP3   OH212536   4.768   2.323   2.413 -0.3457  0.0071 -0.4611
 4191TIP3    H112537   4.719   2.365   2.484  0.9681  0.4882  0.1814
 4191TIP3    H212538   4.702   2.309   2.344 -1.7964 -1.0371  1.0400
 4192TIP3   OH212539   1.315   0.544   3.526  0.2800 -0.3845  0.0306
 4192TIP3    H112540   1.313   0.538   3.430  2.2870  0.0383 -0.0775
 4192TIP3    H212541   1.361   0.465   3.554  1.9743  0.6985  0.4416
 4193TIP3   OH212542   6.916   2.235   3.055  0.5457 -0.0411 -0.3276
 4193TIP3    H112543   6.900   2.255   2.963 -1.5609 -0.2050 -0.0568
 4193TIP3    H212544   6.845   2.280   3.101  2.2136  1.0040  1.3526
 4194TIP3   OH212545   6.712   1.596   2.907  0.5902 -0.6845  0.3891
 4194TIP3    H112546   6.728   1.686   2.936 -0.2425 -0.6141  0.6700
 4194TIP3    H212547   6.790   1.548   2.934  0.2783 -0.4158  1.9053
 4195TIP3   OH212548   3.040   2.598   2.963  0.2742 -0.0412  0.6420
 4195TIP3    H112549   3.019   2.555   3.046  0.2843  0.5762  0.9752
 4195TIP3    H212550   2.955   2.623   2.926  0.0093 -3.0559 -1.0971
 4196TIP3   OH212551   5.699   4.997   0.590  0.6418  0.0403 -0.0915
 4196TIP3    H112552   5.671   5.004   0.681  0.1359 -0.8782 -0.1713
 4196TIP3    H212553   5.719   5.087   0.564  0.9680  0.2871  0.9796
 4197TIP3   OH212554   5.410   5.188   1.861  0.0207  0.2895 -0.0221
 4197TIP3    H112555   5.490   5.163   1.908 -0.8607  0.2743  1.5438
 4197TIP3    H212556   5.342   5.131   1.897 -0.5800 -0.2303 -1.8884
 4198TIP3   OH212557   4.507   6.313   1.013 -0.6179  0.2655  0.1179
 4198TIP3    H112558   4.484   6.259   0.937 -2.9813  0.9902  0.2470
 4198TIP3    H212559   4.588   6.357   0.987 -0.4218 -0.8480 -1.2692
 4199TIP3   OH212560   1.573   4.281   0.360 -0.1367 -0.9613  0.0237
 4199TIP3    H112561   1.514   4.334   0.306 -0.0345  1.1814  1.8846
 4199TIP3    H212562   1.661   4.306   0.331 -0.0663  0.6894  1.5447
 4200TIP3   OH212563   3.785   4.925   1.048 -0.3681 -0.3329 -0.0136
 4200TIP3    H112564   3.839   4.990   1.093  0.8978 -1.0916 -0.4141
 4200TIP3    H212565   3.749   4.972   0.972  1.8691 -0.4973 -1.2449
 4201TIP3   OH212566   3.968   5.513   4.786  0.3049 -0.0903  0.2987
 4201TIP3    H112567   4.057   5.486   4.809  0.2940  0.3906  0.9520
 4201TIP3    H212568   3.980   5.584   4.723  0.3772 -0.3066  0.0710
 4202TIP3   OH212569   0.954   3.749   1.296  0.2119 -0.1151 -0.2213
 4202TIP3    H112570   0.912   3.835   1.284 -0.0754 -0.1592  0.4246
 4202TIP3    H212571   0.901   3.689   1.243  1.7637  0.4521 -2.5966
 4203TIP3   OH212572   2.560   2.405   3.752  0.1996 -0.1865 -0.1774
 4203TIP3    H112573   2.511   2.393   3.834 -0.7067 -1.4406 -0.8693
 4203TIP3    H212574   2.503   2.460   3.698 -0.0196 -0.8388 -0.6189
 4204TIP3   OH212575   5.932   5.609   0.604 -0.1418 -0.2141  0.1793
 4204TIP3    H112576   5.851   5.613   0.553  0.0353  0.5173 -0.0507
 4204TIP3    H212577   5.929   5.523   0.647 -0.2708 -0.8798 -1.1087
 4205TIP3   OH212578   0.936   0.363   3.742  0.5247  0.0517  0.0660
 4205TIP3    H112579   0.895   0.277   3.729 -0.1473  0.2936  0.5377
 4205TIP3    H212580   0.871   0.426   3.712  1.1066  0.4031 -0.5018
 4206TIP3   OH212581   0.244   5.729   0.885  0.0876 -0.1232  0.2731
 4206TIP3    H112582   0.274   5.751   0.796  0.2044 -0.9606  0.0949
 4206TIP3    H212583   0.156   5.766   0.891  0.5032  0.8946  0.2007
 4207TIP3   OH212584   6.183   6.059   0.420  0.0243 -0.1314  0.1727
 4207TIP3    H112585   6.119   6.059   0.491  1.9085 -0.8594  1.9903
 4207TIP3    H212586   6.240   6.133   0.441 -0.7619  1.1589 -1.9915
 4208TIP3   OH212587   6.636   1.585   5.088  0.4134  0.3822  0.1278
 4208TIP3    H112588   6.627   1.644   5.163 -1.1509 -0.4446  0.6380
 4208TIP3    H212589   6.574   1.514   5.106  0.2537 -0.0142 -1.7810
 4209TIP3   OH212590   4.761   2.795   3.263  0.3795  0.5360 -0.2572
 4209TIP3    H112591   4.672   2.761   3.262  0.2897  0.7416 -1.7379
 4209TIP3    H212592   4.817   2.720   3.243  0.7281  0.0309  2.3510
 4210TIP3   OH212593   4.246   2.850   4.650  0.7348 -0.4950  0.1219
 4210TIP3    H112594   4.166   2.843   4.703  0.8583 -2.3848  0.1274
 4210TIP3    H212595   4.265   2.944   4.649 -0.8241 -0.1147  1.0952
 4211TIP3   OH212596   4.905   3.283   2.810  0.0446 -0.0145  0.0464
 4211TIP3    H112597   4.844   3.240   2.751  0.6761 -0.1959 -0.4834
 4211TIP3    H212598   4.910   3.225   2.886 -1.2775  0.5496  0.5926
 4212TIP3   OH212599   4.746   5.827   3.184 -0.2888  0.0739  0.2858
 4212TIP3    H112600   4.707   5.875   3.111  0.1371  0.2617  0.1797
 4212TIP3    H212601   4.836   5.860   3.189 -0.1156 -0.4177  0.4705
 4213TIP3   OH212602   3.803   5.704   1.891  0.0571 -0.4916  0.8681
 4213TIP3    H112603   3.762   5.748   1.816 -0.9876 -0.7823  1.2476
 4213TIP3    H212604   3.811   5.612   1.863  1.6644 -0.2097  0.3116
 4214TIP3   OH212605   2.260   6.494   2.488 -0.2706  0.6215 -0.0404
 4214TIP3    H112606   2.304   6.500   2.403 -0.7552  0.9777 -0.2746
 4214TIP3    H212607   2.182   6.440   2.470  1.4445 -2.4069  0.9524
 4215TIP3   OH212608   5.082   2.944   1.196 -0.6336  0.4417 -0.1481
 4215TIP3    H112609   5.124   2.878   1.251 -0.1999  0.9236  0.1079
 4215TIP3    H212610   5.130   2.939   1.113  0.2568  1.3076  0.2950
 4216TIP3   OH212611   6.913   4.285   5.249  0.0102  0.7715 -0.2424
 4216TIP3    H112612   6.837   4.279   5.307 -0.2856 -1.4663 -0.8021
 4216TIP3    H212613   6.987   4.296   5.309 -0.4718  0.3164  0.4557
 4217TIP3   OH212614   6.441   0.723   2.698  0.2356 -0.6655  0.4897
 4217TIP3    H112615   6.437   0.767   2.784 -1.8468  0.0571  0.0959
 4217TIP3    H212616   6.394   0.782   2.640  0.8582 -1.5745 -0.9773
 4218TIP3   OH212617   3.714   2.351   1.377  0.0403 -0.5092 -0.3059
 4218TIP3    H112618   3.758   2.364   1.293  0.5973  0.0268  0.0586
 4218TIP3    H212619   3.745   2.265   1.408 -1.0303 -1.2262 -1.1525
 4219TIP3   OH212620   0.905   4.331   3.287  0.0860  0.0142 -0.1065
 4219TIP3    H112621   0.911   4.422   3.316  0.0728  0.2523 -0.8103
 4219TIP3    H212622   0.972   4.285   3.338  1.5448  0.8344 -1.1947
 4220TIP3   OH212623   3.954   2.187   2.102  0.1543  0.2056  0.4190
 4220TIP3    H112624   3.994   2.104   2.078 -0.1887  0.0390  0.4291
 4220TIP3    H212625   3.871   2.164   2.142 -0.5330  0.6035 -0.7215
 4221TIP3   OH212626   6.059   2.974   2.576  0.1015 -0.9319  0.1479
 4221TIP3    H112627   6.031   2.929   2.497  0.3288 -0.4997 -0.1797
 4221TIP3    H212628   5.984   2.966   2.636  0.7626 -3.3019  0.7727
 4222TIP3   OH212629   0.949   1.117   0.225  0.3161  0.3484  0.1848
 4222TIP3    H112630   0.968   1.133   0.317  0.7737  0.9621 -0.0099
 4222TIP3    H212631   1.010   1.174   0.178  1.6462 -1.5465 -0.5458
 4223TIP3   OH212632   1.764   3.222   2.056 -0.1470 -0.3644 -0.4168
 4223TIP3    H112633   1.739   3.311   2.034 -1.2048 -0.4342  0.3969
 4223TIP3    H212634   1.709   3.167   2.000 -0.5967 -0.5077  0.1559
 4224TIP3   OH212635   6.521   3.557   0.405  0.1034  0.0875  0.0545
 4224TIP3    H112636   6.430   3.525   0.400 -0.2734  1.2265 -0.6781
 4224TIP3    H212637   6.521   3.637   0.354  1.5671  0.0551 -0.0250
 4225TIP3   OH212638   0.910   4.931   2.391  0.2361 -0.4031  0.4408
 4225TIP3    H112639   0.883   4.876   2.464 -2.7231 -2.1753 -1.7674
 4225TIP3    H212640   0.890   5.020   2.420  0.4301 -0.9021  2.2554
 4226TIP3   OH212641   6.934   4.263   2.450  0.4767  0.3403  0.5895
 4226TIP3    H112642   6.944   4.351   2.486  0.4413 -0.1973  1.9884
 4226TIP3    H212643   7.006   4.254   2.388  0.0163  1.6181 -0.1623
 4227TIP3   OH212644   4.808   3.418   0.758 -0.0572 -0.0887 -0.1905
 4227TIP3    H112645   4.893   3.462   0.754 -0.0168 -0.1805 -0.3497
 4227TIP3    H212646   4.815   3.360   0.834  0.5617 -1.2106 -1.0778
 4228TIP3   OH212647   0.719   4.546   5.189  0.0182 -0.1679 -0.2737
 4228TIP3    H112648   0.625   4.568   5.191 -0.1840 -0.8245 -1.4942
 4228TIP3    H212649   0.736   4.526   5.097  0.6865 -2.8812  0.3785
 4229TIP3   OH212650   2.589   3.006   1.313  0.3055 -0.0417 -0.0830
 4229TIP3    H112651   2.580   3.008   1.408 -0.9610 -1.1958 -0.1376
 4229TIP3    H212652   2.553   3.090   1.284  0.2328  0.1128  0.4360
 4230TIP3   OH212653   4.218   6.251   1.524  0.3132  0.0170  0.3594
 4230TIP3    H112654   4.168   6.330   1.503  0.1949  0.3157  1.7296
 4230TIP3    H212655   4.152   6.181   1.529  0.0707  0.3323  1.7490
 4231TIP3   OH212656   4.780   3.225   0.100  0.9108 -0.1357  0.2450
 4231TIP3    H112657   4.732   3.221   0.017 -1.8290  1.3589  1.6224
 4231TIP3    H212658   4.806   3.134   0.116  0.1488 -0.7128 -1.4983
 4232TIP3   OH212659   5.389   2.855   2.734 -0.3051 -0.5174  0.1887
 4232TIP3    H112660   5.325   2.835   2.666 -0.2510 -0.6493  0.1745
 4232TIP3    H212661   5.434   2.771   2.749 -0.1392 -0.4258  0.1996
 4233TIP3   OH212662   1.770   2.851   2.847 -0.0913 -0.2845  0.1722
 4233TIP3    H112663   1.854   2.812   2.822 -1.3675 -2.3676 -1.1677
 4233TIP3    H212664   1.787   2.945   2.849  2.0341 -0.5706 -1.1054
 4234TIP3   OH212665   5.575   2.130   5.179  0.2934 -0.4989  0.0579
 4234TIP3    H112666   5.644   2.173   5.230 -0.1748 -0.0375  0.3084
 4234TIP3    H212667   5.494   2.173   5.207 -0.3985 -2.6029  1.4981
 4235TIP3   OH212668   5.778   3.834   3.536 -0.0745 -0.3852  0.1526
 4235TIP3    H112669   5.721   3.822   3.612 -0.1959 -2.3192 -0.1802
 4235TIP3    H212670   5.866   3.837   3.572 -0.1976 -0.2808  0.4477
 4236TIP3   OH212671   6.653   4.015   3.065  0.2003 -0.3752 -0.0851
 4236TIP3    H112672   6.670   4.108   3.076 -0.0124 -0.3211 -0.2065
 4236TIP3    H212673   6.680   3.997   2.974  2.1104 -0.8515  0.5244
 4237TIP3   OH212674   3.734   5.237   4.069 -0.4916  0.6777  0.5022
 4237TIP3    H112675   3.668   5.278   4.126 -1.1117  1.5226 -0.7794
 4237TIP3    H212676   3.733   5.145   4.095  0.1635  1.2364  2.7138
 4238TIP3   OH212677   5.874   4.950   1.353  0.0719  0.5757  0.5461
 4238TIP3    H112678   5.919   4.988   1.428  1.1602 -0.1676  0.2978
 4238TIP3    H212679   5.938   4.890   1.315 -0.7872  0.2526 -0.4316
 4239TIP3   OH212680   4.786   0.768   0.815  0.7017  1.0852 -0.0606
 4239TIP3    H112681   4.851   0.747   0.748 -0.4249  2.2881 -1.6064
 4239TIP3    H212682   4.703   0.769   0.768 -0.4796 -0.4135  1.8621
 4240TIP3   OH212683   2.967   0.446   3.364  0.1863  0.1362 -0.1999
 4240TIP3    H112684   2.975   0.381   3.434 -3.2545 -2.8919 -2.2731
 4240TIP3    H212685   3.034   0.421   3.300 -0.9765 -1.3794 -0.8848
 4241TIP3   OH212686   3.466   6.227   0.336  0.2229 -0.0801 -0.2541
 4241TIP3    H112687   3.460   6.133   0.355  1.4742  0.0395  0.8744
 4241TIP3    H212688   3.559   6.242   0.320  0.0136  0.9576 -0.5702
 4242TIP3   OH212689   2.960   6.518   1.520 -0.5907  0.7715 -0.0501
 4242TIP3    H112690   2.997   6.538   1.606 -2.0723  0.7685  0.6339
 4242TIP3    H212691   3.021   6.555   1.457  1.1063 -0.2034  0.9649
 4243TIP3   OH212692   2.652   4.390   2.855 -0.0513  0.0504 -0.2174
 4243TIP3    H112693   2.633   4.312   2.802 -0.0677 -0.6401  0.7852
 4243TIP3    H212694   2.593   4.457   2.820  2.0958  0.5951 -3.1988
 4244TIP3   OH212695   2.225   5.657   2.713 -0.5823  0.6060 -0.2699
 4244TIP3    H112696   2.166   5.649   2.788 -0.3826  1.4831 -0.0113
 4244TIP3    H212697   2.220   5.749   2.689  0.7937  0.7203 -0.1568
 4245TIP3   OH212698   6.580   2.156   5.812 -0.3288 -0.5138 -0.1707
 4245TIP3    H112699   6.603   2.085   5.873  1.5324 -0.2299 -0.4949
 4245TIP3    H212700   6.526   2.114   5.745  0.3296 -1.5254 -0.0859
 4246TIP3   OH212701   3.532   5.476   4.104 -0.5468  0.3194  0.0569
 4246TIP3    H112702   3.614   5.521   4.121 -1.3085  1.4229  1.0567
 4246TIP3    H212703   3.505   5.443   4.190 -1.3759  0.4092 -0.1577
 4247TIP3   OH212704   5.452   4.386   5.281  0.5078  0.2905 -0.4943
 4247TIP3    H112705   5.459   4.291   5.289  0.1980  0.3125  0.1675
 4247TIP3    H212706   5.471   4.418   5.370  0.0102  0.8069 -0.5709
 4248TIP3   OH212707   2.251   1.606   4.510 -0.2949 -0.0504  0.1962
 4248TIP3    H112708   2.320   1.587   4.574  0.5676 -2.9255 -1.3964
 4248TIP3    H212709   2.175   1.558   4.543 -0.6164  0.5263  0.3134
 4249TIP3   OH212710   6.295   1.638   1.186  0.4918  0.3826  0.1769
 4249TIP3    H112711   6.317   1.672   1.099 -0.2147  2.1185  0.6343
 4249TIP3    H212712   6.378   1.638   1.233  0.5497  1.3560  0.1017
 4250TIP3   OH212713   2.271   3.566   5.328 -0.2420 -0.0993  0.0734
 4250TIP3    H112714   2.205   3.555   5.397 -1.8415 -1.6401 -1.5793
 4250TIP3    H212715   2.232   3.524   5.252  1.6351  1.1756 -1.6790
 4251TIP3   OH212716   0.327   2.002   4.111  0.1612  0.7225  0.6168
 4251TIP3    H112717   0.377   1.935   4.158  0.1861  1.2662  1.3734
 4251TIP3    H212718   0.394   2.052   4.063  0.2075  0.6440  0.5976
 4252TIP3   OH212719   2.261   0.743   0.719  0.4144  0.2877 -0.4642
 4252TIP3    H112720   2.279   0.810   0.654 -1.8971  0.2618 -1.2317
 4252TIP3    H212721   2.173   0.710   0.696  0.6254 -1.5677  1.0932
 4253TIP3   OH212722   5.357   0.944   5.165  0.3361  0.4993  0.3197
 4253TIP3    H112723   5.302   0.907   5.097  0.7705  1.3343 -0.4991
 4253TIP3    H212724   5.366   0.873   5.229  0.4177 -0.5036 -0.7721
 4254TIP3   OH212725   4.017   6.281   4.602  0.3633 -0.3969 -0.1788
 4254TIP3    H112726   3.952   6.341   4.563 -2.1438 -0.9963  2.7025
 4254TIP3    H212727   3.992   6.195   4.569  0.4780 -0.4943 -0.0109
 4255TIP3   OH212728   2.778   4.998   5.823 -0.8768  1.0691  0.1930
 4255TIP3    H112729   2.834   5.014   5.898  0.6736  0.7031 -0.8433
 4255TIP3    H212730   2.738   4.912   5.841  1.0617  0.0229 -0.3023
 4256TIP3   OH212731   6.132   5.543   3.597 -1.2032 -0.3864  0.4204
 4256TIP3    H112732   6.077   5.619   3.612 -0.2679  0.1513  1.2780
 4256TIP3    H212733   6.163   5.519   3.684 -0.0875 -0.6656 -0.0338
 4257TIP3   OH212734   6.263   0.462   5.844  0.4810 -0.6518 -0.2566
 4257TIP3    H112735   6.281   0.545   5.888 -0.5804 -1.0139  0.8959
 4257TIP3    H212736   6.170   0.465   5.823  0.5312 -1.3647 -0.6281
 4258TIP3   OH212737   5.747   5.754   5.180  0.6047  0.1646  0.1323
 4258TIP3    H112738   5.707   5.811   5.114 -0.0160  0.6131  0.8675
 4258TIP3    H212739   5.770   5.813   5.252  0.9862 -0.3521  0.4411
 4259TIP3   OH212740   4.114   3.083   4.973  0.0431 -0.2072  0.2549
 4259TIP3    H112741   4.093   3.023   5.044  0.2139 -1.4348 -0.6928
 4259TIP3    H212742   4.115   3.169   5.014 -1.2858 -0.7169  1.4450
 4260TIP3   OH212743   1.781   2.868   0.538 -0.3805  0.1005  0.0953
 4260TIP3    H112744   1.718   2.866   0.466 -0.0495 -0.3264 -0.1922
 4260TIP3    H212745   1.780   2.778   0.572 -0.6063  0.3220  0.6897
 4261TIP3   OH212746   3.996   4.465   2.333 -0.1161  0.3403  0.4963
 4261TIP3    H112747   3.910   4.493   2.364 -0.7543 -0.0283 -0.8864
 4261TIP3    H212748   3.980   4.430   2.245  0.9975 -2.0956  1.1530
 4262TIP3   OH212749   2.620   4.005   0.951  0.8091  0.3379 -0.0005
 4262TIP3    H112750   2.656   3.918   0.935  1.8995  0.5897  0.8904
 4262TIP3    H212751   2.604   4.007   1.046  0.5892  1.0219 -0.0446
 4263TIP3   OH212752   4.615   0.306   0.551  0.1236  0.4457 -0.2578
 4263TIP3    H112753   4.671   0.230   0.564  0.9402  0.9729 -0.5887
 4263TIP3    H212754   4.676   0.380   0.544 -0.5895  0.9915 -0.9354
 4264TIP3   OH212755   6.201   1.541   2.514 -0.0759 -0.0015 -0.3515
 4264TIP3    H112756   6.235   1.472   2.571  2.1132 -0.4815 -2.1153
 4264TIP3    H212757   6.149   1.597   2.572  0.4807 -1.5046  1.6928
 4265TIP3   OH212758   6.851   2.994   4.106  0.2450  0.4756 -0.2236
 4265TIP3    H112759   6.815   3.060   4.047  1.3286 -0.0546 -1.5432
 4265TIP3    H212760   6.776   2.940   4.130 -0.3372  1.1119 -0.5529
 4266TIP3   OH212761   0.974   0.459   5.773  0.2211 -0.0190  0.1438
 4266TIP3    H112762   0.963   0.409   5.691 -0.5493  0.3477  0.0159
 4266TIP3    H212763   1.039   0.408   5.823 -2.2065 -2.5235  1.0391
 4267TIP3   OH212764   5.176   5.434   0.419  0.3503  0.4763  0.2292
 4267TIP3    H112765   5.112   5.367   0.442  0.1205  0.4032 -0.5852
 4267TIP3    H212766   5.261   5.390   0.429  0.1599 -0.9230 -3.0342
 4268TIP3   OH212767   0.980   2.147   4.264  0.1312  0.2856  0.3841
 4268TIP3    H112768   1.063   2.117   4.300  1.0942  1.8017 -0.4856
 4268TIP3    H212769   0.959   2.226   4.314 -0.9059 -0.2041  0.7380
 4269TIP3   OH212770   2.432   0.549   4.452  0.4601 -0.4290  0.0535
 4269TIP3    H112771   2.388   0.473   4.492  0.9677 -0.0547  1.3979
 4269TIP3    H212772   2.399   0.624   4.501  1.3144  0.0228 -0.0389
 4270TIP3   OH212773   1.980   6.501   0.963 -0.1632 -0.2093 -0.5861
 4270TIP3    H112774   1.904   6.446   0.981 -1.1424  0.7046 -1.7512
 4270TIP3    H212775   1.969   6.578   1.019 -1.7127  1.2951 -2.7815
 4271TIP3   OH212776   4.654   6.545   1.356 -0.2463  0.2932  0.0136
 4271TIP3    H112777   4.587   6.512   1.416  0.0918  0.3770  0.4506
 4271TIP3    H212778   4.712   6.597   1.413 -1.5725  2.9187 -0.8570
 4272TIP3   OH212779   3.317   5.385   1.074 -0.1962  0.2578  0.1379
 4272TIP3    H112780   3.264   5.400   1.152  0.4030 -0.2910  0.6657
 4272TIP3    H212781   3.278   5.440   1.007 -0.4994  1.0183  0.9246
 4273TIP3   OH212782   6.833   3.980   5.385  0.1632 -0.0816  0.0653
 4273TIP3    H112783   6.899   3.932   5.335 -0.5105 -2.2020  1.1191
 4273TIP3    H212784   6.782   4.027   5.318  1.7279  0.3486 -0.8786
 4274TIP3   OH212785   2.662   2.091   1.030  0.3591 -0.0196  0.1219
 4274TIP3    H112786   2.667   2.000   1.001  1.9386 -0.5999  1.9782
 4274TIP3    H212787   2.753   2.121   1.030 -0.0989  1.4289 -0.0377
 4275TIP3   OH212788   1.368   3.517   0.905  0.9240  0.0396  0.3299
 4275TIP3    H112789   1.365   3.575   0.980 -2.0479 -0.1632  0.4970
 4275TIP3    H212790   1.372   3.575   0.829 -2.5054  0.6921  0.4646
 4276TIP3   OH212791   0.840   5.460   1.430  0.2897 -0.7746  0.0339
 4276TIP3    H112792   0.896   5.537   1.439  0.2735 -0.8322  0.6633
 4276TIP3    H212793   0.814   5.438   1.520 -2.4398  0.4804 -0.3242
 4277TIP3   OH212794   4.522   2.778   0.685 -0.1263  0.5428  0.5045
 4277TIP3    H112795   4.519   2.725   0.765 -1.2089 -1.5416 -0.8342
 4277TIP3    H212796   4.590   2.842   0.702  1.0359 -1.0640  2.3711
 4278TIP3   OH212797   2.238   1.482   0.443 -0.1938 -0.0972 -0.1971
 4278TIP3    H112798   2.312   1.493   0.503  0.0677 -0.1195 -0.5106
 4278TIP3    H212799   2.279   1.468   0.358 -0.5336 -1.5638 -0.1407
 4279TIP3   OH212800   6.069   4.712   4.061  0.1166 -0.0504  0.2244
 4279TIP3    H112801   6.118   4.634   4.033  0.1011 -0.0632  0.2338
 4279TIP3    H212802   5.978   4.690   4.045  0.1899  0.4619 -1.0477
 4280TIP3   OH212803   2.321   4.137   2.173  0.3533  0.8013  0.5075
 4280TIP3    H112804   2.320   4.230   2.195 -0.6081  1.1772 -0.9817
 4280TIP3    H212805   2.286   4.133   2.084  0.1718 -1.0110  0.6231
 4281TIP3   OH212806   5.623   2.541   3.178  0.4105 -0.0368 -0.5997
 4281TIP3    H112807   5.673   2.591   3.114  1.2951  0.0231  0.1153
 4281TIP3    H212808   5.689   2.504   3.237 -0.3982  0.4217  0.6335
 4282TIP3   OH212809   4.071   3.730   3.045 -0.3102 -0.5987 -0.0901
 4282TIP3    H112810   3.988   3.766   3.015 -0.5520 -1.1778 -0.1221
 4282TIP3    H212811   4.135   3.799   3.028 -0.6823 -0.3832 -0.6345
 4283TIP3   OH212812   6.216   1.060   5.056  0.0916 -0.2662  0.7629
 4283TIP3    H112813   6.151   0.990   5.063 -0.1687  0.0772  2.2306
 4283TIP3    H212814   6.276   1.043   5.129  2.1954 -1.0715 -1.0370
 4284TIP3   OH212815   6.572   4.316   3.067 -0.1935  0.1566  0.2997
 4284TIP3    H112816   6.566   4.327   2.972 -2.5098 -0.1441  0.3583
 4284TIP3    H212817   6.600   4.401   3.099 -1.9195  1.0792 -0.4997
 4285TIP3   OH212818   3.080   4.619   2.914  0.3315  0.0960  0.2242
 4285TIP3    H112819   2.991   4.647   2.935 -0.1231 -0.0919 -1.3156
 4285TIP3    H212820   3.086   4.531   2.949  0.1577  0.3696  0.9565
 4286TIP3   OH212821   5.225   0.689   0.930  0.1698 -0.8123  0.6517
 4286TIP3    H112822   5.277   0.719   0.856 -0.1036 -2.2476 -0.1479
 4286TIP3    H212823   5.208   0.768   0.981 -1.8368  0.7336 -2.1645
 4287TIP3   OH212824   4.448   5.038   1.021  0.5395 -0.4429 -0.6989
 4287TIP3    H112825   4.357   5.039   0.991  0.4986  0.2269 -0.5695
 4287TIP3    H212826   4.450   4.970   1.089  0.4067 -1.2649 -1.4958
 4288TIP3   OH212827   2.290   2.097   1.666 -0.3004 -0.1192 -0.3048
 4288TIP3    H112828   2.342   2.059   1.737 -0.0972 -0.7980 -0.8070
 4288TIP3    H212829   2.205   2.116   1.705 -0.1666 -0.4237  0.1356
 4289TIP3   OH212830   0.581   1.949   3.474 -0.0311  0.4086  0.0576
 4289TIP3    H112831   0.573   1.998   3.392  1.4679  0.9022  0.1859
 4289TIP3    H212832   0.671   1.963   3.502 -0.1626 -0.7703  1.1619
 4290TIP3   OH212833   1.349   5.573   1.732  0.0048  0.0425 -0.1054
 4290TIP3    H112834   1.310   5.600   1.815 -0.4498 -0.5990 -0.1066
 4290TIP3    H212835   1.324   5.642   1.671 -1.3661 -0.4850 -0.1713
 4291TIP3   OH212836   0.629   2.129   5.698  0.1700  0.0247 -0.2269
 4291TIP3    H112837   0.675   2.208   5.727 -0.5254 -0.1688  1.5429
 4291TIP3    H212838   0.689   2.058   5.722  0.9255 -0.0073 -2.0819
 4292TIP3   OH212839   1.927   3.412   3.962 -0.8850 -0.2345  0.2737
 4292TIP3    H112840   2.017   3.380   3.959 -1.0098 -0.5450 -0.3707
 4292TIP3    H212841   1.904   3.409   4.055  0.2242  1.1989  0.6308
 4293TIP3   OH212842   5.504   4.571   1.380 -0.5305  0.1928  0.4676
 4293TIP3    H112843   5.521   4.480   1.401  0.5354  0.3406  0.2673
 4293TIP3    H212844   5.440   4.599   1.446  0.9517 -0.0194  2.0584
 4294TIP3   OH212845   0.726   3.909   1.183 -0.7996 -0.7126  0.4055
 4294TIP3    H112846   0.701   3.975   1.119  1.5592 -0.7695 -0.6899
 4294TIP3    H212847   0.690   3.827   1.149 -0.1182 -0.6356 -0.5489
 4295TIP3   OH212848   5.619   2.969   5.049  0.5014  0.3262  0.2552
 4295TIP3    H112849   5.658   2.899   5.102  2.0166 -0.2146 -1.4726
 4295TIP3    H212850   5.686   2.990   4.985 -0.9006  1.6363 -0.8357
 4296TIP3   OH212851   3.956   2.380   5.847  0.0014  0.2870  0.1224
 4296TIP3    H112852   3.980   2.436   5.920 -0.7295  0.7146  0.0491
 4296TIP3    H212853   3.860   2.381   5.846 -0.0038  0.0948 -0.6902
 4297TIP3   OH212854   4.519   5.713   0.988 -0.1961  0.3952 -0.6264
 4297TIP3    H112855   4.441   5.739   0.938 -1.6731 -0.7626  0.9347
 4297TIP3    H212856   4.567   5.795   1.002 -2.1475  1.5091 -0.0189
 4298TIP3   OH212857   6.705   0.359   1.474 -0.0933 -0.2113  1.0299
 4298TIP3    H112858   6.635   0.423   1.464  0.5123  0.3899  0.5868
 4298TIP3    H212859   6.686   0.293   1.407  0.2969  0.4558  0.2375
 4299TIP3   OH212860   1.043   2.729   4.017  0.2436  0.0844 -0.0409
 4299TIP3    H112861   1.013   2.701   3.930  1.9078 -0.6377 -0.4185
 4299TIP3    H212862   1.058   2.647   4.064 -0.1876  0.4669  0.7905
 4300TIP3   OH212863   2.379   6.458   4.829 -0.2709 -0.0928  0.7487
 4300TIP3    H112864   2.460   6.507   4.847 -0.2209 -0.9255  3.1993
 4300TIP3    H212865   2.309   6.520   4.846 -0.1580 -0.0253  0.9802
 4301TIP3   OH212866   3.663   0.056   1.282 -0.0376  0.6342 -0.5564
 4301TIP3    H112867   3.618   0.028   1.202 -0.1421  2.9605 -1.3742
 4301TIP3    H212868   3.646   0.150   1.288  1.5166  0.8640  1.2341
 4302TIP3   OH212869   3.967   2.864   4.468  0.6872  0.2319  0.4279
 4302TIP3    H112870   3.947   2.947   4.512  0.0212 -0.0158  0.6019
 4302TIP3    H212871   4.038   2.885   4.409  0.8774  0.8144  0.8528
 4303TIP3   OH212872   3.377   5.641   3.568  0.0756  0.9542 -0.6141
 4303TIP3    H112873   3.453   5.586   3.552  0.5208  1.7859 -1.4708
 4303TIP3    H212874   3.370   5.696   3.489 -0.6133  1.8097  0.0195
 4304TIP3   OH212875   2.599   2.627   0.205  0.0253  0.4056 -0.1282
 4304TIP3    H112876   2.528   2.633   0.269  0.0862 -1.3422  0.1674
 4304TIP3    H212877   2.665   2.690   0.235 -0.2234  0.0741  1.1687
 4305TIP3   OH212878   5.032   0.710   0.185  0.3460  0.0083  0.1560
 4305TIP3    H112879   4.962   0.645   0.187  0.5995 -0.2550  1.0798
 4305TIP3    H212880   5.113   0.660   0.195  0.6672  0.3239 -0.7607
 4306TIP3   OH212881   6.991   1.827   5.713 -0.2074  0.2014  0.4547
 4306TIP3    H112882   6.944   1.851   5.633 -0.8407 -0.4936  0.6019
 4306TIP3    H212883   6.930   1.770   5.760  1.6280 -2.7821 -0.4912
 4307TIP3   OH212884   4.504   0.026   3.618 -0.0503 -0.1922 -0.1056
 4307TIP3    H112885   4.507   0.008   3.712 -0.2962 -0.2541 -0.1072
 4307TIP3    H212886   4.419  -0.009   3.591 -0.7187  1.3046 -0.0432
 4308TIP3   OH212887   4.361   6.692   0.674  0.4294 -0.0409  0.0447
 4308TIP3    H112888   4.401   6.617   0.630  0.4457  1.3737 -2.5655
 4308TIP3    H212889   4.353   6.665   0.765  2.7489 -2.2446 -0.2879
 4309TIP3   OH212890   5.986   3.064   4.318 -0.2053  0.0034 -0.9257
 4309TIP3    H112891   6.018   3.101   4.401  0.4147  1.2833 -1.7073
 4309TIP3    H212892   6.034   2.982   4.309  0.5278  0.3786 -0.5434
 4310TIP3   OH212893   4.702   0.501   4.382 -0.4809 -0.4842 -0.2286
 4310TIP3    H112894   4.685   0.486   4.289  2.4997  1.0716 -1.1709
 4310TIP3    H212895   4.770   0.437   4.404  0.0118  0.2405  0.4000
 4311TIP3   OH212896   2.157   0.902   5.008  0.8636  0.2788 -0.1930
 4311TIP3    H112897   2.079   0.847   4.996  0.6365  0.3604  0.8463
 4311TIP3    H212898   2.137   0.981   4.958  0.0783  0.4781  0.4081
 4312TIP3   OH212899   1.854   3.441   1.651 -0.9718 -0.0761  0.1597
 4312TIP3    H112900   1.839   3.517   1.708 -2.9305 -0.6561  0.4835
 4312TIP3    H212901   1.870   3.479   1.565  1.7571  0.8130  0.9663
 4313TIP3   OH212902   6.951   1.525   3.022  0.1072  0.3642  0.3402
 4313TIP3    H112903   7.002   1.455   2.981 -0.5117  0.0529  0.0795
 4313TIP3    H212904   7.016   1.587   3.054  0.7882 -1.2345  2.2736
 4314TIP3   OH212905   5.298   2.410   1.530 -0.0822  0.0048 -0.3080
 4314TIP3    H112906   5.295   2.346   1.459 -1.4532 -0.1438 -0.1407
 4314TIP3    H212907   5.313   2.358   1.609 -0.1205  0.0081 -0.2986
 4315TIP3   OH212908   2.876   3.086   4.876  0.1134  0.5776 -0.1102
 4315TIP3    H112909   2.918   3.072   4.960 -0.1623 -0.1102 -0.0793
 4315TIP3    H212910   2.887   3.003   4.829 -1.2931  0.3307 -0.0521
 4316TIP3   OH212911   4.395   0.841   1.688 -0.1138  0.0939  0.4140
 4316TIP3    H112912   4.362   0.863   1.775 -0.7479  0.6273  0.0510
 4316TIP3    H212913   4.316   0.820   1.637  0.0290  1.7864 -0.5806
 4317TIP3   OH212914   6.967   5.091   5.659 -0.0076 -0.6093 -0.0379
 4317TIP3    H112915   7.039   5.073   5.597  1.1057  1.0525  0.7033
 4317TIP3    H212916   6.939   5.004   5.688  1.6602 -1.3218 -0.4139
 4318TIP3   OH212917   5.275   2.100   5.842 -0.1127 -0.4270  0.2576
 4318TIP3    H112918   5.290   2.012   5.807  1.4443 -0.1790  0.2209
 4318TIP3    H212919   5.352   2.117   5.896 -0.2018  1.0589 -0.0439
 4319TIP3   OH212920   3.726   4.765   3.231  0.1304 -0.5976 -0.1894
 4319TIP3    H112921   3.693   4.843   3.276 -2.3287 -2.3280  1.2314
 4319TIP3    H212922   3.681   4.765   3.147  0.1634 -0.4914 -0.2082
 4320TIP3   OH212923   6.850   0.029   4.989 -0.1733  0.1879  0.4917
 4320TIP3    H112924   6.859   0.111   4.940  1.9167 -0.0635  0.3538
 4320TIP3    H212925   6.893  -0.036   4.933  0.8719 -0.4103  1.9347
 4321TIP3   OH212926   3.710   4.640   1.814  0.2094 -0.3935 -0.4725
 4321TIP3    H112927   3.663   4.586   1.751 -0.8695  0.6382 -0.5863
 4321TIP3    H212928   3.791   4.664   1.769  0.1473 -0.9192 -0.8748
 4322TIP3   OH212929   4.164   4.833   5.240  0.5112  0.2343  0.3141
 4322TIP3    H112930   4.232   4.890   5.205  0.4785  0.1466  0.1096
 4322TIP3    H212931   4.110   4.810   5.165 -1.6965  2.9191  0.9331
 4323TIP3   OH212932   0.924   3.066   1.362  0.4187  0.5506 -0.1692
 4323TIP3    H112933   0.961   3.111   1.286 -2.3941  0.7570 -1.5404
 4323TIP3    H212934   0.833   3.096   1.366 -0.2511 -1.4651  1.7309
 4324TIP3   OH212935   4.318   4.095   3.948  0.3091 -0.5005 -0.5782
 4324TIP3    H112936   4.364   4.081   4.031 -0.9997 -2.1901 -0.0890
 4324TIP3    H212937   4.386   4.083   3.881  1.6432  1.9678  0.1933
 4325TIP3   OH212938   0.398   4.319   0.020  0.3668  0.1345  0.1290
 4325TIP3    H112939   0.387   4.289  -0.070  2.0396 -1.9246  0.5385
 4325TIP3    H212940   0.309   4.337   0.051 -0.5491 -2.1509 -0.9681
 4326TIP3   OH212941   0.559   2.641   2.274 -0.5254 -0.2535  0.0657
 4326TIP3    H112942   0.633   2.695   2.301 -0.6227 -0.7409  1.3719
 4326TIP3    H212943   0.488   2.704   2.258 -0.3412  0.0870  0.5712
 4327TIP3   OH212944   4.454   6.585   3.604  0.1857 -0.3239  0.1286
 4327TIP3    H112945   4.436   6.496   3.574 -1.7093  0.4362 -1.1761
 4327TIP3    H212946   4.524   6.616   3.546  0.3662 -0.7100  0.1338
 4328TIP3   OH212947   5.374   5.113   4.814 -0.4116 -0.3111  0.1068
 4328TIP3    H112948   5.345   5.165   4.739  2.0950  1.3957  0.1716
 4328TIP3    H212949   5.293   5.087   4.858 -1.8864  2.2072 -0.8661
 4329TIP3   OH212950   3.268   4.109   3.378 -0.2999 -0.1950 -0.2079
 4329TIP3    H112951   3.221   4.053   3.316  1.0213  0.9539 -2.3581
 4329TIP3    H212952   3.272   4.195   3.335  1.9954  0.2614  0.7646
 4330TIP3   OH212953   2.770   1.060   1.092 -0.0014  0.4218 -0.0694
 4330TIP3    H112954   2.694   1.026   1.140 -0.0635  1.4292  0.5679
 4330TIP3    H212955   2.812   0.982   1.057 -0.1503 -0.3355  1.3393
 4331TIP3   OH212956   2.224   2.036   3.592  0.3068  0.0485 -0.1706
 4331TIP3    H112957   2.230   2.126   3.624  0.7264  0.6114 -1.7453
 4331TIP3    H212958   2.268   2.038   3.507 -0.3658 -1.4692 -0.5830
 4332TIP3   OH212959   2.299   2.138   1.981  0.0764  0.3811  0.3266
 4332TIP3    H112960   2.343   2.162   2.063  0.6731  0.1024  0.0876
 4332TIP3    H212961   2.295   2.220   1.932  0.7968  0.3049  0.1318
 4333TIP3   OH212962   5.653   0.159   0.728  0.1235 -0.3767 -0.1756
 4333TIP3    H112963   5.625   0.188   0.641 -0.5779  2.5173  0.8755
 4333TIP3    H212964   5.721   0.222   0.753  1.2670 -1.9703  0.8622
 4334TIP3   OH212965   6.091   1.710   1.645  0.0348  0.3949  0.3560
 4334TIP3    H112966   6.087   1.718   1.550  0.5903  1.6647  0.4224
 4334TIP3    H212967   6.060   1.794   1.677  1.8336  0.7397  1.2640
 4335TIP3   OH212968   0.091   2.282   4.886  0.2799  0.2238 -0.3825
 4335TIP3    H112969   0.049   2.365   4.865  2.1926  0.5938 -3.4391
 4335TIP3    H212970   0.142   2.300   4.965 -0.4402  1.5028 -0.1855
 4336TIP3   OH212971   3.635   0.657   5.194  0.0044 -0.0346  0.5372
 4336TIP3    H112972   3.591   0.585   5.148  0.5701 -0.0557  0.0239
 4336TIP3    H212973   3.716   0.619   5.227  0.5358  0.4792 -0.1475
 4337TIP3   OH212974   4.843   1.776   2.844 -0.2299 -0.3164 -0.3346
 4337TIP3    H112975   4.911   1.838   2.872 -0.8065  0.4576 -0.6214
 4337TIP3    H212976   4.762   1.809   2.884 -0.2616 -1.9325  1.0394
 4338TIP3   OH212977   1.938   3.975   0.423  0.2026 -0.1872 -0.1879
 4338TIP3    H112978   1.958   4.041   0.357 -1.1019  1.2315  0.7723
 4338TIP3    H212979   1.849   3.994   0.451  0.4576 -1.1890  1.4672
 4339TIP3   OH212980   1.821   6.759   4.090  0.3222  0.1233  0.1648
 4339TIP3    H112981   1.734   6.722   4.074  0.0922  0.7775 -0.1213
 4339TIP3    H212982   1.805   6.835   4.146  0.5403  1.1521 -1.1423
 4340TIP3   OH212983   3.126   6.317   5.634 -1.0374  0.4224 -0.9276
 4340TIP3    H112984   3.217   6.294   5.617 -1.4943 -2.2464 -0.2660
 4340TIP3    H212985   3.093   6.349   5.550  0.3217  0.8151 -1.3286
 4341TIP3   OH212986   3.988   5.465   5.697  0.4317 -0.0785  0.1817
 4341TIP3    H112987   3.933   5.388   5.709  1.3765 -0.8450 -0.2446
 4341TIP3    H212988   3.940   5.536   5.739  0.3484 -1.2367  2.1387
 4342TIP3   OH212989   7.110   1.750   4.183  0.3122 -0.2768  0.3502
 4342TIP3    H112990   7.127   1.832   4.135  1.0828 -0.3069  0.5494
 4342TIP3    H212991   7.118   1.682   4.116  0.6246 -0.2567  0.3624
 4343TIP3   OH212992   4.522   0.318   5.846 -0.5014 -0.1775  0.1977
 4343TIP3    H112993   4.515   0.233   5.890 -0.4115 -0.6583 -0.6863
 4343TIP3    H212994   4.434   0.355   5.852 -1.0050 -1.1008 -0.8588
 4344TIP3   OH212995   5.209   1.262   1.929  0.8948  0.3407  0.1048
 4344TIP3    H112996   5.208   1.167   1.916  0.3985  0.3992 -0.2970
 4344TIP3    H212997   5.230   1.273   2.022  1.0625 -0.1577  0.1312
 4345TIP3   OH212998   4.989   0.636   3.900  0.2726 -0.0467 -0.7615
 4345TIP3    H112999   4.974   0.728   3.876  0.1120 -0.0594 -0.7126
 4345TIP3    H213000   4.931   0.586   3.843  1.1142 -0.1919 -1.5055
 4346TIP3   OH213001   0.236   2.234   5.866 -0.1266  0.0463  0.0432
 4346TIP3    H113002   0.272   2.286   5.794 -0.0683 -0.4985 -0.3273
 4346TIP3    H213003   0.290   2.155   5.867 -1.3247 -0.8121 -0.5638
 4347TIP3   OH213004   3.157   0.955   2.879 -0.3391 -0.3409 -0.0918
 4347TIP3    H113005   3.177   0.867   2.909 -1.3162 -0.5937 -0.1275
 4347TIP3    H213006   3.187   0.957   2.788 -0.0600 -0.5413 -0.0048
 4348TIP3   OH213007   2.757   2.630   2.125 -0.0718 -0.4734 -0.1043
 4348TIP3    H113008   2.754   2.678   2.208 -1.9875  0.3604 -0.6036
 4348TIP3    H213009   2.749   2.699   2.058  1.6891 -1.1071 -1.0126
 4349TIP3   OH213010   4.760   3.033   1.238  0.2408 -0.3832 -0.0697
 4349TIP3    H113011   4.731   2.993   1.319 -0.6648 -1.6330 -0.9779
 4349TIP3    H213012   4.854   3.014   1.233 -0.2172 -2.8036 -0.6502
 4350TIP3   OH213013   6.415   1.155   0.060 -0.1922  0.3713  0.1661
 4350TIP3    H113014   6.406   1.115  -0.026  1.7957  1.1663 -0.4775
 4350TIP3    H213015   6.479   1.101   0.105 -0.4739  0.5462  0.7884
 4351TIP3   OH213016   4.412   4.233   3.664 -0.2396 -0.2371 -0.4179
 4351TIP3    H113017   4.450   4.244   3.751 -2.9766 -0.1907  0.8642
 4351TIP3    H213018   4.376   4.318   3.642 -1.4456 -0.7823 -0.6259
 4352TIP3   OH213019   0.931   2.904   0.620  0.0130  0.5965 -0.2642
 4352TIP3    H113020   0.881   2.983   0.641 -0.7611 -0.3806  1.8049
 4352TIP3    H213021   1.002   2.902   0.684  0.4248 -0.0473 -0.7232
 4353TIP3   OH213022   2.856   5.113   0.776 -0.3826 -0.0339  0.6398
 4353TIP3    H113023   2.926   5.063   0.735  0.5578  1.3005  0.5354
 4353TIP3    H213024   2.830   5.177   0.709 -1.5870 -0.3856  0.7427
 4354TIP3   OH213025   7.164   2.055   2.482  0.3940  0.0929 -0.0595
 4354TIP3    H113026   7.070   2.046   2.467  0.1297  1.3655  0.6333
 4354TIP3    H213027   7.203   2.052   2.395 -0.2607 -0.6301 -0.3418
 4355TIP3   OH213028   0.778   5.728   5.609 -0.3519 -0.1013 -0.3738
 4355TIP3    H113029   0.825   5.798   5.562  0.2623 -0.4791 -0.3265
 4355TIP3    H213030   0.826   5.648   5.587  0.1615 -0.2480  1.1626
 4356TIP3   OH213031   2.776   4.614   5.041 -0.0743 -0.0085 -0.1611
 4356TIP3    H113032   2.759   4.679   5.109  2.5682  0.3367  0.2910
 4356TIP3    H213033   2.725   4.538   5.067 -0.5509  0.7445  1.1995
 4357TIP3   OH213034   6.178   5.526   4.217  0.0862 -0.6224  0.2098
 4357TIP3    H113035   6.245   5.464   4.190  1.0517  0.1006  0.8814
 4357TIP3    H213036   6.214   5.612   4.196 -1.0942 -0.2469 -0.4138
 4358TIP3   OH213037   3.733   2.308   4.151  0.0222 -0.0853  0.4173
 4358TIP3    H113038   3.700   2.238   4.094  0.0968  0.7657 -0.7266
 4358TIP3    H213039   3.826   2.314   4.131  0.4156 -0.8830  1.8852
 4359TIP3   OH213040   6.570   2.181   2.857 -0.1668 -0.3975  0.2292
 4359TIP3    H113041   6.573   2.204   2.764  1.6920 -0.6111  0.2095
 4359TIP3    H213042   6.580   2.265   2.903 -0.3479 -0.3775  0.2327
 4360TIP3   OH213043   2.512   0.811   4.040  0.1441 -0.0885  0.8847
 4360TIP3    H113044   2.563   0.854   3.971  0.6418 -1.9269  0.0496
 4360TIP3    H213045   2.569   0.813   4.117 -0.3656  1.8660  1.2634
 4361TIP3   OH213046   1.950   6.690   1.162 -0.2793 -0.6655  0.4319
 4361TIP3    H113047   2.045   6.686   1.172 -0.0630  1.3938 -0.2253
 4361TIP3    H213048   1.932   6.784   1.152 -2.1664 -1.1636 -1.3610
 4362TIP3   OH213049   1.342   2.884   0.560  0.1403 -0.2790 -0.3140
 4362TIP3    H113050   1.315   2.975   0.574  1.2816  0.2986 -1.6531
 4362TIP3    H213051   1.260   2.839   0.537 -0.1424  0.8622 -1.6758
 4363TIP3   OH213052   2.104   2.454   0.226 -0.1911  0.0069  0.4267
 4363TIP3    H113053   2.078   2.447   0.135 -0.0017  0.5101  0.3309
 4363TIP3    H213054   2.165   2.528   0.228 -1.1724  0.8235  1.1706
 4364TIP3   OH213055   4.005   6.636   2.493 -0.2926  0.6441 -0.5545
 4364TIP3    H113056   4.010   6.726   2.528  0.7048  1.0681 -1.7307
 4364TIP3    H213057   4.080   6.591   2.534 -0.6805  0.3889 -0.1145
 4365TIP3   OH213058   5.323   5.567   5.030 -0.4518 -0.4292  0.0019
 4365TIP3    H113059   5.388   5.509   5.071  2.4513  2.0683 -0.7030
 4365TIP3    H213060   5.266   5.593   5.102  0.2519 -1.5237  1.0017
 4366TIP3   OH213061   5.290   4.594   1.141  0.0603  0.1670  0.0501
 4366TIP3    H113062   5.281   4.589   1.236  1.2728 -0.5907  0.1487
 4366TIP3    H213063   5.234   4.667   1.116 -0.9430 -0.1461  1.2435
 4367TIP3   OH213064   4.118   1.594   1.706 -0.4846  0.2288  0.4465
 4367TIP3    H113065   4.204   1.576   1.744  0.3955 -2.3923 -2.3625
 4367TIP3    H213066   4.121   1.688   1.687  1.2778  0.4424  1.5055
 4368TIP3   OH213067   6.902   3.720   4.314  0.3334  0.4069  0.5905
 4368TIP3    H113068   6.864   3.799   4.352 -0.5102  0.1300  0.3529
 4368TIP3    H213069   6.828   3.674   4.275  0.7445 -0.6938  1.0565
 4369TIP3   OH213070   3.608   1.806   4.290  0.2209 -0.6203  0.7193
 4369TIP3    H113071   3.535   1.787   4.231 -0.6137 -1.2839  1.9175
 4369TIP3    H213072   3.638   1.893   4.265  0.3773 -1.1798 -1.1563
 4370TIP3   OH213073   3.710   5.857   2.475  0.1447 -0.1259 -0.1685
 4370TIP3    H113074   3.687   5.779   2.424  0.6114 -0.3208 -0.0836
 4370TIP3    H213075   3.650   5.924   2.444 -0.0962 -0.4544 -0.4195
 4371TIP3   OH213076   7.024   3.116   5.004  0.5920 -0.3042 -0.0436
 4371TIP3    H113077   7.024   3.097   5.098  2.7278 -1.2292 -0.1715
 4371TIP3    H213078   7.088   3.186   4.994 -0.4024  0.5293 -0.7091
 4372TIP3   OH213079   5.581   4.941   4.737  0.0307  0.4931 -0.3508
 4372TIP3    H113080   5.510   5.000   4.761 -0.4845  0.6281 -2.0889
 4372TIP3    H213081   5.553   4.855   4.770  0.3729  1.0076  1.3874
 4373TIP3   OH213082   1.878   6.565   2.741  0.1060  0.4685  0.3045
 4373TIP3    H113083   1.959   6.513   2.739  0.6337  1.1535  2.0829
 4373TIP3    H213084   1.878   6.613   2.658 -0.4421 -2.3346 -1.4420
 4374TIP3   OH213085   1.550   2.361   2.760  0.0889 -0.4094 -0.3697
 4374TIP3    H113086   1.461   2.354   2.794  0.3852 -0.0009  0.5444
 4374TIP3    H213087   1.603   2.381   2.838  0.8978 -0.1183 -0.9859
 4375TIP3   OH213088   6.869   3.801   3.827  0.5257  0.1009 -0.7232
 4375TIP3    H113089   6.795   3.741   3.819 -0.2727  0.9941 -0.1907
 4375TIP3    H213090   6.876   3.819   3.921  2.0903 -0.7676 -0.6300
 4376TIP3   OH213091   6.469   2.092   4.228  0.3439 -0.1069 -0.2077
 4376TIP3    H113092   6.417   2.088   4.147  2.1980  1.0843 -1.5387
 4376TIP3    H213093   6.458   2.183   4.258  0.1565 -0.3760  0.5564
 4377TIP3   OH213094   2.833   3.663   5.308 -0.7312  0.2314  0.1190
 4377TIP3    H113095   2.832   3.626   5.396  1.8495  0.7942  0.4764
 4377TIP3    H213096   2.828   3.588   5.250  0.1389 -0.3735  0.8004
 4378TIP3   OH213097   5.002   5.227   0.412  0.5445  1.0232  0.5923
 4378TIP3    H113098   4.992   5.265   0.325  2.7090  2.2967  0.8101
 4378TIP3    H213099   4.921   5.179   0.428 -0.4418  1.8762 -1.5625
 4379TIP3   OH213100   4.872   6.089   2.930  0.5730  0.1675 -0.4147
 4379TIP3    H113101   4.880   6.162   2.992  1.4788 -1.9671  2.1416
 4379TIP3    H213102   4.792   6.044   2.956 -0.4734  0.6721 -2.5646
 4380TIP3   OH213103   5.877   5.618   1.497 -0.1062  0.3434 -0.7057
 4380TIP3    H113104   5.954   5.567   1.522  0.5609  0.5813 -2.1991
 4380TIP3    H213105   5.913   5.703   1.472 -0.7722  0.2183 -2.1322
 4381TIP3   OH213106   4.483   3.451   5.438  0.0597 -0.2617 -0.2528
 4381TIP3    H113107   4.555   3.406   5.394 -0.4898 -0.1793 -1.2512
 4381TIP3    H213108   4.504   3.544   5.429  0.6424 -0.2572  0.8807
 4382TIP3   OH213109   3.310   2.593   4.527  0.2748 -0.0164  0.2639
 4382TIP3    H113110   3.229   2.574   4.480 -0.7793  0.4739  1.7895
 4382TIP3    H213111   3.366   2.518   4.510 -1.1821 -1.2367  0.6289
 4383TIP3   OH213112   4.280   2.613   2.980  0.1528 -0.3753 -0.6413
 4383TIP3    H113113   4.298   2.698   2.940 -0.3444 -0.4025 -0.9331
 4383TIP3    H213114   4.299   2.625   3.073 -1.6062  0.5746 -0.3694
 4384TIP3   OH213115   2.435   2.825   0.671  0.4997 -0.4623 -0.3518
 4384TIP3    H113116   2.502   2.786   0.726  1.5428 -0.9972 -1.9416
 4384TIP3    H213117   2.354   2.778   0.694  1.2806 -1.9939 -0.5806
 4385TIP3   OH213118   4.113   6.424   3.036 -0.8189  0.1952 -0.2925
 4385TIP3    H113119   4.099   6.495   3.099 -3.5114 -1.0821  0.7375
 4385TIP3    H213120   4.040   6.364   3.052  0.8302 -2.3695 -1.7224
 4386TIP3   OH213121   1.269   1.076   1.453  0.0777 -0.6121  0.4015
 4386TIP3    H113122   1.292   1.140   1.520 -0.9432  0.1625  0.0360
 4386TIP3    H213123   1.318   1.105   1.376  1.2304 -1.4873  0.7686
 4387TIP3   OH213124   6.085   0.322   1.718  0.4962  0.3555  0.2837
 4387TIP3    H113125   6.173   0.349   1.746  0.2249  4.6544 -2.1625
 4387TIP3    H213126   6.090   0.320   1.623 -1.7796 -0.6027  0.1271
 4388TIP3   OH213127   5.860   6.450   3.108  0.8333 -0.1993  0.1565
 4388TIP3    H113128   5.905   6.500   3.177  0.5636  0.2501  0.0126
 4388TIP3    H213129   5.828   6.372   3.152  0.8077  0.0050  0.5051
 4389TIP3   OH213130   6.234   2.799   3.136 -0.5296  0.2058  0.7445
 4389TIP3    H113131   6.300   2.766   3.076  0.0630  1.1835  0.8404
 4389TIP3    H213132   6.172   2.847   3.081  0.1748  1.3553  0.9227
 4390TIP3   OH213133   2.712   6.676   0.121  0.1153  0.5096 -0.4184
 4390TIP3    H113134   2.728   6.583   0.106  0.2827  0.5859 -0.7072
 4390TIP3    H213135   2.737   6.689   0.213 -0.8985  0.0544 -0.0537
 4391TIP3   OH213136   6.440   2.213   0.284 -0.1199  0.3358  0.2749
 4391TIP3    H113137   6.516   2.264   0.313  0.8300 -1.1444  0.4903
 4391TIP3    H213138   6.364   2.264   0.313  0.7875  1.2057  1.1987
 4392TIP3   OH213139   0.974   6.114   0.547  0.4282  0.1403 -0.0195
 4392TIP3    H113140   1.042   6.112   0.614  0.0494  0.9254  0.4034
 4392TIP3    H213141   0.967   6.024   0.517 -0.0811 -0.4387  1.7084
 4393TIP3   OH213142   2.036   3.293   1.138  0.8371 -0.1839 -0.0053
 4393TIP3    H113143   2.043   3.218   1.078 -0.0876  0.2806 -0.7274
 4393TIP3    H213144   1.971   3.350   1.097  0.6996  0.4855  1.0993
 4394TIP3   OH213145   4.258   5.983   2.771 -0.0430 -0.2591 -0.2271
 4394TIP3    H113146   4.347   5.949   2.771  0.1044  0.1115  0.4379
 4394TIP3    H213147   4.264   6.067   2.726  0.5890  1.3390  2.6761
 4395TIP3   OH213148   3.288   1.107   4.240 -0.6747 -0.2960 -0.2838
 4395TIP3    H113149   3.236   1.112   4.321 -0.8791  0.2563 -0.4465
 4395TIP3    H213150   3.311   1.197   4.221  0.9605 -0.5811  0.1726
 4396TIP3   OH213151   1.412   3.283   0.325  0.1257 -0.5480  0.0562
 4396TIP3    H113152   1.347   3.331   0.377  0.8362 -0.5105  0.9249
 4396TIP3    H213153   1.470   3.243   0.389  1.5832  0.2686 -0.7052
 4397TIP3   OH213154   4.480   4.037   4.185 -0.4645 -0.4130  0.4017
 4397TIP3    H113155   4.534   4.074   4.255 -1.1661  0.3502  0.5510
 4397TIP3    H213156   4.433   3.965   4.226  0.0409 -0.7431  0.4047
 4398TIP3   OH213157   6.398   1.041   0.507  0.1734  0.1302  0.2437
 4398TIP3    H113158   6.473   1.036   0.566  1.0037  0.9157 -0.7122
 4398TIP3    H213159   6.351   1.119   0.535  0.9237  0.8684 -0.5298
 4399TIP3   OH213160   0.012   1.328   5.840 -0.0125 -0.1137  0.1372
 4399TIP3    H113161   0.017   1.233   5.833 -1.1523 -0.1936  0.3105
 4399TIP3    H213162   0.004   1.358   5.749  0.8650 -0.1318  0.0405
 4400TIP3   OH213163   4.045   3.436   3.851  0.0603 -0.0929  0.1752
 4400TIP3    H113164   3.950   3.427   3.854  0.1509 -1.2793 -0.0561
 4400TIP3    H213165   4.061   3.527   3.874 -1.1314  0.1212  0.2214
 4401TIP3   OH213166   4.196   0.946   1.918  0.1169 -0.3567  0.0078
 4401TIP3    H113167   4.116   0.893   1.916 -0.3560  0.3626 -0.4636
 4401TIP3    H213168   4.170   1.027   1.961  0.4348  0.1334 -0.7156
 4402TIP3   OH213169   0.303   2.461   0.793 -0.3511  0.1404 -0.0819
 4402TIP3    H113170   0.348   2.536   0.833 -0.6132  0.5277 -0.5089
 4402TIP3    H213171   0.341   2.385   0.837  1.0028  0.4321 -0.6698
 4403TIP3   OH213172   4.973   5.775   0.934  0.0168 -0.3542  0.2524
 4403TIP3    H113173   4.883   5.790   0.903 -0.3511 -0.0953  1.3761
 4403TIP3    H213174   5.026   5.775   0.855 -0.9167 -0.0293 -0.3950
 4404TIP3   OH213175   0.412   1.506   4.042  0.0953  0.1843 -0.2164
 4404TIP3    H113176   0.405   1.600   4.024 -1.1034 -0.0035 -0.7956
 4404TIP3    H213177   0.493   1.480   3.998  0.7127  1.0346  0.3890
 4405TIP3   OH213178   6.382   4.770   2.695 -0.2979  0.3350  0.1820
 4405TIP3    H113179   6.409   4.710   2.626  1.7417 -0.2577  1.4123
 4405TIP3    H213180   6.357   4.714   2.768  1.8536  0.8812  1.4295
 4406TIP3   OH213181   6.874   6.165   5.185 -0.2076 -0.0800 -0.2907
 4406TIP3    H113182   6.915   6.251   5.186  0.4645 -0.3946 -0.4926
 4406TIP3    H213183   6.801   6.174   5.123 -1.7042  1.0369  1.5131
 4407TIP3   OH213184   2.562   1.865   4.204  0.2660  0.4425  0.6761
 4407TIP3    H113185   2.476   1.854   4.243 -0.2264 -0.8725 -0.6763
 4407TIP3    H213186   2.571   1.960   4.190 -2.1848  0.4393 -1.6998
 4408TIP3   OH213187   5.390   5.194   2.363 -0.4057  0.2799  0.3335
 4408TIP3    H113188   5.340   5.194   2.445 -2.5968  0.5092 -0.9174
 4408TIP3    H213189   5.417   5.285   2.352  3.1651 -0.3040  2.5306
 4409TIP3   OH213190   6.366   0.192   0.536 -0.0452  0.2457  0.4750
 4409TIP3    H113191   6.376   0.180   0.442  0.2789 -0.0471  0.5445
 4409TIP3    H213192   6.435   0.138   0.574 -0.5316 -0.0816  0.9011
 4410TIP3   OH213193   5.524   1.292   0.084 -0.5958 -0.2804  0.4463
 4410TIP3    H113194   5.584   1.357   0.047 -1.6121  0.4521  0.0375
 4410TIP3    H213195   5.581   1.223   0.117  0.4691  0.3859  0.0554
 4411TIP3   OH213196   3.565   3.465   0.711  0.2944 -0.0449 -0.1008
 4411TIP3    H113197   3.602   3.532   0.653  1.3859  1.0990  1.8389
 4411TIP3    H213198   3.499   3.510   0.762 -0.0791 -0.8452  0.1463
 4412TIP3   OH213199   4.437   3.545   0.666  0.0393 -0.3993 -0.0566
 4412TIP3    H113200   4.467   3.475   0.608 -0.1518 -1.1445  0.7117
 4412TIP3    H213201   4.515   3.597   0.684 -0.0755  0.3820 -1.6719
 4413TIP3   OH213202   1.490   6.492   1.626 -0.0455 -0.3217  0.7599
 4413TIP3    H113203   1.429   6.515   1.557 -0.6724  0.0336  1.4223
 4413TIP3    H213204   1.543   6.421   1.589 -1.1399 -0.9385  0.3212
 4414TIP3   OH213205   1.047   3.179   2.025  0.0527 -0.3094 -0.0725
 4414TIP3    H113206   1.008   3.149   1.944 -1.8098 -0.5805  0.8790
 4414TIP3    H213207   1.071   3.270   2.008  1.2175 -0.8277 -1.4109
 4415TIP3   OH213208   0.357   1.215   4.342 -0.1408  0.0412  0.4607
 4415TIP3    H113209   0.375   1.264   4.262 -0.3984 -0.4788  0.0776
 4415TIP3    H213210   0.437   1.165   4.358 -0.6268 -1.0361 -0.3442
 4416TIP3   OH213211   4.844   3.428   4.115  0.7281 -0.7341 -0.1311
 4416TIP3    H113212   4.816   3.488   4.046  0.7192  1.1286  1.4045
 4416TIP3    H213213   4.940   3.437   4.118  0.7235 -0.7583  0.1356
 4417TIP3   OH213214   6.427   5.037   2.265 -0.2618 -0.0866  0.1812
 4417TIP3    H113215   6.522   5.032   2.254 -0.2423  1.4673 -0.6771
 4417TIP3    H213216   6.414   5.059   2.357  0.2121 -0.2297  0.2840
 4418TIP3   OH213217   6.904   4.172   3.258  0.1153  0.3057 -0.3553
 4418TIP3    H113218   6.829   4.194   3.312  1.0401  2.8856  0.0543
 4418TIP3    H213219   6.953   4.108   3.309  0.3176  1.7514  1.3505
 4419TIP3   OH213220   2.237   3.146   3.689 -0.0977 -0.0513 -0.3016
 4419TIP3    H113221   2.257   3.145   3.783  0.2508  0.0181 -0.3710
 4419TIP3    H213222   2.319   3.176   3.648 -0.1542 -0.3701 -0.6511
 4420TIP3   OH213223   3.029   1.481   2.318 -0.0964  0.5561 -0.7419
 4420TIP3    H113224   3.019   1.501   2.225 -3.0067  1.9173 -0.2407
 4420TIP3    H213225   2.940   1.484   2.354  1.0544  1.6600  2.4031
 4421TIP3   OH213226   0.942   3.776   0.217 -0.6347 -0.1460  0.4460
 4421TIP3    H113227   0.942   3.738   0.130 -0.3352 -1.7217  1.0938
 4421TIP3    H213228   0.878   3.848   0.213  1.0492  1.3565 -1.6509
 4422TIP3   OH213229   6.117   3.227   0.536 -0.2598  0.1618 -0.0405
 4422TIP3    H113230   6.033   3.255   0.572 -1.4132 -0.4021 -2.1518
 4422TIP3    H213231   6.137   3.145   0.581 -1.3903 -0.2536 -0.2821
 4423TIP3   OH213232   2.601   6.062   2.606 -0.3285 -0.4167  0.0771
 4423TIP3    H113233   2.566   6.005   2.538 -0.1952  2.1084 -2.2447
 4423TIP3    H213234   2.527   6.081   2.663 -1.3086  0.1718 -1.3690
 4424TIP3   OH213235   1.450   0.331   3.050 -0.1591  0.0225  0.1646
 4424TIP3    H113236   1.525   0.353   3.105 -0.5977 -0.1899  0.8554
 4424TIP3    H213237   1.466   0.377   2.967  0.4193  0.4837  0.5310
 4425TIP3   OH213238   0.004   3.104   2.170 -0.4067  0.4162  0.6407
 4425TIP3    H113239  -0.040   3.108   2.255  0.7229  1.1979  1.2118
 4425TIP3    H213240   0.093   3.136   2.187 -0.1811  0.6605 -0.8465
 4426TIP3   OH213241   2.385   5.607   1.169  0.8197 -0.2140  0.3549
 4426TIP3    H113242   2.384   5.642   1.080 -1.2226 -2.4221 -0.6093
 4426TIP3    H213243   2.403   5.682   1.225 -2.7939  2.3282 -1.5652
 4427TIP3   OH213244   6.758   0.062   4.331 -0.2864  0.3082 -0.0577
 4427TIP3    H113245   6.669   0.035   4.310 -0.4338 -0.8760  1.8527
 4427TIP3    H213246   6.783   0.007   4.405  1.1322  2.2930  1.0529
 4428TIP3   OH213247   1.794   0.026   5.545 -0.1651 -0.2224 -0.2540
 4428TIP3    H113248   1.754   0.112   5.528  1.8144  0.8909  0.4164
 4428TIP3    H213249   1.785   0.013   5.639 -0.6451 -0.8774 -0.3825
 4429TIP3   OH213250   3.167   3.617   4.472  0.7558 -0.1346 -0.7133
 4429TIP3    H113251   3.078   3.592   4.497  1.6085 -2.9071 -0.1619
 4429TIP3    H213252   3.168   3.610   4.377  0.1674  0.7896 -0.7969
 4430TIP3   OH213253   5.312   2.252   1.811 -0.4924 -0.1312  0.0631
 4430TIP3    H113254   5.398   2.246   1.852  0.7801  1.3979 -2.1941
 4430TIP3    H213255   5.268   2.322   1.859  0.0569  0.0451  0.3209
 4431TIP3   OH213256   0.717   1.323   0.505  0.3204 -0.3356  0.0801
 4431TIP3    H113257   0.713   1.300   0.598 -0.5485 -0.4654  0.0233
 4431TIP3    H213258   0.715   1.418   0.504 -0.5333 -0.3438  0.1769
 4432TIP3   OH213259   2.135   4.623   1.911 -0.5665  0.3326  0.0117
 4432TIP3    H113260   2.115   4.543   1.959 -2.0132  0.2074 -0.7264
 4432TIP3    H213261   2.214   4.602   1.861  1.8429  0.9370  3.2916
 4433TIP3   OH213262   1.013   3.517   3.706 -0.0841 -0.4047 -0.2720
 4433TIP3    H113263   1.031   3.607   3.735 -1.4667 -0.4848  0.9600
 4433TIP3    H213264   1.100   3.477   3.698  0.4930  0.3392  1.5884
 4434TIP3   OH213265   0.760   4.579   3.104  0.3036 -0.0084  0.2405
 4434TIP3    H113266   0.781   4.666   3.138 -1.1709  0.3714  0.2376
 4434TIP3    H213267   0.683   4.552   3.154 -0.2931 -0.5837 -0.9613
 4435TIP3   OH213268   2.695   5.419   2.948 -0.0581 -0.5508 -0.1463
 4435TIP3    H113269   2.640   5.483   2.903 -0.8638 -0.3901  1.0357
 4435TIP3    H213270   2.636   5.346   2.966  0.4536 -0.9377 -0.0307
 4436TIP3   OH213271   2.459   5.838   4.606  0.1257 -0.1494  0.1733
 4436TIP3    H113272   2.537   5.787   4.586  1.0783  1.9138 -1.8779
 4436TIP3    H213273   2.489   5.929   4.604 -2.1179  0.6577  0.4676
 4437TIP3   OH213274   0.535   5.617   2.590  0.0316 -0.1452  0.6023
 4437TIP3    H113275   0.567   5.548   2.531 -0.5933 -0.5092  0.6917
 4437TIP3    H213276   0.509   5.688   2.531 -0.0954 -0.3025  0.4699
 4438TIP3   OH213277   2.953   2.090   1.021 -0.1075 -0.2407  0.9349
 4438TIP3    H113278   3.002   2.118   0.943 -0.1873  1.2359  1.3813
 4438TIP3    H213279   3.005   2.122   1.094 -1.7803  1.5726  1.4232
 4439TIP3   OH213280   2.820   5.136   3.703 -0.1949  0.1439 -0.5941
 4439TIP3    H113281   2.807   5.219   3.749  0.3809 -0.4215  0.6428
 4439TIP3    H213282   2.732   5.110   3.674 -0.3559  1.2473 -1.1234
 4440TIP3   OH213283   0.842   0.178   3.437 -0.6617  0.0334 -0.0775
 4440TIP3    H113284   0.834   0.165   3.532 -1.1601  0.3377 -0.0771
 4440TIP3    H213285   0.894   0.258   3.429 -0.0430 -0.3612 -0.0682
 4441TIP3   OH213286   6.038   2.907   0.942  0.4535 -0.2615  0.1759
 4441TIP3    H113287   6.109   2.875   0.999  1.9628 -1.1239 -2.0488
 4441TIP3    H213288   5.983   2.959   1.000  2.7571  0.2437  2.0807
 4442TIP3   OH213289   6.239   1.157   0.996 -0.0876  0.2521  0.2821
 4442TIP3    H113290   6.269   1.084   1.050 -1.0772 -0.2249  0.2149
 4442TIP3    H213291   6.153   1.129   0.964 -0.8747  1.8057  0.9466
 4443TIP3   OH213292   1.616   1.736   0.633 -0.0984  0.3955 -0.5187
 4443TIP3    H113293   1.699   1.705   0.670 -0.8946 -1.0017  0.2018
 4443TIP3    H213294   1.633   1.827   0.611  1.0681  0.7303  1.4322
 4444TIP3   OH213295   1.630   6.680   1.419  0.0072  0.5102 -0.0114
 4444TIP3    H113296   1.680   6.733   1.357 -0.1534  0.6524 -0.0178
 4444TIP3    H213297   1.685   6.677   1.497  2.3038 -3.2015 -1.5085
 4445TIP3   OH213298   7.150   4.411   5.399 -0.5322  0.1848 -0.3166
 4445TIP3    H113299   7.233   4.410   5.447 -0.5114 -0.3267 -0.3563
 4445TIP3    H213300   7.167   4.467   5.323 -0.8519  1.7988  0.7525
 4446TIP3   OH213301   4.792   0.531   4.700 -0.6077  0.0948 -0.1349
 4446TIP3    H113302   4.753   0.486   4.625 -3.2499 -1.2604  1.8774
 4446TIP3    H213303   4.867   0.478   4.725 -0.7147 -0.3731 -0.8007
 4447TIP3   OH213304   5.882   0.741   4.154  0.3833  0.0512  1.0333
 4447TIP3    H113305   5.917   0.743   4.065 -0.2863 -0.3710  0.7453
 4447TIP3    H213306   5.789   0.721   4.142  0.3190 -0.1752  1.8364
 4448TIP3   OH213307   5.515   5.421   1.752 -0.0560  0.3427 -0.2037
 4448TIP3    H113308   5.549   5.384   1.671 -0.7521  0.1980 -0.4400
 4448TIP3    H213309   5.496   5.345   1.807  1.1099  0.4648  0.3949
 4449TIP3   OH213310   2.962   6.711   5.159  0.2188 -0.3166  0.2742
 4449TIP3    H113311   2.950   6.799   5.124  1.1129 -0.0163  0.6832
 4449TIP3    H213312   3.051   6.711   5.194  0.9667 -1.9768 -1.4520
 4450TIP3   OH213313   5.468   3.971   4.834 -0.1515  0.7787 -0.8037
 4450TIP3    H113314   5.553   3.941   4.865 -0.4449  1.3027  0.5873
 4450TIP3    H213315   5.468   4.065   4.851 -1.6038  0.5541  0.8023
 4451TIP3   OH213316   5.852  -0.008   4.312 -0.1637  0.1430 -0.0094
 4451TIP3    H113317   5.876   0.021   4.400  0.7961 -0.4242 -0.0656
 4451TIP3    H213318   5.859   0.071   4.258 -0.7490  0.4916  0.4106
 4452TIP3   OH213319   6.200   5.823   4.112 -0.1049  0.8367 -0.0560
 4452TIP3    H113320   6.117   5.851   4.150 -0.7212  1.8743 -2.0234
 4452TIP3    H213321   6.262   5.892   4.139  0.2658 -0.1259  1.7186
 4453TIP3   OH213322   5.697   0.030   3.326 -0.5787 -0.8648 -0.1556
 4453TIP3    H113323   5.611   0.013   3.286 -0.7692  2.2737 -1.3478
 4453TIP3    H213324   5.686   0.005   3.417 -2.2753 -1.9553 -0.5988
 4454TIP3   OH213325   3.174   2.776   4.012  0.0940  0.0190 -0.6577
 4454TIP3    H113326   3.094   2.748   3.967  0.2472 -0.0534 -0.8862
 4454TIP3    H213327   3.184   2.868   3.988 -1.4847  0.8726  1.6523
 4455TIP3   OH213328   4.133   3.788   1.901  0.1208 -0.0918  0.0908
 4455TIP3    H113329   4.216   3.831   1.879 -0.0319  0.6895  0.9531
 4455TIP3    H213330   4.067   3.840   1.855  0.0141 -0.0118  0.3362
 4456TIP3   OH213331   2.681   3.541   4.117 -0.3475 -0.4547 -0.1692
 4456TIP3    H113332   2.717   3.522   4.031 -1.8155 -0.7834 -0.7366
 4456TIP3    H213333   2.740   3.497   4.178  1.4098  0.7856 -0.8856
 4457TIP3   OH213334   5.612   2.440   1.691  0.3442  0.1172 -0.4176
 4457TIP3    H113335   5.690   2.451   1.636 -0.4524 -2.4992 -2.2328
 4457TIP3    H213336   5.539   2.466   1.634 -0.4271 -1.7289 -0.3200
 4458TIP3   OH213337   6.662   6.093   2.329 -0.1524  0.4272 -0.3754
 4458TIP3    H113338   6.638   6.169   2.277 -0.8642  0.9839  0.7590
 4458TIP3    H213339   6.757   6.102   2.342 -0.1849  0.9504 -0.4881
 4459TIP3   OH213340   3.714   4.365   5.337  0.6289 -0.5902  1.2766
 4459TIP3    H113341   3.680   4.306   5.270  0.4413  2.2401 -1.3248
 4459TIP3    H213342   3.643   4.428   5.352  2.2815  1.5614  0.6085
 4460TIP3   OH213343   0.407   1.881   1.488  0.2971 -0.7211  0.2035
 4460TIP3    H113344   0.340   1.928   1.537 -1.4723 -3.2452  0.3648
 4460TIP3    H213345   0.395   1.910   1.398  0.3263  0.2895  0.5087
 4461TIP3   OH213346   5.027   3.702   2.092 -0.0261  0.0188  0.3709
 4461TIP3    H113347   5.085   3.777   2.079  0.8120 -0.6845 -0.0167
 4461TIP3    H213348   5.043   3.646   2.016 -0.7769 -0.4724  0.5625
 4462TIP3   OH213349   3.183   0.357   3.234 -0.0450  0.1350  0.4051
 4462TIP3    H113350   3.237   0.387   3.161 -0.5627  1.0716  0.3870
 4462TIP3    H213351   3.170   0.264   3.219 -0.2103  0.3379 -0.7404
 4463TIP3   OH213352   6.717   6.750   1.817  0.1129  0.3795 -0.0900
 4463TIP3    H113353   6.753   6.783   1.734 -1.1424  1.0690 -0.3973
 4463TIP3    H213354   6.645   6.693   1.790  0.5529 -0.4656  0.5107
 4464TIP3   OH213355   1.596   6.013   5.602  0.3427  0.2474  0.4932
 4464TIP3    H113356   1.535   5.940   5.594  1.7044 -0.8176 -1.0037
 4464TIP3    H213357   1.672   5.976   5.648  2.0367 -0.0497 -2.3238
 4465TIP3   OH213358   2.533   1.285   1.520 -0.0319 -0.0631  0.3371
 4465TIP3    H113359   2.481   1.337   1.459  0.4690  0.3618  0.2712
 4465TIP3    H213360   2.610   1.259   1.469  0.9640  1.2710  1.1179
 4466TIP3   OH213361   0.054   0.276   4.823  0.0877  0.5445  0.0227
 4466TIP3    H113362   0.145   0.304   4.832 -0.1916  0.6946  3.2735
 4466TIP3    H213363   0.055   0.182   4.844 -0.2791  0.0091 -2.0530
 4467TIP3   OH213364   2.944   2.849   5.033  0.1445  1.1170  0.3714
 4467TIP3    H113365   2.869   2.794   5.056 -0.2710  2.3216  2.1159
 4467TIP3    H213366   2.971   2.887   5.116  2.1114  1.4555 -0.3853
 4468TIP3   OH213367   5.434   4.066   1.285  0.1844 -0.2139  0.1110
 4468TIP3    H113368   5.442   4.153   1.245  0.9248 -1.0025 -1.5486
 4468TIP3    H213369   5.525   4.039   1.301 -0.0521 -0.5981  0.8328
 4469TIP3   OH213370   1.805   5.363   2.303 -0.1173  0.4110  0.4397
 4469TIP3    H113371   1.826   5.308   2.227 -1.0452  1.8657 -0.9487
 4469TIP3    H213372   1.711   5.378   2.296 -0.4522 -0.3721  2.5918
 4470TIP3   OH213373   3.561   4.111   3.227 -0.0050  0.2673  0.0786
 4470TIP3    H113374   3.470   4.141   3.215  0.1000  0.1443 -1.2644
 4470TIP3    H213375   3.553   4.022   3.259 -0.3722  0.1647 -0.2856
 4471TIP3   OH213376   3.119   5.950   2.547 -0.3113  0.8355  0.6097
 4471TIP3    H113377   3.055   5.894   2.592 -1.3595  1.9800  0.6005
 4471TIP3    H213378   3.092   5.947   2.455  0.7361 -0.0564  0.3022
 4472TIP3   OH213379   5.268   2.381   4.868 -0.7026 -0.0507 -0.1215
 4472TIP3    H113380   5.300   2.439   4.799  1.8029 -0.9961  0.1115
 4472TIP3    H213381   5.302   2.419   4.949 -2.9651  0.6239  0.5826
 4473TIP3   OH213382   1.849   5.981   1.548 -0.3392 -0.0694  0.8724
 4473TIP3    H113383   1.754   5.967   1.554 -0.2348 -0.2319  2.6803
 4473TIP3    H213384   1.886   5.893   1.541 -0.3464  0.0321 -0.6061
 4474TIP3   OH213385   1.166   1.136   5.095  0.4305  0.5749  0.2477
 4474TIP3    H113386   1.232   1.192   5.054  1.5296 -1.2868 -0.6348
 4474TIP3    H213387   1.199   1.121   5.184  0.3247  1.0029  0.3612
 4475TIP3   OH213388   4.378   6.340   5.319  0.0609 -0.0513  0.4689
 4475TIP3    H113389   4.442   6.370   5.254 -0.1164 -0.6829 -0.0063
 4475TIP3    H213390   4.313   6.292   5.268  0.2660 -1.1278  1.1876
 4476TIP3   OH213391   3.198   2.405   2.850 -0.1021  0.3927 -0.6864
 4476TIP3    H113392   3.286   2.434   2.877 -0.9294  1.7402  0.6980
 4476TIP3    H213393   3.139   2.471   2.886 -1.9142 -1.7292  0.4713
 4477TIP3   OH213394   1.068   6.062   2.061 -0.3952 -0.5499 -0.0312
 4477TIP3    H113395   1.083   6.000   2.132  0.0021  0.8246  1.1228
 4477TIP3    H213396   1.126   6.136   2.080 -0.6150  0.0591 -1.5380
 4478TIP3   OH213397   3.293   0.764   3.862  0.0217 -0.0637  0.7334
 4478TIP3    H113398   3.244   0.825   3.808 -1.5141 -0.3547  1.7338
 4478TIP3    H213399   3.334   0.818   3.929 -2.1507 -0.1354  2.2253
 4479TIP3   OH213400   5.586   0.077   0.978  0.3170  0.0297  0.2756
 4479TIP3    H113401   5.619   0.075   0.888 -0.5826 -0.4714 -0.0618
 4479TIP3    H213402   5.493   0.098   0.968  0.5049  1.3720  1.1951
 4480TIP3   OH213403   5.941   2.608   4.566  0.2396 -0.2205  0.6482
 4480TIP3    H113404   5.949   2.566   4.480 -0.2216  1.2529 -0.1507
 4480TIP3    H213405   5.958   2.537   4.629  1.1104 -1.2142 -0.6468
 4481TIP3   OH213406   6.467   1.624   3.459  0.6853 -0.4772 -0.0613
 4481TIP3    H113407   6.469   1.546   3.514 -0.1997 -0.5243 -0.0754
 4481TIP3    H213408   6.375   1.631   3.431  0.9909 -0.1150 -1.0364
 4482TIP3   OH213409   5.281   4.571   0.845 -0.1282 -0.5885  0.3243
 4482TIP3    H113410   5.286   4.633   0.919  1.1944 -0.4762  0.1682
 4482TIP3    H213411   5.372   4.545   0.830 -0.4455 -1.0373 -0.9129
 4483TIP3   OH213412   0.114   4.013   4.088 -0.0636 -0.0131 -0.4127
 4483TIP3    H113413   0.176   4.086   4.098 -0.8078  0.6192 -0.2750
 4483TIP3    H213414   0.047   4.047   4.029  0.0959 -0.9457 -1.1581
 4484TIP3   OH213415  -0.001   2.943   0.030  0.1378  0.3095 -0.1202
 4484TIP3    H113416   0.020   3.005   0.100 -1.7674  0.0674  0.7520
 4484TIP3    H213417  -0.008   2.858   0.075  0.7094 -0.1705 -0.9352
 4485TIP3   OH213418   7.177   3.093   3.564  0.0787 -0.1640 -0.5008
 4485TIP3    H113419   7.178   3.157   3.494  2.1866  0.2643 -0.1364
 4485TIP3    H213420   7.228   3.019   3.531 -1.7909 -1.4325 -0.6773
 4486TIP3   OH213421   0.849   4.358   0.459  0.1098  0.3198  0.1297
 4486TIP3    H113422   0.797   4.438   0.462  0.6707  0.6817  0.3731
 4486TIP3    H213423   0.824   4.316   0.376  0.0186  0.8889 -0.1332
 4487TIP3   OH213424   5.678   4.054   0.675  0.0907  0.0444 -0.5251
 4487TIP3    H113425   5.725   3.990   0.728  0.1423  0.7124  0.2538
 4487TIP3    H213426   5.687   4.022   0.585 -0.6712 -1.5186 -0.0668
 4488TIP3   OH213427   3.612   5.910   3.354 -0.1888  0.1422  0.5890
 4488TIP3    H113428   3.525   5.942   3.376 -0.0275 -0.1576  1.7168
 4488TIP3    H213429   3.596   5.829   3.306 -0.5381  0.5064  0.0789
 4489TIP3   OH213430   1.799   2.418   2.963 -0.0776 -0.5940 -0.0266
 4489TIP3    H113431   1.873   2.453   2.915  1.0097 -0.9074  1.3345
 4489TIP3    H213432   1.825   2.329   2.986 -2.5413 -2.2529 -2.9305
 4490TIP3   OH213433   4.647   5.436   3.908  0.3927 -0.3198  0.0838
 4490TIP3    H113434   4.566   5.441   3.857 -0.3425 -0.3018  1.2240
 4490TIP3    H213435   4.666   5.527   3.932  0.1435 -0.4296  0.7239
 4491TIP3   OH213436   5.846   1.030   5.859  0.0708  0.3132 -0.5086
 4491TIP3    H113437   5.775   0.983   5.904 -0.2751  1.2298 -0.0728
 4491TIP3    H213438   5.801   1.095   5.806  0.4342 -1.1542 -2.7440
 4492TIP3   OH213439   6.324   5.492   1.275  0.0265 -0.0766 -0.1243
 4492TIP3    H113440   6.357   5.412   1.315 -2.0876 -1.1927 -0.4247
 4492TIP3    H213441   6.332   5.477   1.181 -0.3125  0.0815 -0.1815
 4493TIP3   OH213442   0.103   6.473   0.973  0.0293 -0.1612  0.7555
 4493TIP3    H113443   0.115   6.557   0.928  2.5899 -0.9989 -0.3022
 4493TIP3    H213444   0.016   6.479   1.012 -0.6300  2.2389 -0.8684
 4494TIP3   OH213445   4.066   6.625   1.355  0.4204 -0.1534 -0.2317
 4494TIP3    H113446   4.050   6.534   1.330 -0.4556  0.0275 -0.3563
 4494TIP3    H213447   4.081   6.670   1.271 -1.4468  0.2454 -0.3965
 4495TIP3   OH213448   6.210   6.511   4.090  0.4552 -0.3878 -0.2728
 4495TIP3    H113449   6.120   6.483   4.107  0.5401 -0.5274 -0.0420
 4495TIP3    H213450   6.263   6.451   4.142  0.7420 -1.0025 -1.2597
 4496TIP3   OH213451   6.918   5.496   4.520  0.6426 -0.1368 -0.2115
 4496TIP3    H113452   6.956   5.559   4.582 -1.1907 -0.7144  1.6460
 4496TIP3    H213453   6.824   5.497   4.541 -0.4331  0.9243 -4.2210
 4497TIP3   OH213454   2.794   5.389   4.131  0.7394  0.2370 -0.5076
 4497TIP3    H113455   2.811   5.394   4.037  0.9425 -0.1981 -0.4959
 4497TIP3    H213456   2.774   5.297   4.147  0.2478  0.3912 -0.1998
 4498TIP3   OH213457   2.992   0.795   4.723 -0.5319 -0.1551 -0.5350
 4498TIP3    H113458   3.085   0.776   4.716 -0.0993  1.7543 -0.3748
 4498TIP3    H213459   2.987   0.890   4.733 -2.6395  0.1353 -3.2505
 4499TIP3   OH213460   6.735   3.057   4.997  0.0714  0.4961 -0.1499
 4499TIP3    H113461   6.717   3.054   5.091  0.0422 -0.5056 -0.1761
 4499TIP3    H213462   6.831   3.060   4.991  0.0943  0.0162 -0.0863
 4500TIP3   OH213463   6.535   4.708   5.124 -0.8354 -0.2235  0.1452
 4500TIP3    H113464   6.457   4.682   5.075 -1.2914  1.1715  0.0979
 4500TIP3    H213465   6.608   4.684   5.067 -1.2294 -1.1293 -0.0016
 4501TIP3   OH213466   6.572   5.924   0.154 -0.3127  0.0216 -0.1205
 4501TIP3    H113467   6.647   5.982   0.145 -0.1498  0.0413  1.1366
 4501TIP3    H213468   6.602   5.840   0.121  0.9380 -0.4791  2.0735
 4502TIP3   OH213469   4.099   3.272   5.159 -0.2158 -0.0435  0.0776
 4502TIP3    H113470   4.147   3.227   5.229 -0.3631  0.0155  0.2182
 4502TIP3    H213471   4.104   3.365   5.183  3.8045  0.6107 -2.4154
 4503TIP3   OH213472   4.147   0.398   0.049  0.3062 -0.1876 -0.2763
 4503TIP3    H113473   4.147   0.320   0.105  1.2670  0.5952  0.8548
 4503TIP3    H213474   4.062   0.397   0.006 -0.4028 -0.8914  1.0922
 4504TIP3   OH213475   1.992   4.519   1.503 -0.1805 -0.5825 -0.1405
 4504TIP3    H113476   2.069   4.574   1.496 -0.3827 -0.2601  0.1252
 4504TIP3    H213477   1.923   4.577   1.536 -0.6649 -0.7516 -0.8356
 4505TIP3   OH213478   5.347   1.634   2.987 -0.2026  0.1775  0.4808
 4505TIP3    H113479   5.279   1.592   2.934 -1.0184  0.1611  1.4961
 4505TIP3    H213480   5.403   1.562   3.016 -1.3144 -0.1930  1.8148
 4506TIP3   OH213481   1.648   0.962   5.202  0.4050 -0.0431 -0.4470
 4506TIP3    H113482   1.685   0.909   5.132  1.2466  0.8610 -0.7111
 4506TIP3    H213483   1.553   0.952   5.192  0.5022 -2.9021  0.6262
 4507TIP3   OH213484   3.142   3.050   0.236 -0.0874  0.3577 -0.0204
 4507TIP3    H113485   3.061   3.001   0.249 -0.6827  1.2262 -0.3617
 4507TIP3    H213486   3.167   3.080   0.324 -0.8268  1.1477 -0.0709
 4508TIP3   OH213487   4.305   5.643   2.432  0.3160  0.8719  0.6851
 4508TIP3    H113488   4.399   5.656   2.449  0.4648  1.8665 -0.6793
 4508TIP3    H213489   4.296   5.661   2.338 -0.7401 -2.2398  0.0882
 4509TIP3   OH213490   2.221   5.168   4.818 -0.3950  0.2172 -0.3433
 4509TIP3    H113491   2.290   5.234   4.826 -1.2502  1.0870  0.0495
 4509TIP3    H213492   2.144   5.217   4.790 -0.6922 -0.8486 -1.5004
 4510TIP3   OH213493   3.166   4.335   5.321  0.3968 -0.2989 -0.0809
 4510TIP3    H113494   3.128   4.315   5.407 -0.5943 -0.0059 -0.4518
 4510TIP3    H213495   3.247   4.382   5.342 -1.3750  2.6561  0.6981
 4511TIP3   OH213496   6.715   6.693   5.785  0.4377 -0.4767  0.2783
 4511TIP3    H113497   6.667   6.751   5.844  1.5498 -0.2352  0.9734
 4511TIP3    H213498   6.778   6.648   5.841 -0.8475 -2.9289 -0.1066
 4512TIP3   OH213499   6.685   0.711   1.758  0.1801 -0.4462 -0.0564
 4512TIP3    H113500   6.713   0.803   1.767 -1.8714  0.4520 -1.9458
 4512TIP3    H213501   6.643   0.692   1.842  1.5388 -0.0562  0.7610
 4513TIP3   OH213502   2.601   5.753   1.008 -0.1402 -0.1114 -0.1486
 4513TIP3    H113503   2.514   5.729   0.975 -0.8698  1.7717  0.2930
 4513TIP3    H213504   2.600   5.849   1.010  1.3464 -0.0882  1.4709
 4514TIP3   OH213505   2.276   0.139   4.933 -0.0739 -0.2297  0.1204
 4514TIP3    H113506   2.282   0.061   4.989 -0.0373 -0.5393 -0.3056
 4514TIP3    H213507   2.338   0.122   4.862 -0.9447 -0.3606 -0.6278
 4515TIP3   OH213508   3.003   5.865   4.670  0.3676 -0.5834  0.6946
 4515TIP3    H113509   2.977   5.776   4.646 -0.1083 -0.5856  1.2108
 4515TIP3    H213510   2.927   5.902   4.714  0.0177  0.6236 -0.8451
 4516TIP3   OH213511   1.732   5.897   5.094 -0.3519 -0.3186 -0.7846
 4516TIP3    H113512   1.703   5.851   5.014 -0.9125 -0.6878 -0.3771
 4516TIP3    H213513   1.819   5.931   5.071 -0.1601 -1.0998 -1.2969
 4517TIP3   OH213514   3.695   5.581   0.595 -0.5317  0.2103 -0.1147
 4517TIP3    H113515   3.724   5.493   0.574 -2.2599 -0.0801 -1.5782
 4517TIP3    H213516   3.757   5.639   0.551  0.1850 -0.2791  0.2466
 4518TIP3   OH213517   0.243   4.753   1.725 -0.2995 -0.0868 -0.2268
 4518TIP3    H113518   0.217   4.705   1.803  0.4942  0.5181  0.4231
 4518TIP3    H213519   0.273   4.839   1.757 -1.8606  0.9470 -1.3666
 4519TIP3   OH213520   4.970   3.337   2.174 -0.3756  0.1679 -0.2440
 4519TIP3    H113521   4.943   3.333   2.082 -1.3146  0.7134 -0.0092
 4519TIP3    H213522   4.890   3.362   2.221  0.3118  0.7936  0.6169
 4520TIP3   OH213523   4.837   4.258   1.310  0.0618 -0.2408 -0.2139
 4520TIP3    H113524   4.820   4.276   1.402  1.3484  2.3067 -0.3625
 4520TIP3    H213525   4.863   4.166   1.307 -0.5096 -0.5095  1.8731
 4521TIP3   OH213526   1.413   6.017   5.295 -0.1428  0.3739  0.0189
 4521TIP3    H113527   1.463   6.088   5.335 -2.2652  1.4666  0.9271
 4521TIP3    H213528   1.415   6.036   5.201  1.7462 -0.0685 -0.0571
 4522TIP3   OH213529   3.833   2.427   2.066 -0.0646 -0.4607  0.3238
 4522TIP3    H113530   3.892   2.355   2.087  0.1866 -1.5881 -3.4827
 4522TIP3    H213531   3.888   2.490   2.018 -1.2638 -0.0823 -0.6179
 4523TIP3   OH213532   1.834   6.210   4.899  1.0271  0.2359 -0.0384
 4523TIP3    H113533   1.866   6.212   4.809  2.1130  0.9223  0.3355
 4523TIP3    H213534   1.912   6.230   4.952 -0.0855  2.3953  0.9086
 4524TIP3   OH213535   6.446   4.259   1.337 -0.1214  0.1861  0.1817
 4524TIP3    H113536   6.490   4.174   1.347 -3.3518 -1.3930  3.3026
 4524TIP3    H213537   6.480   4.312   1.409 -0.8862  0.0841  0.6341
 4525TIP3   OH213538   0.348   5.377   0.724 -0.8420 -0.2251 -0.1443
 4525TIP3    H113539   0.252   5.375   0.732 -0.8530 -0.1177 -0.2407
 4525TIP3    H213540   0.364   5.416   0.637 -0.7091 -0.0605 -0.0481
 4526TIP3   OH213541   4.938   3.552   3.105  0.0111  0.0793 -0.0864
 4526TIP3    H113542   4.966   3.475   3.055 -0.3232 -0.4197  0.4699
 4526TIP3    H213543   4.843   3.542   3.111  0.1356 -0.4233  1.5047
 4527TIP3   OH213544   2.059   1.726   1.593  0.3087 -0.0465 -0.0961
 4527TIP3    H113545   1.995   1.668   1.634  1.1413 -0.8324  0.1378
 4527TIP3    H213546   2.089   1.677   1.516  0.8396  0.1840 -0.0393
 4528TIP3   OH213547   6.089   4.519   0.625 -0.1371 -0.1317 -0.2442
 4528TIP3    H113548   6.183   4.533   0.616 -0.2191  1.1471  0.6618
 4528TIP3    H213549   6.081   4.433   0.667  0.7561  0.8431  2.0608
 4529TIP3   OH213550   7.040   4.593   1.259 -0.1494  0.3642 -0.2565
 4529TIP3    H113551   7.024   4.531   1.330 -2.6239  0.1854 -0.8599
 4529TIP3    H213552   7.067   4.539   1.186 -0.0081  0.2580 -0.1253
 4530TIP3   OH213553   1.022   0.690   3.942 -0.1430 -0.0139  0.4227
 4530TIP3    H113554   1.052   0.778   3.965  0.9318 -0.5704  1.1993
 4530TIP3    H213555   1.051   0.678   3.851 -1.8623  1.0748 -0.3346
 4531TIP3   OH213556   2.690   2.591   3.909  0.5714 -0.0587 -0.6365
 4531TIP3    H113557   2.652   2.592   3.997  2.7185  1.4890  0.3587
 4531TIP3    H213558   2.649   2.516   3.866  0.9219 -2.1508  2.3651
 4532TIP3   OH213559   4.162   2.668   3.255  0.2414  0.0552 -0.0161
 4532TIP3    H113560   4.123   2.678   3.341  0.5502 -0.2572  0.1635
 4532TIP3    H213561   4.106   2.605   3.210  0.5460 -0.4146  0.2511
 4533TIP3   OH213562   1.822   3.017   3.102  0.2509  0.6536 -0.0871
 4533TIP3    H113563   1.873   2.942   3.073  1.8161  0.4674  2.7966
 4533TIP3    H213564   1.868   3.093   3.065  1.1241  0.3555  0.3700
 4534TIP3   OH213565   6.057   2.503   4.115 -1.0900  0.5201  0.8335
 4534TIP3    H113566   6.051   2.584   4.063 -0.7285  0.2585  0.3806
 4534TIP3    H213567   6.117   2.448   4.066 -0.9132  0.1824  1.4291
 4535TIP3   OH213568   3.108   5.316   5.049  0.1621  0.2847 -0.2419
 4535TIP3    H113569   3.147   5.229   5.045  0.1713  0.1427  1.8355
 4535TIP3    H213570   3.179   5.373   5.078 -0.3414  0.6064  0.3884
 4536TIP3   OH213571   2.965   3.874   4.532 -0.0083  0.2659  0.0971
 4536TIP3    H113572   2.981   3.786   4.564  1.3548 -0.1687 -1.6032
 4536TIP3    H213573   2.872   3.874   4.508 -0.0371 -0.6944  0.1705
 4537TIP3   OH213574   0.955   1.097   1.537 -0.6024  0.1252  0.3413
 4537TIP3    H113575   0.920   1.185   1.546 -0.6301  0.2135 -0.5406
 4537TIP3    H213576   1.025   1.105   1.472  0.2715 -0.2702  1.2057
 4538TIP3   OH213577   2.584   6.077   5.208 -0.2628  0.5059 -0.1567
 4538TIP3    H113578   2.658   6.084   5.268  0.0163 -0.0288 -0.4284
 4538TIP3    H213579   2.576   6.163   5.168  0.9977  0.2350 -1.0437
 4539TIP3   OH213580   2.765   5.558   5.280  0.0287  0.0018  0.1654
 4539TIP3    H113581   2.800   5.632   5.330  1.0379 -0.6356  0.4424
 4539TIP3    H213582   2.839   5.497   5.273 -0.9971 -1.3374  0.6273
 4540TIP3   OH213583   3.877   5.194   5.719 -0.0179 -0.3361  0.1768
 4540TIP3    H113584   3.797   5.167   5.675  0.8604 -3.6440  0.3473
 4540TIP3    H213585   3.891   5.127   5.787  2.2163  0.8351  0.9825
 4541TIP3   OH213586   3.306   5.393   5.628  0.1527  0.1630  0.2175
 4541TIP3    H113587   3.276   5.350   5.708 -2.1766 -2.6795 -1.9296
 4541TIP3    H213588   3.241   5.461   5.611 -0.6668 -0.7160 -0.3133
 4542TIP3   OH213589   6.104   5.196   5.294  0.0048 -0.1225  0.7165
 4542TIP3    H113590   6.037   5.127   5.291  0.6847 -0.7541 -1.6753
 4542TIP3    H213591   6.115   5.214   5.388 -2.6392 -0.8111  1.2627
 4543TIP3   OH213592   5.130   2.150   0.114 -0.0822  0.1227  0.2086
 4543TIP3    H113593   5.034   2.152   0.114 -0.1616 -0.2955 -1.9936
 4543TIP3    H213594   5.156   2.239   0.091 -0.0015  0.0023 -0.1827
 4544TIP3   OH213595   5.304   3.877   0.709 -0.0932 -0.3426 -0.0548
 4544TIP3    H113596   5.284   3.803   0.650 -2.6219  0.4897 -0.3790
 4544TIP3    H213597   5.258   3.951   0.669  0.5550  0.8992  1.4549
 4545TIP3   OH213598   5.402   4.102   0.405  0.0197 -0.2163  0.1136
 4545TIP3    H113599   5.394   4.195   0.385  1.4827 -0.3513 -1.3550
 4545TIP3    H213600   5.336   4.060   0.350 -0.3010 -0.0986  0.4041
 4546TIP3   OH213601   5.638   1.664   5.617 -0.1040  0.3356  0.1896
 4546TIP3    H113602   5.611   1.741   5.667 -0.2884  1.1611 -1.1245
 4546TIP3    H213603   5.726   1.685   5.586  0.2083 -0.3759  0.5684
 4547TIP3   OH213604   3.752   4.758   0.819  0.3138  0.7664 -0.6670
 4547TIP3    H113605   3.660   4.769   0.797  0.2957  1.3494 -0.3380
 4547TIP3    H213606   3.758   4.785   0.911  1.0004  1.8089 -0.9970
 4548TIP3   OH213607   4.468   6.744   2.249 -0.8212  0.4025  0.0417
 4548TIP3    H113608   4.514   6.818   2.289  2.1465 -0.4570 -1.5580
 4548TIP3    H213609   4.494   6.668   2.301  0.7585 -0.2877 -1.6719
 4549TIP3   OH213610   2.389   0.298   4.091  0.2523 -0.2116  0.7717
 4549TIP3    H113611   2.298   0.280   4.065  0.1219  1.0723  0.2724
 4549TIP3    H213612   2.441   0.268   4.016  0.2109 -0.5823  0.8912
 4550TIP3   OH213613   2.905   5.415   2.616 -0.4440 -0.4250  0.1037
 4550TIP3    H113614   2.953   5.371   2.546 -0.7043 -0.1720 -0.2372
 4550TIP3    H213615   2.889   5.503   2.582  0.4011  0.0702  0.9228
 4551TIP3   OH213616   6.572   2.561   5.817 -0.0548 -0.4654  0.3768
 4551TIP3    H113617   6.646   2.584   5.872  1.4196  0.1070 -1.6922
 4551TIP3    H213618   6.606   2.495   5.757 -0.9733  0.2933 -1.0629
 4552TIP3   OH213619   1.928   4.661   5.537 -0.3500  0.9032  0.1992
 4552TIP3    H113620   1.849   4.715   5.530  0.1310  1.6161  0.1779
 4552TIP3    H213621   1.996   4.713   5.494 -0.4897 -1.0024 -2.6152
 4553TIP3   OH213622   6.071   0.409   5.073  0.1735 -0.4871 -0.3747
 4553TIP3    H113623   6.089   0.499   5.100 -1.0151  0.0782 -1.3481
 4553TIP3    H213624   6.111   0.401   4.987  0.6440 -1.0416 -0.1091
 4554TIP3   OH213625   4.174   6.096   0.844  0.2595  0.0445  0.3438
 4554TIP3    H113626   4.156   6.160   0.914  0.0678  0.7302 -0.3129
 4554TIP3    H213627   4.087   6.071   0.812  0.3469  1.2491 -0.9615
 4555TIP3   OH213628   4.766   1.691   5.232  0.4626 -0.0637 -0.4724
 4555TIP3    H113629   4.736   1.606   5.264  0.2130  0.1338 -0.1716
 4555TIP3    H213630   4.766   1.747   5.309  0.3209  0.2925 -0.7250
 4556TIP3   OH213631   5.564   2.345   2.197  0.0624 -0.6688  0.6791
 4556TIP3    H113632   5.565   2.266   2.251  0.2126 -0.6241  0.7424
 4556TIP3    H213633   5.597   2.317   2.112  1.8120 -0.3197  1.1983
 4557TIP3   OH213634   0.256  -0.005   3.733  0.3648 -0.0552 -0.1195
 4557TIP3    H113635   0.314   0.004   3.809  0.6933 -1.5307 -0.1781
 4557TIP3    H213636   0.169   0.018   3.767  0.7960  1.2243  0.2003
 4558TIP3   OH213637   4.243   5.098   5.839 -0.0877  0.7725  0.5476
 4558TIP3    H113638   4.206   5.095   5.927  0.3858 -0.8222  0.7281
 4558TIP3    H213639   4.321   5.154   5.848  0.9714 -0.7864  1.5894
 4559TIP3   OH213640   2.271   1.457   2.235 -0.2836  0.3295 -0.3254
 4559TIP3    H113641   2.357   1.425   2.261 -1.2465 -1.3244  1.0872
 4559TIP3    H213642   2.280   1.552   2.230  1.6191  0.1766 -0.2897
 4560TIP3   OH213643   0.163   1.946   3.523 -0.0613  0.2922 -0.2990
 4560TIP3    H113644   0.134   1.886   3.592 -0.1100  1.4827  0.7522
 4560TIP3    H213645   0.257   1.955   3.535 -0.2370  1.4352  0.4148
 4561TIP3   OH213646   4.229   6.477   2.471 -0.5681  0.3681  0.1335
 4561TIP3    H113647   4.309   6.530   2.464 -0.0431 -0.5732 -1.4062
 4561TIP3    H213648   4.254   6.404   2.529 -0.0532 -0.3342 -0.9467
 4562TIP3   OH213649   4.020   1.067   3.533  0.0455  0.3132  0.4428
 4562TIP3    H113650   4.106   1.105   3.516  0.2345 -0.2325  0.1405
 4562TIP3    H213651   4.038   0.975   3.555 -0.5066 -0.0178 -0.4281
 4563TIP3   OH213652   3.041   1.730   4.260 -0.3273 -0.1803 -0.3527
 4563TIP3    H113653   3.057   1.727   4.166  2.5693  0.7857  0.0063
 4563TIP3    H213654   3.125   1.703   4.299 -1.7140 -1.4107  1.9650
 4564TIP3   OH213655   3.774   4.811   4.883  0.3892 -0.3623  0.5450
 4564TIP3    H113656   3.781   4.876   4.813  4.2271  0.8348  1.7688
 4564TIP3    H213657   3.735   4.735   4.841 -1.8847  1.7995 -1.6177
 4565TIP3   OH213658   5.974   5.313   4.642  0.3619  0.0020 -0.0316
 4565TIP3    H113659   5.969   5.374   4.568  2.6731  0.5356  0.1556
 4565TIP3    H213660   5.961   5.227   4.603  3.1099  0.1153 -1.4413
 4566TIP3   OH213661   2.430   5.827   1.364 -0.0908 -0.0143 -0.3214
 4566TIP3    H113662   2.396   5.916   1.378  0.2123  0.2578 -1.2252
 4566TIP3    H213663   2.510   5.823   1.416 -0.2577  0.1398 -0.0482
 4567TIP3   OH213664   5.872   0.287   2.031 -0.0138 -0.3884 -0.2586
 4567TIP3    H113665   5.879   0.204   1.984  0.2556 -0.7399  0.3852
 4567TIP3    H213666   5.794   0.278   2.086  0.7930 -0.7848  0.8714
 4568TIP3   OH213667   5.231   0.594   2.170 -0.6664  0.4224  0.7156
 4568TIP3    H113668   5.160   0.642   2.213 -0.9903 -0.9805  1.8315
 4568TIP3    H213669   5.309   0.615   2.222 -0.1694  2.0879 -0.6014
 4569TIP3   OH213670  -0.014   4.560   3.826  0.4089  0.0754  0.0542
 4569TIP3    H113671   0.068   4.564   3.876  0.7258  0.4097 -0.4763
 4569TIP3    H213672   0.014   4.565   3.734 -0.3116  2.2337 -0.1068
 4570TIP3   OH213673   1.584   1.628   0.017  0.4965  0.1909  0.3715
 4570TIP3    H113674   1.661   1.591  -0.026  0.0195  0.0795 -0.4077
 4570TIP3    H213675   1.594   1.604   0.109  0.6039 -1.1940  0.0229
 4571TIP3   OH213676   3.732   1.449   0.916 -0.1607  0.4432  0.0761
 4571TIP3    H113677   3.723   1.477   1.007 -0.9338 -2.2228  0.9324
 4571TIP3    H213678   3.732   1.530   0.865  1.8334  2.1168  2.5042
 4572TIP3   OH213679   6.858   4.221   0.663  0.1461  0.1764 -0.5803
 4572TIP3    H113680   6.786   4.275   0.695  0.1994 -0.5905  0.9319
 4572TIP3    H213681   6.818   4.163   0.598 -0.6777 -0.3857  0.3975
 4573TIP3   OH213682   6.691   4.719   4.228  0.2261  0.2482 -0.0283
 4573TIP3    H113683   6.670   4.636   4.269  0.7007  0.2146  0.1491
 4573TIP3    H213684   6.674   4.705   4.135 -0.0625  0.0733  0.0494
 4574TIP3   OH213685   4.775   1.569   4.092  0.4163  0.2497  0.4258
 4574TIP3    H113686   4.777   1.661   4.116 -0.5947 -0.0359  1.6482
 4574TIP3    H213687   4.753   1.569   3.998  0.6209  1.2345  0.3701
 4575TIP3   OH213688   1.854   3.188   0.893 -0.2134 -0.2939  0.3798
 4575TIP3    H113689   1.775   3.184   0.947 -0.9510 -1.0255 -0.7035
 4575TIP3    H213690   1.851   3.273   0.851 -2.4251 -1.6363 -2.4740
 4576TIP3   OH213691   3.983   4.725   2.706 -0.1616  0.0776 -0.3231
 4576TIP3    H113692   4.015   4.759   2.623 -0.0827  2.5171  0.6148
 4576TIP3    H213693   4.056   4.676   2.742 -0.1046 -0.7613 -1.5505
 4577TIP3   OH213694   2.896   1.295   1.454 -0.0252 -0.7498 -0.1639
 4577TIP3    H113695   2.988   1.277   1.475 -0.9295 -1.0692  4.5734
 4577TIP3    H213696   2.859   1.208   1.436  0.0620 -0.9873  0.7572
 4578TIP3   OH213697   2.742   6.133   1.212  0.3894  0.5563  0.7328
 4578TIP3    H113698   2.796   6.213   1.212  1.1403  0.0987  2.3417
 4578TIP3    H213699   2.790   6.072   1.267 -0.5561 -0.7693  0.1417
 4579TIP3   OH213700   2.549   3.322   4.263  0.1202 -0.0012  0.0102
 4579TIP3    H113701   2.566   3.412   4.238  1.4845 -0.6034 -1.3812
 4579TIP3    H213702   2.594   3.269   4.197  0.4591 -1.6985  1.5175
 4580TIP3   OH213703   1.126   5.882   5.671  0.1014 -0.3678 -0.3069
 4580TIP3    H113704   1.073   5.890   5.750  0.9975  0.6705  0.2084
 4580TIP3    H213705   1.149   5.972   5.648 -0.4999 -0.6100 -2.0143
 4581TIP3   OH213706   4.283   5.939   0.205 -0.2892 -0.0195  0.4788
 4581TIP3    H113707   4.314   5.859   0.162  0.6140  0.4565  0.2325
 4581TIP3    H213708   4.272   6.001   0.134  0.3982  0.5154  0.8347
 4582TIP3   OH213709   2.685   3.798   4.564 -0.4410 -0.0758  0.6105
 4582TIP3    H113710   2.608   3.823   4.514 -0.2413 -0.8187 -0.1069
 4582TIP3    H213711   2.654   3.730   4.624 -0.3735 -0.2681  0.4272
 4583TIP3   OH213712   7.092   5.433   4.277 -0.0459 -0.1216 -0.3873
 4583TIP3    H113713   7.125   5.383   4.352  1.4508  0.7764 -0.4050
 4583TIP3    H213714   7.021   5.485   4.313 -0.3479 -0.8147  0.0557
 4584TIP3   OH213715   0.439   2.674   0.914  0.4354  0.2417  0.2038
 4584TIP3    H113716   0.468   2.624   0.991  2.4495  0.2707 -0.4833
 4584TIP3    H213717   0.453   2.765   0.939  1.4057  0.2386 -0.2869
 4585TIP3   OH213718   1.173   4.455   4.631  0.3373  0.3739  0.0694
 4585TIP3    H113719   1.233   4.507   4.685  2.3724 -0.3860 -1.3653
 4585TIP3    H213720   1.210   4.459   4.543 -2.1794  0.4860 -1.0608
 4586TIP3   OH213721   3.555   4.592   3.409 -1.0575 -0.2101  0.0604
 4586TIP3    H113722   3.503   4.656   3.457 -0.7041 -0.9121  1.4215
 4586TIP3    H213723   3.624   4.566   3.470  0.0924 -0.3104 -1.2209
 4587TIP3   OH213724   0.029   3.477   3.749  0.4335  0.3585 -0.5426
 4587TIP3    H113725  -0.012   3.562   3.735 -0.0141 -0.0831 -2.0722
 4587TIP3    H213726   0.121   3.491   3.726  0.3534  0.4245 -0.8253
 4588TIP3   OH213727   5.508   1.453   2.820 -0.5390  0.4962  0.2896
 4588TIP3    H113728   5.512   1.491   2.732 -0.2660  1.2243  0.6044
 4588TIP3    H213729   5.434   1.392   2.817 -1.3963  1.5140 -0.0644
 4589TIP3   OH213730   0.461   4.412   5.468  0.2121  0.1531  0.4924
 4589TIP3    H113731   0.418   4.408   5.383 -0.9574 -0.4585  1.0792
 4589TIP3    H213732   0.548   4.446   5.450 -0.2786  0.7610 -0.8449
 4590TIP3   OH213733   1.931   3.488   3.689 -0.3129  0.0229  0.1144
 4590TIP3    H113734   1.945   3.487   3.784  1.9959  1.2913 -0.1563
 4590TIP3    H213735   1.933   3.580   3.665 -0.8573 -0.2822 -1.2026
 4591TIP3   OH213736   5.413   3.526   5.769 -0.3536  0.1853 -0.4155
 4591TIP3    H113737   5.452   3.513   5.855  1.8099  1.4655 -1.1167
 4591TIP3    H213738   5.371   3.442   5.749  3.8042 -2.2207 -0.3535
 4592TIP3   OH213739   3.968   5.922   2.894  0.0118  0.2893  0.0165
 4592TIP3    H113740   3.902   5.950   2.830 -1.7806 -1.2514  1.0930
 4592TIP3    H213741   4.049   5.914   2.843 -1.1201  0.1210 -1.8324
 4593TIP3   OH213742   3.947   1.772   4.577 -0.2333  0.6007 -0.1662
 4593TIP3    H113743   3.863   1.814   4.558 -1.1269 -1.0663 -0.0884
 4593TIP3    H213744   3.927   1.709   4.646  1.0429  0.0687 -0.2555
 4594TIP3   OH213745   0.335   2.457   0.329 -0.0786  0.5354 -0.2469
 4594TIP3    H113746   0.396   2.424   0.394 -0.9251  0.2634  0.4343
 4594TIP3    H213747   0.329   2.387   0.264  1.5270  1.2071 -1.1878
 4595TIP3   OH213748   6.582   1.634   1.844 -0.1626 -0.2052 -0.3349
 4595TIP3    H113749   6.543   1.691   1.777 -0.0795  1.4230  0.9575
 4595TIP3    H213750   6.648   1.688   1.886 -1.2330 -0.6420  2.0846
 4596TIP3   OH213751   4.080   1.731   3.058  0.0342  0.0914 -0.0975
 4596TIP3    H113752   4.132   1.703   3.133 -0.6871 -2.2512 -0.3565
 4596TIP3    H213753   4.103   1.669   2.989 -3.5132 -1.6288  0.0056
 4597TIP3   OH213754   4.541   2.618   5.322  0.1121  0.2585 -0.0185
 4597TIP3    H113755   4.636   2.618   5.306  0.0724  0.9752 -0.2706
 4597TIP3    H213756   4.514   2.528   5.302  0.5216  0.3853 -1.2609
 4598TIP3   OH213757   4.993   0.628   3.168  0.0668  0.2653  0.0785
 4598TIP3    H113758   5.085   0.641   3.194  0.7754 -2.3733 -0.8570
 4598TIP3    H213759   4.944   0.683   3.230  2.1717  0.7735  1.4329
 4599TIP3   OH213760   1.527   5.791   0.358  0.0342  0.0487 -0.1403
 4599TIP3    H113761   1.490   5.809   0.444 -0.5042 -2.3333  0.2065
 4599TIP3    H213762   1.596   5.727   0.374  1.7508  1.5338 -1.2363
 4600TIP3   OH213763   4.844   1.410   4.618  0.3340 -0.0106  0.0859
 4600TIP3    H113764   4.761   1.456   4.623  0.0005 -0.3251 -1.6843
 4600TIP3    H213765   4.826   1.334   4.562  1.9376  0.2708 -0.8760
 4601TIP3   OH213766   2.296   0.578   1.794 -0.2729 -0.2976  0.3289
 4601TIP3    H113767   2.379   0.622   1.815 -1.2573  0.9943  1.7077
 4601TIP3    H213768   2.322   0.500   1.745  1.8296 -0.3349  1.3876
 4602TIP3   OH213769   3.935   5.664   5.048 -0.3962  0.4625  0.1999
 4602TIP3    H113770   4.026   5.681   5.072 -0.6302  0.7783  0.8740
 4602TIP3    H213771   3.940   5.626   4.960  0.3437  1.0270 -0.0083
 4603TIP3   OH213772   5.177   3.172   4.271  0.9999  0.4923  0.3644
 4603TIP3    H113773   5.121   3.211   4.203 -0.6934  1.9451  2.4700
 4603TIP3    H213774   5.261   3.158   4.227 -0.3353  0.2580 -2.3385
 4604TIP3   OH213775   5.353   5.498   2.995 -0.8049 -0.3440  0.5150
 4604TIP3    H113776   5.427   5.525   2.940  0.0771 -2.4672  0.5275
 4604TIP3    H213777   5.291   5.458   2.933  0.2157 -2.7927  0.9589
 4605TIP3   OH213778   3.467   1.922   5.356  0.0445 -0.1795  0.1880
 4605TIP3    H113779   3.451   1.831   5.329  1.0000 -0.0955 -0.7336
 4605TIP3    H213780   3.452   1.973   5.276  2.5299  0.1337 -0.1567
 4606TIP3   OH213781   2.299   0.346   4.593 -0.8102 -0.2268 -0.0501
 4606TIP3    H113782   2.305   0.259   4.634 -0.8595 -0.0616  0.3083
 4606TIP3    H213783   2.276   0.405   4.665  1.6223  0.4912  0.2444
 4607TIP3   OH213784   6.127   2.245   3.243  0.1936  0.0200  0.1597
 4607TIP3    H113785   6.052   2.216   3.295  0.5453 -1.5356 -0.1460
 4607TIP3    H213786   6.161   2.320   3.290 -1.7433  0.9870  0.1259
 4608TIP3   OH213787   4.053   0.176   1.533 -0.2347 -0.3736  0.1249
 4608TIP3    H113788   4.035   0.083   1.519  0.1276 -0.3860 -0.2621
 4608TIP3    H213789   4.070   0.183   1.627  0.4821 -0.8264  0.0340
 4609TIP3   OH213790   2.869   1.563   3.814 -0.0405 -0.2825  0.1139
 4609TIP3    H113791   2.866   1.523   3.902 -1.2290  1.1932  0.7801
 4609TIP3    H213792   2.861   1.489   3.754 -1.0659 -1.1556  1.2913
 4610TIP3   OH213793   2.595   1.354   5.185 -0.3109  0.7476  0.2443
 4610TIP3    H113794   2.602   1.321   5.275  0.4399  1.1713  0.3495
 4610TIP3    H213795   2.558   1.281   5.135 -0.5686  0.4478  0.8640
 4611TIP3   OH213796   2.532   5.365   3.253  0.2636 -0.2901  0.5430
 4611TIP3    H113797   2.521   5.449   3.209  0.2071 -0.8212 -0.4867
 4611TIP3    H213798   2.627   5.352   3.258  0.2743 -0.1175  0.8036
 4612TIP3   OH213799   3.152   1.807   5.454  0.4198 -0.5142 -0.2950
 4612TIP3    H113800   3.172   1.889   5.501 -0.1807 -0.1142 -0.7254
 4612TIP3    H213801   3.197   1.739   5.505  1.6748  0.1779 -0.4225
 4613TIP3   OH213802   0.445   0.700   5.640 -0.5436  0.2564 -0.6504
 4613TIP3    H113803   0.404   0.722   5.556 -1.8473 -1.7875 -0.6095
 4613TIP3    H213804   0.443   0.605   5.644  2.2966  0.1504  0.3852
 4614TIP3   OH213805   3.151   4.475   0.897  0.2164 -0.2407  0.1609
 4614TIP3    H113806   3.060   4.505   0.899  0.8135  2.3140 -2.8436
 4614TIP3    H213807   3.193   4.522   0.969 -0.5477 -0.5800  0.8608
 4615TIP3   OH213808   0.335   4.975   4.529 -0.1706 -0.2156 -0.4734
 4615TIP3    H113809   0.317   4.883   4.510  0.2792 -0.2842 -0.5843
 4615TIP3    H213810   0.255   5.021   4.503 -0.1508 -0.4970 -1.0454
 4616TIP3   OH213811   2.845   5.569   3.226 -0.3944  0.3205  0.1616
 4616TIP3    H113812   2.847   5.473   3.225 -0.7071  0.2570 -2.4965
 4616TIP3    H213813   2.763   5.592   3.184 -0.1424  1.7712  0.4093
 4617TIP3   OH213814   2.415   5.323   1.498 -0.0565 -0.4511  0.0159
 4617TIP3    H113815   2.422   5.382   1.573 -1.1441 -1.1449  0.6972
 4617TIP3    H213816   2.452   5.241   1.529 -0.6880 -0.7979 -0.1393
 4618TIP3   OH213817   4.328   1.567   1.879  0.3990 -0.2702 -0.1837
 4618TIP3    H113818   4.390   1.637   1.900  0.7974 -0.7873  0.4502
 4618TIP3    H213819   4.375   1.487   1.904 -1.5438 -0.5662  3.0808
 4619TIP3   OH213820   2.898   0.685   3.869 -0.0381 -1.0067 -0.5847
 4619TIP3    H113821   2.864   0.664   3.956 -1.5602  0.0378 -0.8851
 4619TIP3    H213822   2.975   0.628   3.859  0.2393 -1.0668  1.4639
 4620TIP3   OH213823   2.908   4.299   2.800 -0.1562  0.1616 -0.3353
 4620TIP3    H113824   2.816   4.321   2.813 -0.3917  1.2716 -3.0698
 4620TIP3    H213825   2.907   4.209   2.768 -0.4023  0.4452 -1.1533
 4621TIP3   OH213826   5.783   5.311   3.144  0.0847  0.1272 -0.9215
 4621TIP3    H113827   5.689   5.331   3.149  0.2889  0.8701  0.3409
 4621TIP3    H213828   5.790   5.246   3.074 -1.5393 -0.9768 -0.1116
 4622TIP3   OH213829   7.146   6.228   4.654 -0.0485  0.2518  0.2078
 4622TIP3    H113830   7.148   6.323   4.646  1.2008  0.2923  0.7790
 4622TIP3    H213831   7.203   6.209   4.728  1.0171 -1.0496 -0.8936
 4623TIP3   OH213832   3.384   4.641   5.644 -0.0100 -0.0464 -0.5225
 4623TIP3    H113833   3.458   4.632   5.584  0.1809 -0.6609 -0.1978
 4623TIP3    H213834   3.361   4.551   5.668 -0.9422  0.1273 -0.7129
 4624TIP3   OH213835   4.867   3.872   5.691  0.1958  0.2062 -0.2383
 4624TIP3    H113836   4.890   3.850   5.781  0.5892  1.7050  0.0519
 4624TIP3    H213837   4.952   3.883   5.647  0.0466 -2.1512 -1.2622
 4625TIP3   OH213838   2.511   5.534   2.776 -0.5233 -0.3685  0.1206
 4625TIP3    H113839   2.514   5.504   2.685 -0.1641 -1.0962  0.3691
 4625TIP3    H213840   2.426   5.579   2.783 -2.1206 -3.1948  0.2921
 4626TIP3   OH213841   0.817   6.153   0.938  0.0136  0.5432  0.1432
 4626TIP3    H113842   0.787   6.078   0.886 -2.2816  0.8245  0.9354
 4626TIP3    H213843   0.806   6.228   0.880  2.0078  0.3685 -0.5384
 4627TIP3   OH213844   2.349   3.990   0.517 -0.8307 -1.1160  0.4250
 4627TIP3    H113845   2.336   3.942   0.598 -1.4030 -0.0931  0.9551
 4627TIP3    H213846   2.418   4.052   0.536  1.3653 -3.0110 -0.8523
 4628TIP3   OH213847   0.955   5.237   4.944  0.6966  1.0013 -0.5418
 4628TIP3    H113848   0.896   5.311   4.960  1.4405  1.1540  1.9234
 4628TIP3    H213849   0.919   5.193   4.867 -2.5018  1.1943  0.7378
 4629TIP3   OH213850   4.270   0.561   1.897 -0.2715 -0.2723 -0.5545
 4629TIP3    H113851   4.351   0.610   1.911  0.2523 -0.8109 -1.5704
 4629TIP3    H213852   4.258   0.559   1.802 -1.4047 -0.3284 -0.4296
 4630TIP3   OH213853   7.205   3.826   1.047  0.0082 -0.8447 -0.4105
 4630TIP3    H113854   7.139   3.770   1.088 -0.3019 -0.1224  0.0980
 4630TIP3    H213855   7.155   3.891   0.999  0.0937  2.0299  2.9384
 4631TIP3   OH213856   5.651   3.348   3.963 -0.7097  0.1048 -0.1482
 4631TIP3    H113857   5.572   3.333   4.014 -0.7966 -1.1396 -0.6258
 4631TIP3    H213858   5.619   3.372   3.876 -0.5782 -0.6939 -0.4258
 4632TIP3   OH213859   6.188   4.645   0.225 -0.5195 -0.3858  0.0877
 4632TIP3    H113860   6.240   4.566   0.242 -0.5429 -0.1246  1.5345
 4632TIP3    H213861   6.098   4.618   0.241 -0.6350 -0.3269 -0.4546
 4633TIP3   OH213862   0.827   1.676   4.464  0.1977 -0.2781 -0.4317
 4633TIP3    H113863   0.849   1.683   4.557 -0.0547  0.1879 -0.4032
 4633TIP3    H213864   0.906   1.702   4.418 -0.1232  0.9396 -0.3338
 4634TIP3   OH213865   6.273   2.615   5.718 -0.3204  0.2792 -0.1126
 4634TIP3    H113866   6.315   2.639   5.800  1.2285  0.2248 -0.8467
 4634TIP3    H213867   6.344   2.581   5.663 -1.7152 -2.2672 -0.5362
 4635TIP3   OH213868   1.320   1.924   1.532  0.4812 -0.1959  0.3857
 4635TIP3    H113869   1.289   1.960   1.449  1.6042  0.5216  0.2648
 4635TIP3    H213870   1.406   1.886   1.512 -0.1240 -1.8748  0.7858
 4636TIP3   OH213871   4.748   4.036   1.472  0.0627 -0.1741 -0.0621
 4636TIP3    H113872   4.743   3.954   1.521  0.6592 -0.4477 -0.4492
 4636TIP3    H213873   4.675   4.031   1.410 -0.1298 -0.2457  0.1717
 4637TIP3   OH213874   6.010   2.438   4.362 -0.1708 -0.1313  0.0625
 4637TIP3    H113875   6.047   2.350   4.363 -2.0816 -1.0229 -1.1191
 4637TIP3    H213876   6.040   2.477   4.280  0.9834  0.5093  0.7580
 4638TIP3   OH213877   4.838   1.820   3.765  0.0017 -0.3532  0.2830
 4638TIP3    H113878   4.751   1.835   3.802  0.0157  1.8334 -0.4151
 4638TIP3    H213879   4.898   1.868   3.823  0.2518  1.4054 -1.3387
 4639TIP3   OH213880   4.828   6.030   2.658  0.1722 -0.7657  0.2354
 4639TIP3    H113881   4.852   6.099   2.596 -0.9043 -1.1754 -0.6764
 4639TIP3    H213882   4.850   6.066   2.744  0.5387  0.3169 -0.2912
 4640TIP3   OH213883   3.091   1.065   4.726  0.3885 -0.5302  0.3758
 4640TIP3    H113884   3.183   1.064   4.702  0.4864 -0.2709  0.7234
 4640TIP3    H213885   3.083   1.138   4.788  0.4739 -2.1028  2.3681
 4641TIP3   OH213886   3.175   6.244   0.420  0.1415  0.5158 -0.2987
 4641TIP3    H113887   3.240   6.218   0.356  1.5266  1.1964  0.7787
 4641TIP3    H213888   3.220   6.308   0.476 -1.5143  1.1795  0.3495
 4642TIP3   OH213889   6.935   1.773   1.413  0.0494  0.4781 -0.0730
 4642TIP3    H113890   7.022   1.754   1.447 -0.3630 -0.7053  0.3851
 4642TIP3    H213891   6.875   1.734   1.477 -0.8244  1.3360 -0.3423
 4643TIP3   OH213892   4.913   5.587   4.661 -0.1784 -0.1045 -0.0932
 4643TIP3    H113893   4.904   5.545   4.575 -1.0167 -2.7381  1.1623
 4643TIP3    H213894   5.004   5.570   4.687 -0.0526  0.3000 -0.2654
 4644TIP3   OH213895   0.601   4.510   0.082 -0.2255  0.4445 -0.7427
 4644TIP3    H113896   0.545   4.432   0.082  0.2863  0.0731 -1.2114
 4644TIP3    H213897   0.550   4.576   0.129  0.0925 -0.7093  1.3522
 4645TIP3   OH213898   4.560   6.553   4.231  0.8656 -0.1908 -0.5825
 4645TIP3    H113899   4.529   6.547   4.140  0.1015  1.3641 -0.4673
 4645TIP3    H213900   4.577   6.463   4.257 -1.3655 -0.9421 -1.4506
 4646TIP3   OH213901   2.479   1.046   1.176 -0.0220  0.2968  0.0852
 4646TIP3    H113902   2.419   0.977   1.205 -0.1449  0.1533 -0.5050
 4646TIP3    H213903   2.463   1.118   1.237 -0.1691 -0.0526  0.4692
 4647TIP3   OH213904   1.919   4.967   3.217  0.2290 -0.4465 -0.4900
 4647TIP3    H113905   1.832   4.970   3.257 -0.4191  2.6708 -1.8072
 4647TIP3    H213906   1.977   5.005   3.284  0.1339 -0.3055 -0.4865
 4648TIP3   OH213907   0.710   4.045   1.838  0.1983 -0.1746  0.2498
 4648TIP3    H113908   0.630   4.038   1.786 -0.3455 -1.4413  1.1950
 4648TIP3    H213909   0.689   4.109   1.906 -0.1016 -0.6470  0.6117
 4649TIP3   OH213910   6.728   3.461   1.533  0.3844 -0.3336 -0.2617
 4649TIP3    H113911   6.789   3.534   1.525  0.0245  0.0675  0.5129
 4649TIP3    H213912   6.672   3.467   1.455  1.9388 -1.3214 -1.5221
 4650TIP3   OH213913   0.930   0.713   1.258  0.1268 -0.1197  0.0850
 4650TIP3    H113914   0.962   0.623   1.254  0.4372 -0.0810  1.3229
 4650TIP3    H213915   1.008   0.767   1.243 -0.1550 -0.0287 -1.2428
 4651TIP3   OH213916   1.970   3.780   5.206 -0.0282 -0.6594 -0.4507
 4651TIP3    H113917   1.912   3.786   5.131  0.0638  0.2480 -0.4593
 4651TIP3    H213918   2.057   3.800   5.172 -0.2329  1.5769  0.1898
 4652TIP3   OH213919   1.153   1.245   2.165  0.7615  0.2980  0.3471
 4652TIP3    H113920   1.086   1.180   2.185  0.3484  1.2869  2.4614
 4652TIP3    H213921   1.170   1.289   2.249  2.2475  1.7611 -0.6549
 4653TIP3   OH213922   6.339   4.659   4.931 -0.2988 -0.2074 -0.4477
 4653TIP3    H113923   6.283   4.720   4.882 -1.2133 -0.1591  0.6254
 4653TIP3    H213924   6.284   4.628   5.002  1.4679  1.0157  1.5931
 4654TIP3   OH213925   5.349   2.342   3.910  0.4870  0.6802 -0.0228
 4654TIP3    H113926   5.385   2.275   3.968  0.2749 -0.1743 -0.8522
 4654TIP3    H213927   5.418   2.409   3.905  1.5785 -0.4374 -0.7641
 4655TIP3   OH213928   3.152   5.975   0.114  0.0561 -0.2674  0.0117
 4655TIP3    H113929   3.240   5.938   0.101 -0.5544 -1.5150 -0.8119
 4655TIP3    H213930   3.103   5.905   0.156 -0.9865 -0.2180 -1.0740
 4656TIP3   OH213931   3.335   0.125   1.685 -0.5097 -0.9265  0.2164
 4656TIP3    H113932   3.353   0.219   1.677  0.9417 -1.1542  0.4241
 4656TIP3    H213933   3.403   0.084   1.631 -1.1139 -1.8600  0.1544
 4657TIP3   OH213934   0.290   1.677   1.026  0.4329 -0.6558 -0.1966
 4657TIP3    H113935   0.208   1.661   1.072  0.2090 -1.0847 -0.7275
 4657TIP3    H213936   0.356   1.684   1.095 -0.2183  0.8381  0.3115
 4658TIP3   OH213937   0.138   5.114   2.527 -0.0570  0.0381  0.0634
 4658TIP3    H113938   0.190   5.069   2.594  2.1684  1.7489 -0.3874
 4658TIP3    H213939   0.127   5.203   2.561 -1.5091  0.1106 -0.5256
 4659TIP3   OH213940   0.463   6.272   4.042  0.3121 -0.0846  0.8625
 4659TIP3    H113941   0.413   6.301   4.118 -0.7488 -0.9011  0.5024
 4659TIP3    H213942   0.544   6.235   4.078  0.1782  0.2676  1.5319
 4660TIP3   OH213943   1.524   4.285   1.859 -0.1930  0.0977  0.0605
 4660TIP3    H113944   1.553   4.348   1.925 -1.0989  0.4208  0.1701
 4660TIP3    H213945   1.598   4.276   1.799  0.9979 -0.8858  1.5938
 4661TIP3   OH213946   4.280   2.708   5.311  0.0461 -0.5638 -0.2860
 4661TIP3    H113947   4.374   2.701   5.293  0.0597  1.4528 -1.3164
 4661TIP3    H213948   4.275   2.754   5.395  0.0439  1.1376 -1.1671
 4662TIP3   OH213949   3.147   2.110   0.811 -0.2599  0.2645  0.0183
 4662TIP3    H113950   3.147   2.055   0.733  1.3963  0.1591  0.0584
 4662TIP3    H213951   3.119   2.196   0.780  0.2843  0.1997 -0.6816
 4663TIP3   OH213952   0.248   2.631   5.077 -0.2122  0.0284  0.1183
 4663TIP3    H113953   0.336   2.639   5.113  0.1325 -0.8255 -0.5199
 4663TIP3    H213954   0.249   2.685   4.998 -0.0562 -0.4930 -0.2422
 4664TIP3   OH213955   0.821   4.027   2.276  0.0452 -0.2784  0.7711
 4664TIP3    H113956   0.857   4.113   2.297  1.2985 -0.4810 -0.3663
 4664TIP3    H213957   0.748   4.015   2.336 -0.7983  1.9946  0.2594
 4665TIP3   OH213958   4.719   1.243   5.010  0.2256 -0.1158 -0.5831
 4665TIP3    H113959   4.723   1.321   4.955  0.8061 -0.0855 -0.5073
 4665TIP3    H213960   4.655   1.187   4.968 -3.0924  1.9205  1.3355
 4666TIP3   OH213961   6.072   2.443   4.769  0.2393  0.0510  0.3553
 4666TIP3    H113962   6.062   2.356   4.732  1.4603 -0.1010  0.3339
 4666TIP3    H213963   6.166   2.460   4.765 -0.0860  1.9386 -0.9577
 4667TIP3   OH213964  -0.005   2.478   2.726 -0.5799  0.4565  0.5603
 4667TIP3    H113965   0.079   2.437   2.742 -1.3060 -1.5597 -0.4959
 4667TIP3    H213966   0.010   2.571   2.745  2.3473  0.4855 -1.2369
 4668TIP3   OH213967   1.975   3.560   0.653 -0.3486 -0.1650 -0.3862
 4668TIP3    H113968   2.021   3.525   0.729 -1.2964  1.7186  1.1216
 4668TIP3    H213969   1.908   3.493   0.633  0.0904 -0.8045  0.2405
 4669TIP3   OH213970   2.711   6.781   4.579 -0.2992 -0.0764  0.5506
 4669TIP3    H113971   2.763   6.760   4.656 -0.6631 -1.4343  0.4475
 4669TIP3    H213972   2.625   6.806   4.613  0.0823  1.1398  0.6641
 4670TIP3   OH213973   5.427   2.931   0.947 -0.2895 -0.0045  0.0337
 4670TIP3    H113974   5.497   2.919   0.882 -0.4102 -0.6842  0.0308
 4670TIP3    H213975   5.426   3.026   0.962  0.5260  0.0328 -0.0879
 4671TIP3   OH213976   2.617   0.041   4.663  0.6067  0.3740 -0.0443
 4671TIP3    H113977   2.532   0.065   4.626  0.3050 -1.8959 -0.9667
 4671TIP3    H213978   2.681   0.080   4.603  0.1938  0.8740 -0.1637
 4672TIP3   OH213979   6.661   1.162   3.885 -0.1693 -0.8482  0.4212
 4672TIP3    H113980   6.576   1.190   3.849  0.2172  2.5481  1.7579
 4672TIP3    H213981   6.719   1.158   3.809 -0.0333  3.4199  0.0771
 4673TIP3   OH213982   0.346   1.298   1.493 -0.1812  0.1767 -0.5369
 4673TIP3    H113983   0.436   1.302   1.523 -1.0163 -0.3141  2.3316
 4673TIP3    H213984   0.319   1.389   1.484 -0.4105  0.4601  2.2328
 4674TIP3   OH213985   3.145   0.473   5.308  0.4479 -0.2395 -0.6848
 4674TIP3    H113986   3.124   0.381   5.323  1.3540 -0.4355 -0.5977
 4674TIP3    H213987   3.107   0.519   5.383 -1.0645 -0.3770 -1.3307
 4675TIP3   OH213988   0.315   0.372   4.138 -0.4858 -0.0135 -0.4828
 4675TIP3    H113989   0.255   0.339   4.071 -0.6742 -0.2313 -0.2083
 4675TIP3    H213990   0.379   0.423   4.089 -0.7521  0.0176 -0.8055
 4676TIP3   OH213991   0.654   1.470   3.101  0.4317 -0.7536  0.0980
 4676TIP3    H113992   0.716   1.504   3.036  2.7630 -1.9320  1.5398
 4676TIP3    H213993   0.588   1.539   3.110  0.5254 -0.1636 -2.7667
 4677TIP3   OH213994   5.663   3.777   1.442 -0.4864 -0.2009 -0.5461
 4677TIP3    H113995   5.697   3.750   1.528 -0.6684  0.7403 -0.1669
 4677TIP3    H213996   5.583   3.726   1.431 -1.2905  0.7512  0.5537
 4678TIP3   OH213997   2.683   0.363   2.963 -0.1317  1.0129 -0.0906
 4678TIP3    H113998   2.682   0.315   3.046  2.6684  1.4811  0.3102
 4678TIP3    H213999   2.671   0.454   2.988  1.2767  1.2180 -0.1071
 4679TIP3   OH214000   0.979   4.162   5.706  0.3710 -0.3780  0.2714
 4679TIP3    H114001   0.922   4.134   5.634  2.5289  0.0557 -1.6979
 4679TIP3    H214002   0.935   4.239   5.742 -0.7658 -0.6026 -0.5546
 4680TIP3   OH214003   1.747   4.319   5.797  0.1461 -0.5106  0.1679
 4680TIP3    H114004   1.703   4.316   5.712  0.4363 -0.9875  0.0320
 4680TIP3    H214005   1.815   4.386   5.786  0.2817 -0.6783 -0.0258
 4681TIP3   OH214006   0.518   4.839   1.328  0.1045 -0.0792 -0.3131
 4681TIP3    H114007   0.495   4.756   1.369  1.4592  0.0444  0.7576
 4681TIP3    H214008   0.549   4.814   1.241  1.2969 -0.8102  0.2950
 4682TIP3   OH214009   4.341   5.717   4.864  0.1104  0.0180 -0.0891
 4682TIP3    H114010   4.297   5.706   4.949  1.1532 -2.3691  0.2119
 4682TIP3    H214011   4.272   5.748   4.806 -0.7221  1.3650  1.4918
 4683TIP3   OH214012   5.453   0.084   5.896  0.5779  0.2571 -0.8636
 4683TIP3    H114013   5.444   0.179   5.890  0.3901  0.3798  0.9903
 4683TIP3    H214014   5.421   0.052   5.811 -0.4247  1.7735 -1.0966
 4684TIP3   OH214015   2.847   5.859   5.693 -0.1523 -0.0095 -0.1753
 4684TIP3    H114016   2.795   5.939   5.705 -0.5077  0.0244 -1.6634
 4684TIP3    H214017   2.916   5.865   5.759  1.8938  3.2620 -2.2765
 4685TIP3   OH214018   0.831   1.975   5.777 -0.5169 -0.1963  0.0623
 4685TIP3    H114019   0.784   1.936   5.851  1.0066 -0.5163  0.8938
 4685TIP3    H214020   0.921   1.945   5.787 -0.0084  0.8236 -1.1963
 4686TIP3   OH214021   3.763   1.618   3.676 -0.2171 -0.2670 -0.2594
 4686TIP3    H114022   3.856   1.638   3.684 -0.3566 -0.0705  1.4616
 4686TIP3    H214023   3.728   1.634   3.764 -1.8477 -0.4831 -0.8290
 4687TIP3   OH214024   0.551   6.010   2.182  0.3541  0.1091 -0.1452
 4687TIP3    H114025   0.571   5.919   2.159 -0.9658 -0.2785  0.1987
 4687TIP3    H214026   0.478   6.005   2.243  0.5578  1.3889  0.2421
 4688TIP3   OH214027   6.252   1.746   5.829  0.1914  0.4821 -0.1426
 4688TIP3    H114028   6.267   1.823   5.883  0.3096 -0.3712  1.0852
 4688TIP3    H214029   6.316   1.682   5.860 -1.2784 -0.8273  0.3202
 4689TIP3   OH214030   2.258   5.794   5.304 -0.1277 -0.4241  0.3683
 4689TIP3    H114031   2.170   5.771   5.277 -0.5384 -0.7549  1.9314
 4689TIP3    H214032   2.286   5.860   5.239 -1.0210 -1.2126 -0.8634
 4690TIP3   OH214033   1.140   2.911   1.834 -0.3950  0.4454  0.0756
 4690TIP3    H114034   1.058   2.951   1.803 -0.5952 -0.8463 -1.1616
 4690TIP3    H214035   1.159   2.956   1.916 -0.9419  2.6235 -0.8997
 4691TIP3   OH214036   5.789   5.195   2.057  0.4484  0.4994 -0.6894
 4691TIP3    H114037   5.730   5.125   2.086 -0.1604  0.7805 -1.2177
 4691TIP3    H214038   5.766   5.208   1.965  0.4679  1.4906 -0.5626
 4692TIP3   OH214039   6.544   1.634   5.397 -0.1741  0.3574 -0.3481
 4692TIP3    H114040   6.554   1.668   5.486  0.0302 -2.0844  0.6229
 4692TIP3    H214041   6.453   1.605   5.393  0.5614 -2.2380  0.1362
 4693TIP3   OH214042   3.985   2.145   5.705 -0.0795  0.2770 -0.0101
 4693TIP3    H114043   4.003   2.224   5.756  0.5205  0.1718 -0.0518
 4693TIP3    H214044   4.014   2.073   5.760  1.0692  0.1935 -0.7013
 4694TIP3   OH214045   4.087   2.243   4.060 -0.7761  0.2735 -0.9762
 4694TIP3    H114046   4.114   2.307   3.994  0.7780 -0.1563 -0.7840
 4694TIP3    H214047   4.126   2.274   4.141 -3.2376  1.1780 -0.0326
 4695TIP3   OH214048   3.612   4.782   2.986 -0.8352 -0.1305  0.8484
 4695TIP3    H114049   3.564   4.709   2.948  0.9034 -1.2267  0.6193
 4695TIP3    H214050   3.648   4.829   2.910  0.8656 -1.0650  1.0362
 4696TIP3   OH214051   5.976   3.560   4.283  0.3867  0.0444  0.4961
 4696TIP3    H114052   5.968   3.623   4.355  0.9054  2.1538 -1.2125
 4696TIP3    H214053   6.051   3.505   4.308  0.5730  0.7396  1.5560
 4697TIP3   OH214054   2.773   2.090   3.400 -0.0354  0.4448 -0.3138
 4697TIP3    H114055   2.725   2.104   3.481 -1.4337  0.6791 -1.1573
 4697TIP3    H214056   2.733   2.013   3.361  1.0767 -0.0729 -0.4657
 4698TIP3   OH214057   5.151   6.628   0.809 -0.3158  0.0555  0.1396
 4698TIP3    H114058   5.226   6.682   0.784 -0.5679  0.1504 -0.4406
 4698TIP3    H214059   5.091   6.634   0.734 -0.9749  0.1147  0.6575
 4699TIP3   OH214060   6.019   5.605   5.802  0.3910 -0.6006  0.5278
 4699TIP3    H114061   6.049   5.687   5.841  0.9044  0.1091 -1.2981
 4699TIP3    H214062   5.961   5.567   5.869  0.6482  0.9121  1.6639
 4700TIP3   OH214063   3.783   5.071   4.775  0.2592  0.0919  0.1243
 4700TIP3    H114064   3.701   5.093   4.730 -0.1585  0.3194  0.9832
 4700TIP3    H214065   3.844   5.050   4.704 -0.3204  0.6685 -0.5652
 4701TIP3   OH214066   0.698   6.246   1.557 -0.3234  0.1245  0.1300
 4701TIP3    H114067   0.757   6.218   1.488 -0.4350  1.7644 -0.6888
 4701TIP3    H214068   0.698   6.342   1.551 -2.4465  0.2086  0.6111
 4702TIP3   OH214069   4.194   2.238   4.331  0.1755 -0.0755  0.5970
 4702TIP3    H114070   4.243   2.163   4.365  1.5503 -0.0583 -1.1741
 4702TIP3    H214071   4.253   2.313   4.344 -0.2793  0.3288  0.3648
 4703TIP3   OH214072   3.415   3.487   2.968  0.0806 -0.6036 -0.3938
 4703TIP3    H114073   3.401   3.578   2.942  0.3841 -0.7389 -1.0355
 4703TIP3    H214074   3.334   3.463   3.014 -0.4388 -0.3516 -1.1637
 4704TIP3   OH214075   0.208   0.539   1.400 -0.6847  0.5587 -0.4062
 4704TIP3    H114076   0.206   0.454   1.443 -1.2123 -0.4339 -2.2534
 4704TIP3    H214077   0.138   0.589   1.441 -1.3551 -0.4444 -0.2912
 4705TIP3   OH214078   0.598   4.808   1.971 -0.4489 -0.4547 -0.3166
 4705TIP3    H114079   0.611   4.719   1.941  1.5185 -0.2993 -0.0464
 4705TIP3    H214080   0.640   4.811   2.057  2.5807  1.5214 -1.7104
 4706TIP3   OH214081   1.617   5.323   4.701 -0.1025 -0.6801  0.4927
 4706TIP3    H114082   1.662   5.381   4.640  0.6303 -1.7310  0.0033
 4706TIP3    H214083   1.547   5.376   4.738  0.2684  0.3678 -0.2767
 4707TIP3   OH214084   2.581   1.180   5.393 -0.6728 -0.5761  0.2663
 4707TIP3    H114085   2.499   1.143   5.426 -0.4948 -0.4777  0.8244
 4707TIP3    H214086   2.648   1.145   5.451 -0.4340  0.1483  0.4315
 4708TIP3   OH214087   7.175   1.211   4.150  0.9912  0.5620  0.0579
 4708TIP3    H114088   7.126   1.260   4.215  1.3412 -0.1284  0.8660
 4708TIP3    H214089   7.114   1.198   4.078  0.4633  0.9754  0.4251
 4709TIP3   OH214090   5.828   3.383   5.817 -0.4592 -0.0493 -0.0466
 4709TIP3    H114091   5.909   3.336   5.796 -0.6076 -0.5540  0.4656
 4709TIP3    H214092   5.771   3.368   5.741 -0.2624 -0.1413 -0.1770
 4710TIP3   OH214093   5.636   5.938   0.669 -0.0017 -0.2070 -0.4717
 4710TIP3    H114094   5.669   5.852   0.694  0.2600  0.3223  1.0604
 4710TIP3    H214095   5.557   5.950   0.721  1.2848  1.4763  1.1993
 4711TIP3   OH214096   5.224   1.817   0.211 -0.0762 -0.3935 -0.0777
 4711TIP3    H114097   5.241   1.777   0.297 -0.3893 -1.3530 -0.4436
 4711TIP3    H214098   5.224   1.743   0.151  0.7326  0.3348 -1.0070
 4712TIP3   OH214099   3.490   0.282   5.047  0.2414 -0.1569 -0.3863
 4712TIP3    H114100   3.529   0.214   5.103 -1.1891  0.3498  1.3268
 4712TIP3    H214101   3.564   0.338   5.023  0.9215 -0.3551  1.0843
 4713TIP3   OH214102   2.918   5.264   4.521  0.3253  0.5177  0.2639
 4713TIP3    H114103   2.991   5.213   4.558  1.0768  0.1131 -1.6948
 4713TIP3    H214104   2.959   5.334   4.471 -0.6406  0.7227 -0.2764
 4714TIP3   OH214105   6.635   2.306   1.311  0.3845  0.8373  0.1040
 4714TIP3    H114106   6.553   2.319   1.358  0.5681 -1.1334  1.0787
 4714TIP3    H214107   6.689   2.254   1.371  1.6224  0.4678 -1.2705
 4715TIP3   OH214108   2.590   1.037   0.645  0.2574 -0.2263 -0.4907
 4715TIP3    H114109   2.620   0.988   0.721  0.1639 -0.9659 -0.9231
 4715TIP3    H214110   2.661   1.099   0.625  0.1315  0.2209  0.4044
 4716TIP3   OH214111   5.876   5.918   2.946 -0.7623  0.3961 -0.1595
 4716TIP3    H114112   5.932   5.881   3.014  1.1998  0.8743 -1.4545
 4716TIP3    H214113   5.790   5.878   2.961 -0.0293 -0.5396  1.7350
 4717TIP3   OH214114   2.630   5.132   5.644  0.2359 -0.5470 -0.0974
 4717TIP3    H114115   2.674   5.095   5.720  0.5404 -0.1151 -0.0618
 4717TIP3    H214116   2.642   5.226   5.653 -2.2595 -0.2232  0.9310
 4718TIP3   OH214117   2.836   4.497   2.414 -0.7447 -0.1720  0.2459
 4718TIP3    H114118   2.906   4.553   2.449  0.5056 -0.5250 -1.4960
 4718TIP3    H214119   2.845   4.415   2.462  1.3001 -0.8505 -1.1448
 4719TIP3   OH214120   3.253   6.259   4.773  0.4228  0.2379 -0.0436
 4719TIP3    H114121   3.167   6.219   4.783  0.3849  0.1724 -0.5730
 4719TIP3    H214122   3.298   6.243   4.856  0.5864 -1.3090 -0.4001
 4720TIP3   OH214123   6.767   1.449   5.508 -0.2300  0.2100  0.2650
 4720TIP3    H114124   6.786   1.529   5.459 -0.7005  2.2280  3.1511
 4720TIP3    H214125   6.816   1.458   5.589  1.1867 -3.3878 -0.0166
 4721TIP3   OH214126   2.989   2.525   2.029  0.1853 -0.1911 -0.6887
 4721TIP3    H114127   2.920   2.571   2.077  0.6204 -0.2368 -0.0055
 4721TIP3    H214128   3.070   2.567   2.057  1.0281 -3.4562  2.7013
 4722TIP3   OH214129   0.598   5.203   1.101 -0.2265 -0.1567 -0.1295
 4722TIP3    H114130   0.641   5.133   1.054 -0.8386 -0.1225 -0.7599
 4722TIP3    H214131   0.663   5.233   1.165  1.0908  0.5977 -1.7241
 4723TIP3   OH214132   3.979   3.909   0.160 -0.2606  0.4362 -0.7093
 4723TIP3    H114133   4.069   3.938   0.171  0.5814 -1.7898 -1.2496
 4723TIP3    H214134   3.950   3.884   0.248  0.3363 -0.6398 -0.8050
 4724TIP3   OH214135   0.805   3.452   4.566 -0.0663  0.5552  0.1966
 4724TIP3    H114136   0.897   3.444   4.540  0.6551  1.8130  2.1213
 4724TIP3    H214137   0.771   3.362   4.562  1.3539  0.0091 -0.1427
 4725TIP3   OH214138   1.088   0.682   2.976  0.0165 -0.1938  0.0696
 4725TIP3    H114139   1.115   0.729   3.054  0.2893 -0.6063  0.2288
 4725TIP3    H214140   1.043   0.604   3.009  2.4260 -1.7557 -0.1030
 4726TIP3   OH214141   3.568   4.852   1.921  0.5606  0.0860  0.0718
 4726TIP3    H114142   3.624   4.784   1.885  0.6383  0.3733 -0.3534
 4726TIP3    H214143   3.534   4.899   1.845 -0.6444 -0.3769  0.2976
 4727TIP3   OH214144   1.934   6.615   2.229 -0.1676  0.1494 -0.0095
 4727TIP3    H114145   1.979   6.666   2.161 -2.7633  2.9327  0.1369
 4727TIP3    H214146   1.918   6.530   2.189 -2.0409  1.8268 -3.2684
 4728TIP3   OH214147   4.255   3.099   5.348  0.1043  0.3523 -0.1771
 4728TIP3    H114148   4.297   3.044   5.414 -0.5889  0.3098  0.2363
 4728TIP3    H214149   4.290   3.067   5.265  0.4378 -0.0752  0.1206
 4729TIP3   OH214150   2.415   3.578   0.305 -0.0881  0.3038 -0.0090
 4729TIP3    H114151   2.350   3.564   0.374  0.0311 -0.1486  0.0191
 4729TIP3    H214152   2.376   3.645   0.249  0.5808  1.9862  1.4487
 4730TIP3   OH214153   4.434   4.603   2.532 -0.2432 -0.5093  0.1653
 4730TIP3    H114154   4.372   4.560   2.590 -0.0283  0.2619  0.9856
 4730TIP3    H214155   4.472   4.532   2.480 -0.3863 -1.2225  1.0159
 4731TIP3   OH214156   1.167   1.338   0.025  0.4769  0.1126  0.0379
 4731TIP3    H114157   1.167   1.266  -0.038  0.7634 -0.0856  0.2646
 4731TIP3    H214158   1.231   1.313   0.091 -0.1791  0.0911  0.6730
 4732TIP3   OH214159   5.641   2.643   2.018 -0.0894  0.0648 -0.3220
 4732TIP3    H114160   5.572   2.606   2.074 -0.6054 -1.0301 -1.6275
 4732TIP3    H214161   5.632   2.738   2.029  0.3880 -0.0930  2.0721
 4733TIP3   OH214162   3.783   3.719   5.214  0.0739 -0.8542 -0.4264
 4733TIP3    H114163   3.799   3.659   5.141 -0.4810 -1.5168 -0.0089
 4733TIP3    H214164   3.866   3.720   5.262  0.7393  0.2669 -1.5309
 4734TIP3   OH214165   4.091   3.405   0.751 -0.1737 -0.0079 -0.7639
 4734TIP3    H114166   4.177   3.438   0.775 -0.1317 -0.4262 -0.3086
 4734TIP3    H214167   4.038   3.483   0.737 -0.0911  0.2658  0.3339
 4735TIP3   OH214168   1.233   4.744   5.684 -0.0690  0.3871 -0.3698
 4735TIP3    H114169   1.220   4.833   5.651  0.5498  0.4392 -0.4781
 4735TIP3    H214170   1.305   4.752   5.746 -0.6482  0.1302  0.3431
 4736TIP3   OH214171   1.770   0.880   0.923  0.4209  0.1022 -1.4030
 4736TIP3    H114172   1.720   0.959   0.901 -0.8857 -0.1881  0.3057
 4736TIP3    H214173   1.860   0.911   0.934  0.0697  1.2183 -1.5437
 4737TIP3   OH214174   4.834   1.919   4.426 -0.0486  0.3201  0.1359
 4737TIP3    H114175   4.809   2.011   4.418  0.3874  0.4249 -0.0566
 4737TIP3    H214176   4.893   1.917   4.501 -0.9258  0.0096  0.8346
 4738TIP3   OH214177   6.365   5.218   2.558  0.1090 -0.1199 -0.0253
 4738TIP3    H114178   6.338   5.283   2.493 -0.4573  0.8885  1.1753
 4738TIP3    H214179   6.461   5.219   2.554  0.0829 -0.6970 -1.4082
 4739TIP3   OH214180   1.378   1.075   3.129 -0.5661  0.0030  0.1334
 4739TIP3    H114181   1.405   0.994   3.174  1.1714  0.6120  0.2685
 4739TIP3    H214182   1.321   1.045   3.059  1.1185 -1.5119 -0.6666
 4740TIP3   OH214183   6.332   2.768   3.627  0.3550 -0.6454 -0.1600
 4740TIP3    H114184   6.237   2.782   3.637  0.3771  0.9829 -1.6168
 4740TIP3    H214185   6.344   2.758   3.532  1.6033 -1.2525  0.0534
 4741TIP3   OH214186   5.027   0.543   1.107 -0.1656 -0.3916  0.2341
 4741TIP3    H114187   5.071   0.545   1.022 -1.8417  0.2388 -0.6674
 4741TIP3    H214188   4.956   0.481   1.096 -0.1867 -0.5796  1.3161
 4742TIP3   OH214189   5.889   4.615   3.592 -0.2145 -0.0017 -0.1289
 4742TIP3    H114190   5.921   4.696   3.554 -0.8818  1.7005  2.6731
 4742TIP3    H214191   5.794   4.619   3.581 -0.2336 -0.5751 -0.2342
 4743TIP3   OH214192   3.414   1.113   5.732  0.5095 -0.6233  0.2993
 4743TIP3    H114193   3.431   1.050   5.661  0.9336 -1.3313  1.0148
 4743TIP3    H214194   3.467   1.189   5.709 -0.9108 -0.0252 -1.1943
 4744TIP3   OH214195   3.600   5.303   5.688  0.0011 -0.2067 -0.0609
 4744TIP3    H114196   3.647   5.247   5.626 -1.5475 -0.4889 -1.0342
 4744TIP3    H214197   3.522   5.253   5.712 -0.2151  0.5559  0.9159
 4745TIP3   OH214198   3.648   4.822   2.547  0.4080 -0.1767 -0.3243
 4745TIP3    H114199   3.557   4.813   2.517  0.8994 -0.5899 -1.7769
 4745TIP3    H214200   3.689   4.881   2.483  1.2791 -0.3632  0.0483
 4746TIP3   OH214201   1.650   4.296   4.241  0.1273  0.0651  0.5910
 4746TIP3    H114202   1.559   4.284   4.214  0.6091 -2.7137 -0.1281
 4746TIP3    H214203   1.663   4.235   4.313  1.5651 -0.0214  0.3056
 4747TIP3   OH214204   0.054   2.808   5.849 -0.0793  0.7138  0.1348
 4747TIP3    H114205   0.081   2.880   5.906 -0.3935  1.4927 -0.6742
 4747TIP3    H214206   0.131   2.789   5.795 -0.3732  1.2844 -0.4956
 4748TIP3   OH214207   3.359   0.021   4.626  0.3240 -0.3576  0.0797
 4748TIP3    H114208   3.453   0.037   4.638  0.1723  0.8489 -0.2013
 4748TIP3    H214209   3.320   0.108   4.626 -0.8992 -0.8781  0.9412
 4749TIP3   OH214210   4.691   4.599   1.884  0.6676 -0.0546 -0.2358
 4749TIP3    H114211   4.687   4.664   1.954  1.2578  0.0999 -0.3415
 4749TIP3    H214212   4.764   4.627   1.829  0.9821 -0.8431 -0.2386
 4750TIP3   OH214213   1.494   4.863   3.730  0.3094  0.1404  0.6556
 4750TIP3    H114214   1.434   4.829   3.663  0.8610 -0.0994  0.2778
 4750TIP3    H214215   1.445   4.857   3.812 -0.3073  0.2604  0.3008
 4751TIP3   OH214216   5.224   0.348   3.605  0.3294 -1.0796 -0.0434
 4751TIP3    H114217   5.297   0.328   3.547  0.6703 -0.7344  0.2623
 4751TIP3    H214218   5.258   0.329   3.693  0.0690 -0.8646  0.1042
 4752TIP3   OH214219   5.963   0.063   3.827 -0.5648 -0.2354 -0.1353
 4752TIP3    H114220   5.962   0.032   3.736 -0.2461 -1.0103  0.1159
 4752TIP3    H214221   5.978   0.158   3.819  0.0731 -0.3788 -0.8753
 4753TIP3   OH214222   6.815   5.134   3.011  0.5480  0.2839 -0.3408
 4753TIP3    H114223   6.812   5.141   3.106  0.6032  0.9672 -0.3865
 4753TIP3    H214224   6.724   5.119   2.985  0.0796  2.6962 -0.3595
 4754TIP3   OH214225   5.363   6.638   2.768 -0.7109 -0.0788 -0.1457
 4754TIP3    H114226   5.281   6.668   2.808 -0.6306 -0.5470  0.3761
 4754TIP3    H214227   5.377   6.551   2.804 -0.5271 -0.4295 -1.0440
 4755TIP3   OH214228   4.094   6.359   1.206  0.1986 -0.8189  0.2547
 4755TIP3    H114229   4.044   6.293   1.253 -0.6324 -0.8982 -0.7038
 4755TIP3    H214230   4.077   6.341   1.113  0.4150  0.3732 -0.0405
 4756TIP3   OH214231   6.469   6.614   3.547 -0.3696  0.0237 -0.2390
 4756TIP3    H114232   6.563   6.607   3.566 -0.2077  1.0325 -0.5697
 4756TIP3    H214233   6.427   6.608   3.632 -0.0837 -1.4350 -0.1820
 4757TIP3   OH214234   5.773   5.644   4.389  0.0599 -0.0111  0.3939
 4757TIP3    H114235   5.849   5.586   4.383 -0.7187 -1.0089 -0.2170
 4757TIP3    H214236   5.705   5.590   4.428  0.2402  1.5213  3.0724
 4758TIP3   OH214237   3.824   5.191   5.284 -0.0956  0.6083 -0.2478
 4758TIP3    H114238   3.915   5.206   5.257  1.0756 -0.6685  2.6211
 4758TIP3    H214239   3.801   5.108   5.242 -0.1491  1.1768 -1.3818
 4759TIP3   OH214240   1.499   6.575   3.469  0.3098 -0.2207 -0.0757
 4759TIP3    H114241   1.534   6.559   3.382 -1.9794  0.2037 -1.1283
 4759TIP3    H214242   1.436   6.646   3.458 -1.5203 -1.5015  1.5127
 4760TIP3   OH214243   4.839   5.609   4.327 -0.0006 -0.1187 -0.3773
 4760TIP3    H114244   4.789   5.617   4.409  3.1212  0.5296  1.6521
 4760TIP3    H214245   4.899   5.536   4.342  0.8008  0.1513 -2.0238
 4761TIP3   OH214246   6.143   3.731   2.811  0.2443  0.8453  0.0559
 4761TIP3    H114247   6.131   3.719   2.905 -1.7345 -1.8657 -0.4267
 4761TIP3    H214248   6.063   3.773   2.781  1.6742  3.6086 -0.2630
 4762TIP3   OH214249   0.415   5.162   4.753  0.6852  0.5804  0.1425
 4762TIP3    H114250   0.333   5.116   4.737  0.0895  1.7653 -0.3846
 4762TIP3    H214251   0.478   5.120   4.694 -0.3413  1.7363 -1.9060
 4763TIP3   OH214252   5.824   2.709   2.975 -0.2413 -0.7358 -0.6816
 4763TIP3    H114253   5.832   2.711   2.880  1.0029 -0.9070 -0.5992
 4763TIP3    H214254   5.910   2.681   3.006  0.0593  1.3843  0.5861
 4764TIP3   OH214255   6.065   1.032   3.245  0.4050  0.0248 -1.4182
 4764TIP3    H114256   6.045   1.124   3.225  0.2746 -0.4537 -3.7715
 4764TIP3    H214257   5.979   0.990   3.253  0.4466  0.2122  0.5052
 4765TIP3   OH214258   6.579   1.120   0.276 -0.0903  0.3890 -0.3401
 4765TIP3    H114259   6.537   1.081   0.352  0.0147  1.8159  0.4782
 4765TIP3    H214260   6.656   1.066   0.260 -0.5651 -0.4124  0.0391
 4766TIP3   OH214261   4.176   5.692   4.187  0.0099 -0.0517 -0.0731
 4766TIP3    H114262   4.259   5.658   4.153 -0.3495 -1.2513  0.2390
 4766TIP3    H214263   4.128   5.615   4.217 -1.3862  0.5828 -0.5887
 4767TIP3   OH214264   2.706   2.932   2.374 -0.1435  0.1329 -0.3803
 4767TIP3    H114265   2.753   2.851   2.396  1.5058  0.8396 -1.1087
 4767TIP3    H214266   2.729   2.993   2.444 -0.5645  0.2780 -0.3653
 4768TIP3   OH214267   3.934   3.831   5.729  0.4107  0.2073 -0.2419
 4768TIP3    H114268   3.854   3.790   5.695  1.2957 -0.5076 -1.5602
 4768TIP3    H214269   3.953   3.782   5.809  0.1135 -0.3334 -0.4944
 4769TIP3   OH214270   5.094   3.672   2.797 -0.3684 -0.0828  0.5614
 4769TIP3    H114271   5.103   3.766   2.813 -0.9031  0.0915 -0.1331
 4769TIP3    H214272   5.001   3.653   2.812 -0.6353 -0.1517 -1.0190
 4770TIP3   OH214273   5.651   4.313   1.384  0.2599 -0.7883  0.0688
 4770TIP3    H114274   5.688   4.247   1.442  1.3406 -0.3798 -0.1257
 4770TIP3    H214275   5.637   4.268   1.301  0.0272 -1.0264  0.2377
 4771TIP3   OH214276   1.223   1.989   1.250  0.2727 -0.1153 -0.2754
 4771TIP3    H114277   1.259   2.039   1.177  0.9643  1.2670  0.9696
 4771TIP3    H214278   1.222   1.899   1.218  0.9958  0.3793 -1.8155
 4772TIP3   OH214279   3.663   4.962   4.448  0.4512  0.8953 -0.2949
 4772TIP3    H114280   3.749   4.926   4.471  0.5649  0.9860 -0.5723
 4772TIP3    H214281   3.654   4.945   4.354 -2.3993 -4.5834  0.5567
 4773TIP3   OH214282   6.105   5.965   5.736 -0.0962  0.4000  0.5244
 4773TIP3    H114283   6.150   5.951   5.819 -3.2322 -1.7099  2.0514
 4773TIP3    H214284   6.067   6.052   5.743 -0.7235  0.0553  1.5449
 4774TIP3   OH214285   6.950   1.044   0.056  0.5393  0.7007 -0.2015
 4774TIP3    H114286   6.934   0.950   0.066  0.7932  0.6988  0.1979
 4774TIP3    H214287   6.878   1.074   0.000  0.4542  0.2718 -0.3308
 4775TIP3   OH214288   3.792   3.434   3.067 -0.4846 -0.3634  0.4101
 4775TIP3    H114289   3.781   3.455   3.160 -0.9880  0.4995  0.1718
 4775TIP3    H214290   3.753   3.509   3.021  2.1161  0.5569 -0.5222
 4776TIP3   OH214291   6.966   3.102   1.342  0.1456 -0.1548 -0.1397
 4776TIP3    H114292   7.057   3.118   1.367  0.5030 -3.0911  0.8055
 4776TIP3    H214293   6.917   3.114   1.424 -0.5926  2.6032 -0.8836
 4777TIP3   OH214294   5.077   3.309   5.405 -0.0979 -0.0339  0.2116
 4777TIP3    H114295   5.036   3.372   5.465 -0.7629 -0.1642 -0.1031
 4777TIP3    H214296   5.061   3.224   5.446  0.1223 -0.0624  0.2396
 4778TIP3   OH214297   1.238   5.690   1.254 -0.5234 -0.6754 -0.0515
 4778TIP3    H114298   1.332   5.707   1.256 -0.6537  0.1121  1.7185
 4778TIP3    H214299   1.230   5.595   1.246  0.4744 -0.9212  1.4969
 4779TIP3   OH214300   1.526   4.934   2.131  0.3530  0.2786  0.1391
 4779TIP3    H114301   1.444   4.971   2.098 -0.5363  0.6232  2.5334
 4779TIP3    H214302   1.515   4.839   2.123  0.2444  0.3520 -0.6670
 4780TIP3   OH214303   4.408   5.377   3.222 -0.4039 -0.6265 -0.0594
 4780TIP3    H114304   4.403   5.473   3.222  0.8533 -0.5316 -1.6150
 4780TIP3    H214305   4.443   5.355   3.136 -0.2823 -2.4802  0.4353
 4781TIP3   OH214306   6.219   5.977   4.786 -0.4745 -0.0758 -0.1499
 4781TIP3    H114307   6.164   5.969   4.708  0.7244 -1.2815 -0.9195
 4781TIP3    H214308   6.166   5.941   4.857 -1.1870  0.0549 -0.6055
 4782TIP3   OH214309   4.029   5.373   5.199 -0.0818  0.3060 -0.0927
 4782TIP3    H114310   3.976   5.441   5.241 -0.6756 -0.7979  0.9904
 4782TIP3    H214311   3.985   5.357   5.116  0.6125  1.8965 -0.8216
 4783TIP3   OH214312   6.107   1.211   0.113  0.0452 -0.0949  0.6738
 4783TIP3    H114313   6.195   1.217   0.075 -0.5859  1.2657 -0.6434
 4783TIP3    H214314   6.122   1.218   0.208  1.6028 -3.1159  0.7687
 4784TIP3   OH214315   6.820   5.078   0.962  0.5419 -0.2726  0.2614
 4784TIP3    H114316   6.908   5.038   0.962  0.0340 -1.4370  0.5356
 4784TIP3    H214317   6.798   5.087   1.054  1.3514  2.3433  0.2684
 4785TIP3   OH214318   6.473   1.743   2.159  0.4363  0.0059  0.0645
 4785TIP3    H114319   6.566   1.766   2.155  0.7183 -0.8232  1.2130
 4785TIP3    H214320   6.430   1.821   2.193  0.8882 -0.0084  0.6769
 4786TIP3   OH214321   1.152   2.391   0.750  0.5409  0.5525  0.0056
 4786TIP3    H114322   1.123   2.441   0.827  2.0572  0.9287  0.3680
 4786TIP3    H214323   1.142   2.300   0.776 -2.7846  0.5406 -0.8563
 4787TIP3   OH214324   4.673   3.091   3.277  0.1160  0.3032  0.6415
 4787TIP3    H114325   4.676   3.001   3.309 -1.6062  0.9455  2.9826
 4787TIP3    H214326   4.749   3.133   3.316 -0.0031  0.2353  0.9509
 4788TIP3   OH214327   4.806   4.877   4.373  0.4810 -0.0567  0.1434
 4788TIP3    H114328   4.826   4.832   4.291 -2.7067 -2.0307  0.2499
 4788TIP3    H214329   4.819   4.969   4.353  2.0472 -0.6188 -1.8147
 4789TIP3   OH214330   4.829   0.287   5.356  0.2750 -0.0576  0.2699
 4789TIP3    H114331   4.744   0.265   5.395  0.0385 -0.8486 -0.6470
 4789TIP3    H214332   4.890   0.286   5.429 -0.5584  0.8363  0.9983
 4790TIP3   OH214333   6.784   3.905   2.479  1.2534 -0.1747 -0.3233
 4790TIP3    H114334   6.751   3.993   2.496  2.6164  0.2504  0.2544
 4790TIP3    H214335   6.864   3.918   2.428  2.0105 -1.0010  0.5940
 4791TIP3   OH214336   2.488   4.619   1.360  0.2751 -0.2963  0.4816
 4791TIP3    H114337   2.412   4.607   1.418  0.3579  0.6268  0.8125
 4791TIP3    H214338   2.463   4.692   1.303  1.1647  0.5140  1.0800
 4792TIP3   OH214339   1.200   0.065   2.186 -0.8216  0.2514  0.3389
 4792TIP3    H114340   1.189  -0.005   2.251 -0.2602 -0.0526  0.1107
 4792TIP3    H214341   1.141   0.134   2.216 -2.8257 -1.0355 -0.4606
 4793TIP3   OH214342   5.657   0.840   3.823 -0.5024 -0.3097 -0.4644
 4793TIP3    H114343   5.619   0.924   3.798 -2.0928 -0.3939  1.4055
 4793TIP3    H214344   5.622   0.778   3.759 -0.8993  0.1487 -0.6959
 4794TIP3   OH214345   2.673   4.761   2.495  0.2114  0.1577 -0.1480
 4794TIP3    H114346   2.643   4.807   2.574 -2.2343  0.1572 -0.9694
 4794TIP3    H214347   2.760   4.729   2.517  0.5925  2.2168  1.6730
 4795TIP3   OH214348   6.315   1.504   0.880 -0.8613 -0.7864  0.0117
 4795TIP3    H114349   6.371   1.431   0.908  0.6843 -0.5024 -2.1722
 4795TIP3    H214350   6.345   1.526   0.793 -3.0869  0.7499 -0.4545
 4796TIP3   OH214351   5.051   6.639   1.638 -0.1798  0.7032  0.2392
 4796TIP3    H114352   5.141   6.636   1.670 -0.5356 -1.2749  1.1515
 4796TIP3    H214353   5.058   6.616   1.545  0.4001  2.3018 -0.1488
 4797TIP3   OH214354   0.344   0.368   2.227 -0.0089  0.0524 -0.1488
 4797TIP3    H114355   0.302   0.326   2.152 -1.5470  0.0834  0.6481
 4797TIP3    H214356   0.392   0.442   2.189 -2.3012  1.2279 -0.9595
 4798TIP3   OH214357   5.895   6.231   4.428  0.4431 -0.1982  0.2853
 4798TIP3    H114358   5.885   6.169   4.501  0.5413  0.4809  0.8893
 4798TIP3    H214359   5.839   6.195   4.359  2.0087 -2.0297 -0.1090
 4799TIP3   OH214360   4.624   1.982   0.259  0.1181 -0.2300  0.0512
 4799TIP3    H114361   4.705   2.023   0.291 -0.5901  1.5381 -0.3193
 4799TIP3    H214362   4.653   1.927   0.185  0.8989  1.0996 -0.6760
 4800TIP3   OH214363   0.002   4.925   4.205  0.9170  0.0588 -0.1418
 4800TIP3    H114364  -0.032   4.836   4.209 -0.6455  0.6668  1.0071
 4800TIP3    H214365   0.083   4.917   4.155  0.1191 -1.7774 -1.2522
 4801TIP3   OH214366   2.807   4.819   0.394 -0.2552 -0.2766  0.1802
 4801TIP3    H114367   2.749   4.808   0.469 -0.6174  0.4655  0.0223
 4801TIP3    H214368   2.786   4.906   0.361  1.8487  0.5657  0.9002
 4802TIP3   OH214369   2.590   1.729   1.426  0.2836 -0.2086 -0.0516
 4802TIP3    H114370   2.594   1.795   1.495  3.1305 -0.2298 -0.0496
 4802TIP3    H214371   2.507   1.744   1.382 -0.7366  1.0692  2.1476
 4803TIP3   OH214372   3.998   5.889   3.190 -0.3288 -0.1956 -0.5225
 4803TIP3    H114373   4.001   5.884   3.094 -0.5873  0.1794 -0.5522
 4803TIP3    H214374   4.068   5.831   3.219 -0.1872 -0.2394 -0.9432
 4804TIP3   OH214375   2.146   3.702   4.672  0.0933  0.3924  0.6654
 4804TIP3    H114376   2.056   3.679   4.694 -0.3988  1.7696  0.1726
 4804TIP3    H214377   2.198   3.629   4.706 -1.2831 -0.9435  0.0693
 4805TIP3   OH214378   3.119   2.604   0.810 -0.1585  0.2823  0.4858
 4805TIP3    H114379   3.200   2.607   0.759  0.9099  0.8710  2.1273
 4805TIP3    H214380   3.082   2.691   0.801 -1.0183 -0.1867 -0.8272
 4806TIP3   OH214381   6.979   1.690   0.629  0.6417  0.2360  0.3897
 4806TIP3    H114382   6.914   1.677   0.560  0.3154  1.6241  0.4090
 4806TIP3    H214383   7.040   1.617   0.619  0.2382  0.0626 -0.9548
 4807TIP3   OH214384   2.518   1.651   3.543  0.2994 -0.1316 -0.5962
 4807TIP3    H114385   2.532   1.573   3.490 -0.1649 -1.3165  0.9621
 4807TIP3    H214386   2.431   1.639   3.581  0.0472  1.3530 -0.6470
 4808TIP3   OH214387   7.098   3.884   5.693 -0.2981  0.4701 -0.0051
 4808TIP3    H114388   7.140   3.969   5.709  2.3360 -0.8213  0.5521
 4808TIP3    H214389   7.109   3.869   5.598  2.5639 -0.7070  0.3835
 4809TIP3   OH214390   3.094   3.338   5.544 -0.2145 -0.2559 -0.5380
 4809TIP3    H114391   3.123   3.374   5.627 -1.9240 -0.8367  0.3391
 4809TIP3    H214392   3.171   3.291   5.511  0.8057  0.8557  0.1765
 4810TIP3   OH214393   6.971   3.764   5.145  0.1926  0.0816  0.2471
 4810TIP3    H114394   6.995   3.695   5.083 -1.3658 -1.1088  0.9050
 4810TIP3    H214395   7.052   3.813   5.160  0.8237 -0.2010 -1.9528
 4811TIP3   OH214396   4.144   1.101   2.110 -0.4522  0.0721  0.2091
 4811TIP3    H114397   4.071   1.143   2.156  0.3716  0.9502  0.7466
 4811TIP3    H214398   4.220   1.155   2.130 -0.0417  0.4833 -2.2064
 4812TIP3   OH214399   6.453   0.011   5.361 -0.6932  0.1813  0.1138
 4812TIP3    H114400   6.437   0.105   5.353  1.2692  0.5987  0.5616
 4812TIP3    H214401   6.509   0.002   5.438 -0.9531 -1.3709  0.1554
 4813TIP3   OH214402   5.523   3.888   2.015 -0.6061 -0.6970  0.3236
 4813TIP3    H114403   5.552   3.848   2.096 -1.3037  1.0359  1.4833
 4813TIP3    H214404   5.529   3.982   2.030  1.1466 -0.2606 -2.3450
 4814TIP3   OH214405   3.435   1.171   1.197  0.0217 -0.3453 -0.7340
 4814TIP3    H114406   3.509   1.228   1.216  0.8760 -1.7425  0.2764
 4814TIP3    H214407   3.383   1.221   1.133  1.1901  1.1573 -0.5801
 4815TIP3   OH214408   1.960   1.616   3.220  0.1077  0.1636  0.3400
 4815TIP3    H114409   1.981   1.694   3.168  0.7015 -0.0264  0.2816
 4815TIP3    H214410   1.992   1.636   3.308 -0.0890  0.1378  0.4169
 4816TIP3   OH214411   0.850   0.723   4.530  0.3507 -0.4166 -0.4753
 4816TIP3    H114412   0.888   0.801   4.490  1.9783 -0.6431  0.5582
 4816TIP3    H214413   0.913   0.696   4.596 -1.5157 -0.9903  1.1698
 4817TIP3   OH214414   2.136   4.157   3.587  0.1161  0.1766 -0.0586
 4817TIP3    H114415   2.139   4.064   3.606 -1.0845  0.2317  0.5155
 4817TIP3    H214416   2.106   4.198   3.668  2.2399  1.2762  0.2409
 4818TIP3   OH214417   5.389   4.734   0.397  0.2508 -0.3021 -0.2662
 4818TIP3    H114418   5.417   4.794   0.466 -0.7805  2.7486 -2.3251
 4818TIP3    H214419   5.322   4.679   0.439  0.0872  1.0486  1.3314
 4819TIP3   OH214420   4.613   3.412   2.172 -0.0708  0.2795 -0.0373
 4819TIP3    H114421   4.531   3.396   2.124 -1.5982 -0.0394  2.5186
 4819TIP3    H214422   4.637   3.326   2.208  1.5584  0.3294 -0.8729
 4820TIP3   OH214423   6.455   1.642   4.789 -0.1156  0.0111  0.1829
 4820TIP3    H114424   6.539   1.670   4.827  0.1099 -0.9040  0.3757
 4820TIP3    H214425   6.434   1.710   4.725  1.2724 -0.2599 -0.5983
 4821TIP3   OH214426   1.919   5.839   1.964 -0.6330 -0.3566 -0.9216
 4821TIP3    H114427   1.981   5.833   2.037  0.5887  0.0924 -1.8968
 4821TIP3    H214428   1.974   5.846   1.886 -1.9111  0.1965 -1.8074
 4822TIP3   OH214429   0.118   3.107   4.751 -0.1298  0.1253 -0.2479
 4822TIP3    H114430   0.208   3.084   4.774  1.0028  2.7466 -1.5656
 4822TIP3    H214431   0.089   3.165   4.821  0.4794  1.9048 -1.4070
 4823TIP3   OH214432   3.541   1.531   2.759 -0.3945  0.5658 -0.5347
 4823TIP3    H114433   3.540   1.601   2.825  3.3750  0.0661  0.2818
 4823TIP3    H214434   3.564   1.575   2.677  1.4254  0.4422 -0.1294
 4824TIP3   OH214435   5.708   2.779   2.501 -0.0780 -0.0590 -0.3963
 4824TIP3    H114436   5.787   2.753   2.455 -0.2254  0.0125 -0.6973
 4824TIP3    H214437   5.638   2.728   2.460 -0.3348  0.6289 -0.8389
 4825TIP3   OH214438   0.500   4.382   2.475  0.2813  0.0185  0.6222
 4825TIP3    H114439   0.416   4.419   2.502  0.5467  0.4781  0.8335
 4825TIP3    H214440   0.499   4.293   2.510  0.1981  0.2736  1.2873
 4826TIP3   OH214441   6.934   2.136   5.561 -0.4032 -0.4337  0.6143
 4826TIP3    H114442   6.912   2.044   5.553 -0.3866 -0.2924 -1.5045
 4826TIP3    H214443   6.886   2.179   5.491  1.3042  0.8340  0.1509
 4827TIP3   OH214444   4.868   3.906   2.783 -0.5698  0.0791 -0.6148
 4827TIP3    H114445   4.807   3.979   2.786 -0.1072  0.4567 -0.2265
 4827TIP3    H214446   4.829   3.844   2.720 -2.0748 -0.3676  0.7004
 4828TIP3   OH214447   5.905   2.532   3.325  0.3818 -0.4138  0.4339
 4828TIP3    H114448   5.977   2.575   3.372  0.0427 -0.0137  0.5852
 4828TIP3    H214449   5.932   2.533   3.233 -0.2603  1.4070  0.2376
 4829TIP3   OH214450   2.314   4.919   0.139  0.2372  0.1667  0.4323
 4829TIP3    H114451   2.358   4.865   0.074  1.1168  0.5398  0.6911
 4829TIP3    H214452   2.337   5.009   0.115 -0.5206  0.3776  0.4857
 4830TIP3   OH214453   3.974   1.902   3.734 -0.3694  0.0152 -0.3124
 4830TIP3    H114454   3.950   1.932   3.821  0.8147 -0.0228  0.0531
 4830TIP3    H214455   4.042   1.963   3.706  1.4123 -1.6829  0.0604
 4831TIP3   OH214456   3.085   2.206   5.090 -0.1066 -0.3049  0.2395
 4831TIP3    H114457   3.035   2.191   5.009 -1.5628 -0.6311  1.1687
 4831TIP3    H214458   3.147   2.275   5.066 -2.0575  1.2884 -0.5815
 4832TIP3   OH214459   6.021   3.571   2.192 -0.8573 -0.4524 -0.0960
 4832TIP3    H114460   5.935   3.544   2.161 -1.3758 -0.6155  1.4005
 4832TIP3    H214461   6.008   3.592   2.285  0.6681 -0.2618  0.1070
 4833TIP3   OH214462   3.897   3.712   2.742 -0.2384 -0.2718  0.6626
 4833TIP3    H114463   3.984   3.681   2.769  0.5233  0.4679 -0.7959
 4833TIP3    H214464   3.910   3.744   2.653 -2.1419 -0.6127  0.2246
 4834TIP3   OH214465   0.984   0.878   1.671 -1.0224  0.4178 -0.2938
 4834TIP3    H114466   0.978   0.958   1.619 -2.1943  0.2276 -0.4715
 4834TIP3    H214467   1.059   0.832   1.634 -2.0835  0.0809 -2.1586
 4835TIP3   OH214468   2.723   0.850   4.774  0.6920  0.3221 -0.3075
 4835TIP3    H114469   2.799   0.825   4.721  0.9789  2.0540 -0.7828
 4835TIP3    H214470   2.757   0.853   4.864 -0.2396 -4.4964  0.4453
 4836TIP3   OH214471   4.787   2.450   1.394  0.6648 -0.2683  0.1477
 4836TIP3    H114472   4.758   2.386   1.459  1.2255 -1.1562 -0.4471
 4836TIP3    H214473   4.860   2.495   1.435 -0.5575  0.9355  1.0755
 4837TIP3   OH214474   6.619   2.693   1.036 -0.5261 -0.1602  0.3858
 4837TIP3    H114475   6.674   2.638   1.092 -0.0062  0.1143  0.1617
 4837TIP3    H214476   6.571   2.749   1.096  1.7250  1.7529  0.5651
 4838TIP3   OH214477   3.160   6.482   5.864  0.5644  0.3519 -0.1918
 4838TIP3    H114478   3.194   6.428   5.936  1.4842 -0.0727 -0.9199
 4838TIP3    H214479   3.207   6.451   5.787 -0.9570  0.2641 -1.1265
 4839TIP3   OH214480   5.413   0.983   1.769 -0.1417 -0.1767 -0.4649
 4839TIP3    H114481   5.380   0.940   1.848  0.9454 -1.2318 -0.5613
 4839TIP3    H214482   5.340   0.980   1.708 -0.5159 -0.6756 -0.0028
 4840TIP3   OH214483   4.580   3.200   0.973  0.2990 -0.4603 -0.6144
 4840TIP3    H114484   4.529   3.222   1.051  0.0725 -1.6788 -0.4105
 4840TIP3    H214485   4.662   3.165   1.006  1.8016  2.3973 -0.9255
 4841TIP3   OH214486   3.086   5.196   0.939 -0.0190  0.1436 -0.1414
 4841TIP3    H114487   3.009   5.193   0.881 -1.4569  0.6064  1.6451
 4841TIP3    H214488   3.087   5.285   0.973  1.6141  0.2718 -0.4774
 4842TIP3   OH214489   0.084   0.420   0.562 -0.3332  0.1927  0.0414
 4842TIP3    H114490   0.072   0.359   0.634  1.1810 -0.9927 -0.6464
 4842TIP3    H214491   0.158   0.475   0.589  0.1650 -0.1808 -0.5402
 4843TIP3   OH214492   5.827   3.812   4.011 -0.0743 -0.1159  0.3391
 4843TIP3    H114493   5.790   3.724   4.008 -4.0938  1.3626  0.5872
 4843TIP3    H214494   5.912   3.800   4.053 -0.3072 -3.8829  0.0863
 4844TIP3   OH214495   0.293   0.983   2.931 -0.0052  0.1354 -0.0792
 4844TIP3    H114496   0.367   0.987   2.992 -1.3253 -0.2772  1.6329
 4844TIP3    H214497   0.333   0.964   2.846  1.9693  1.3419  0.5103
 4845TIP3   OH214498   6.372   4.575   4.499  0.4183 -0.2877 -0.5451
 4845TIP3    H114499   6.314   4.565   4.424  0.9778 -3.3545 -0.6684
 4845TIP3    H214500   6.460   4.582   4.461  0.4766  1.0502 -0.2279
 4846TIP3   OH214501   7.117   1.976   0.014  0.8014  0.2600 -0.2414
 4846TIP3    H114502   7.173   2.010   0.083  1.2110  0.5410 -0.7123
 4846TIP3    H214503   7.031   2.015   0.032  0.7928 -0.0208  0.3648
 4847TIP3   OH214504   2.102   1.135   4.453  0.1017 -0.1717  0.6845
 4847TIP3    H114505   2.033   1.127   4.519 -1.3157 -1.2250 -0.8350
 4847TIP3    H214506   2.086   1.062   4.393  2.5195 -0.3945  0.2153
 4848TIP3   OH214507   2.112   1.969   1.188 -0.0848 -0.6254  0.5175
 4848TIP3    H114508   2.050   2.027   1.143 -1.2676 -2.6393 -0.6247
 4848TIP3    H214509   2.116   2.003   1.277 -0.3443  1.4595 -0.2050
 4849TIP3   OH214510   5.784   5.175   0.188 -0.2195 -0.2630  0.2984
 4849TIP3    H114511   5.824   5.088   0.179  1.2895  0.3352  0.9152
 4849TIP3    H214512   5.737   5.188   0.106 -0.1865 -1.5212  0.0556
 4850TIP3   OH214513   1.511   2.188   1.819 -0.2831 -0.3796 -0.2833
 4850TIP3    H114514   1.565   2.144   1.753  0.8120 -0.1786  0.4638
 4850TIP3    H214515   1.561   2.180   1.900 -0.9686  0.5930  0.2462
 4851TIP3   OH214516   0.781   2.827   2.302 -0.6297  0.3722 -0.3469
 4851TIP3    H114517   0.766   2.869   2.387 -0.0559 -0.1916  0.0368
 4851TIP3    H214518   0.806   2.899   2.244  1.0940  0.4854  0.4946
 4852TIP3   OH214519   0.029   3.111   1.505 -0.3656 -0.4944  0.3280
 4852TIP3    H114520   0.061   3.197   1.531 -0.1371 -0.1752 -0.9452
 4852TIP3    H214521   0.108   3.063   1.481 -0.5754 -0.7296  0.1055
 4853TIP3   OH214522   6.319   0.850   0.812  0.2964  0.9014  0.2586
 4853TIP3    H114523   6.226   0.870   0.801 -0.2692 -1.5805 -0.1249
 4853TIP3    H214524   6.335   0.862   0.906 -0.5845  0.7421  0.4374
 4854TIP3   OH214525   7.010   1.545   2.451  0.3709  0.3194  0.2041
 4854TIP3    H114526   7.048   1.472   2.499  0.5148  0.0309 -0.3375
 4854TIP3    H214527   6.929   1.564   2.497  1.1749  0.9688  1.4009
 4855TIP3   OH214528   3.718   5.969   0.550 -0.2639 -0.3599 -0.1827
 4855TIP3    H114529   3.732   6.049   0.601  0.9616  0.9849 -2.4590
 4855TIP3    H214530   3.679   5.908   0.612  2.4432  0.6471  2.7665
 4856TIP3   OH214531   5.006   3.677   3.740  0.2474 -0.0784 -0.0103
 4856TIP3    H114532   4.942   3.668   3.669  0.2836 -1.3210  0.0892
 4856TIP3    H214533   4.954   3.682   3.820  0.2312  0.5283 -0.0561
 4857TIP3   OH214534   0.715   3.611   2.202  0.4378  0.0338 -0.4672
 4857TIP3    H114535   0.805   3.632   2.177  0.5589 -0.5009 -0.4918
 4857TIP3    H214536   0.692   3.676   2.267  0.8349  0.1883 -0.4790
 4858TIP3   OH214537   5.969   6.558   3.359 -0.3202 -0.3786 -0.2028
 4858TIP3    H114538   5.946   6.651   3.356 -0.7058 -0.4005  1.2727
 4858TIP3    H214539   6.011   6.547   3.444  1.0535 -1.2768 -0.9521
 4859TIP3   OH214540   1.133   3.081   2.963 -0.5954  0.2330  0.7797
 4859TIP3    H114541   1.150   3.083   2.868 -0.8654 -0.2750  0.7210
 4859TIP3    H214542   1.167   2.996   2.992  0.5437  0.8476  1.3453
 4860TIP3   OH214543   2.228   6.331   5.484  0.5145  0.1721  0.3294
 4860TIP3    H114544   2.247   6.368   5.397  0.3491  0.4348  0.4043
 4860TIP3    H214545   2.266   6.243   5.481 -0.0998 -0.0846 -0.2531
 4861TIP3   OH214546   0.868   2.949   0.201 -0.0857 -0.2530  0.2564
 4861TIP3    H114547   0.891   2.966   0.292 -1.4257 -1.2763  0.8265
 4861TIP3    H214548   0.924   2.876   0.175 -2.0073 -2.2516  1.4013
 4862TIP3   OH214549   0.066   5.622   0.092 -0.6072  0.1189  0.1452
 4862TIP3    H114550   0.099   5.540   0.129 -0.7242 -0.9930 -2.0993
 4862TIP3    H214551   0.140   5.682   0.097 -0.4672 -0.1207  1.6451
 4863TIP3   OH214552   3.895   4.978   3.662 -0.3189 -0.0154  0.0292
 4863TIP3    H114553   3.842   4.994   3.584  0.3453  1.5289 -0.1548
 4863TIP3    H214554   3.968   5.040   3.654  1.9053 -2.4274 -0.0658
 4864TIP3   OH214555   2.813   4.878   3.851 -0.0201 -0.0631 -0.0742
 4864TIP3    H114556   2.801   4.972   3.864  0.8514  0.3054 -1.6041
 4864TIP3    H214557   2.846   4.870   3.761  1.5709 -1.6971  0.5824
 4865TIP3   OH214558   4.556   3.204   0.418  0.1697  0.1523 -0.1917
 4865TIP3    H114559   4.509   3.141   0.473  0.4819  1.1632  1.3156
 4865TIP3    H214560   4.641   3.214   0.462  0.6584  0.5637 -1.2113
 4866TIP3   OH214561   0.291   6.376   3.426 -0.2035 -0.1438 -0.0034
 4866TIP3    H114562   0.212   6.429   3.437 -1.1417 -1.3887 -0.5054
 4866TIP3    H214563   0.289   6.348   3.335  0.5371 -0.6312  0.1227
 4867TIP3   OH214564   6.799   1.635   0.422  0.5484  0.2379 -0.0936
 4867TIP3    H114565   6.820   1.668   0.334 -1.4463  0.6625 -0.4616
 4867TIP3    H214566   6.797   1.540   0.412  1.9644  0.1905 -0.0885
 4868TIP3   OH214567   3.692   2.754   1.008  0.0060 -0.1803 -0.5559
 4868TIP3    H114568   3.652   2.812   0.944  1.7221  0.6283 -0.9557
 4868TIP3    H214569   3.751   2.810   1.058 -0.3581 -1.0538  0.9139
 4869TIP3   OH214570   2.703   0.129   2.628  0.1376 -0.7665  0.2262
 4869TIP3    H114571   2.703   0.101   2.537 -0.1956 -1.6732  0.4997
 4869TIP3    H214572   2.719   0.049   2.678  0.2085 -0.2946  0.9701
 4870TIP3   OH214573   3.197   2.183   2.275  0.1738  0.0246  0.4055
 4870TIP3    H114574   3.241   2.164   2.358  1.5897 -0.2448 -0.3692
 4870TIP3    H214575   3.261   2.235   2.226  0.3400 -1.8128 -1.4375
 4871TIP3   OH214576   4.353   5.254   3.957 -0.0512 -0.2255  0.4889
 4871TIP3    H114577   4.273   5.222   3.916  0.2139  1.3943 -1.4404
 4871TIP3    H214578   4.410   5.277   3.884  2.1101 -1.0746  1.8050
 4872TIP3   OH214579   0.939   3.934   1.692  0.4846  0.1456  0.1468
 4872TIP3    H114580   1.003   4.004   1.706  0.0430  0.1086  3.0690
 4872TIP3    H214581   0.877   3.944   1.764 -0.9743 -1.7953 -0.7498
 4873TIP3   OH214582   5.465   6.051   5.474  0.3163  0.0387  0.1315
 4873TIP3    H114583   5.427   5.964   5.462  0.4596 -0.1625  1.0706
 4873TIP3    H214584   5.498   6.051   5.564  0.2343  1.0989  0.1754
 4874TIP3   OH214585   4.046   3.169   2.765 -0.0052  0.1547 -0.1178
 4874TIP3    H114586   4.072   3.104   2.831 -0.5079 -0.8459 -0.8747
 4874TIP3    H214587   4.081   3.252   2.798  1.6727 -0.6744  0.2999
 4875TIP3   OH214588   5.501   3.419   0.852  0.2631 -0.4983  0.1710
 4875TIP3    H114589   5.582   3.470   0.861 -0.1350 -0.2596  3.4506
 4875TIP3    H214590   5.433   3.484   0.836  0.4385 -0.5134 -0.6629
 4876TIP3   OH214591   2.444   3.787   4.425 -0.7038  0.2394  0.0345
 4876TIP3    H114592   2.414   3.704   4.463  1.0835 -0.3800  0.1685
 4876TIP3    H214593   2.457   3.766   4.332 -1.0506  0.6147 -0.1014
 4877TIP3   OH214594   0.419   0.449   5.572 -0.2021  0.2347 -0.0097
 4877TIP3    H114595   0.432   0.373   5.629  1.5884 -0.1180 -0.8231
 4877TIP3    H214596   0.324   0.457   5.563 -0.4279 -1.8687  0.1453
 4878TIP3   OH214597   2.390   2.559   1.632  0.1924 -0.1110  0.0775
 4878TIP3    H114598   2.443   2.479   1.627  1.9171  1.0348 -1.2283
 4878TIP3    H214599   2.427   2.616   1.565 -2.1884  1.1186 -0.2903
 4879TIP3   OH214600   2.092   3.418   5.499  0.3696 -0.6277  0.3457
 4879TIP3    H114601   2.058   3.351   5.440 -1.1969 -0.3967  0.9324
 4879TIP3    H214602   2.020   3.481   5.508  1.7357  1.0483 -0.0427
 4880TIP3   OH214603   2.181   6.048   4.289 -0.1293 -0.0374 -0.2240
 4880TIP3    H114604   2.154   6.046   4.198 -0.1772 -1.3754 -0.1949
 4880TIP3    H214605   2.176   6.140   4.314 -2.0646  0.0977 -0.9799
 4881TIP3   OH214606   4.925   4.436   3.777  0.0769  0.4922 -0.1736
 4881TIP3    H114607   4.921   4.346   3.812 -2.6453  0.6782  0.2468
 4881TIP3    H214608   4.970   4.427   3.693  0.6924 -1.1240  0.2890
 4882TIP3   OH214609   0.792   3.276   3.912  0.2748  0.4067  0.2125
 4882TIP3    H114610   0.806   3.247   4.003  1.7303  0.3811  0.0030
 4882TIP3    H214611   0.718   3.224   3.882  1.5142 -1.6792  0.5276
 4883TIP3   OH214612   0.944   0.084   0.461 -0.2212 -0.4404  0.3682
 4883TIP3    H114613   0.875   0.139   0.424 -0.5089  0.6104  2.2848
 4883TIP3    H214614   0.942   0.003   0.410  0.0628  1.2081 -2.3999
 4884TIP3   OH214615   0.139   5.930   4.907  0.4581 -0.4128  0.2478
 4884TIP3    H114616   0.221   5.918   4.953  0.3224 -1.1417  0.3132
 4884TIP3    H214617   0.074   5.886   4.962 -0.1359  0.9686  0.6773
 4885TIP3   OH214618   0.243   4.690   3.936 -0.1184  0.1271 -0.4876
 4885TIP3    H114619   0.241   4.779   3.972  1.5873  0.4895 -1.2101
 4885TIP3    H214620   0.288   4.699   3.852  1.3093 -1.6096  0.0466
 4886TIP3   OH214621   4.450   4.636   3.646 -0.0733  0.3062 -0.3539
 4886TIP3    H114622   4.520   4.573   3.630  0.0535  0.6332 -1.1573
 4886TIP3    H214623   4.416   4.656   3.559 -2.2070 -1.0036  0.1178
 4887TIP3   OH214624   2.034   5.446   3.775 -0.4872 -0.4352 -0.0050
 4887TIP3    H114625   1.998   5.502   3.706 -1.8075  0.9799  1.7319
 4887TIP3    H214626   1.958   5.402   3.812  0.2183 -1.3006  0.4417
 4888TIP3   OH214627   5.003   3.183   0.928 -0.1360 -0.0905  0.5884
 4888TIP3    H114628   5.068   3.114   0.922 -0.5521 -0.4339 -0.2177
 4888TIP3    H214629   5.021   3.238   0.851 -0.4943  0.0754  0.6228
 4889TIP3   OH214630   5.438   0.641   2.332  0.0204  0.1912 -0.6232
 4889TIP3    H114631   5.503   0.583   2.373 -1.6514  0.0363  2.1135
 4889TIP3    H214632   5.484   0.724   2.320  1.0476 -0.2173  0.2743
 4890TIP3   OH214633   3.417   0.227   3.485 -0.6120  0.1494 -0.6830
 4890TIP3    H114634   3.491   0.256   3.432 -1.4367  0.3035 -1.7828
 4890TIP3    H214635   3.425   0.278   3.566 -0.0005  0.7964 -1.1367
 4891TIP3   OH214636   1.025   4.191   5.253 -0.1547  0.0609  0.0543
 4891TIP3    H114637   1.035   4.132   5.179  1.5190  0.2113  0.1267
 4891TIP3    H214638   0.994   4.135   5.325 -1.0407 -0.2189 -0.5255
 4892TIP3   OH214639   0.992   6.226   1.636 -0.3402  0.4069 -0.6625
 4892TIP3    H114640   1.046   6.299   1.604 -1.1843  0.8850 -1.0224
 4892TIP3    H214641   0.928   6.268   1.694 -0.0154 -0.2230  0.1770
 4893TIP3   OH214642   0.678   6.578   4.366  0.4723 -0.0716 -0.1870
 4893TIP3    H114643   0.709   6.566   4.456  0.1862  0.6002  0.0090
 4893TIP3    H214644   0.656   6.490   4.336 -1.7017 -0.0749  1.2319
 4894TIP3   OH214645   1.974   2.794   0.106  0.3524 -0.0677 -0.0309
 4894TIP3    H114646   1.910   2.740   0.061 -1.5551  2.0015  0.0338
 4894TIP3    H214647   1.924   2.838   0.175  2.7945 -1.7525  3.0825
 4895TIP3   OH214648   1.511   0.515   1.747 -0.0801 -0.3190 -0.1620
 4895TIP3    H114649   1.507   0.465   1.665 -1.9677 -0.7455  0.1297
 4895TIP3    H214650   1.571   0.467   1.802  0.5106 -0.5327 -0.9764
 4896TIP3   OH214651   3.138   3.165   0.518  0.0715 -0.1842  0.4034
 4896TIP3    H114652   3.099   3.252   0.510 -0.0631 -0.2354  0.4885
 4896TIP3    H214653   3.094   3.125   0.593 -0.0186 -0.4024  0.2384
 4897TIP3   OH214654   3.798   3.499   2.223 -0.0744  0.5745  0.2225
 4897TIP3    H114655   3.725   3.553   2.252 -0.4717  0.3582 -0.3501
 4897TIP3    H214656   3.845   3.553   2.159  0.6304  0.9417  1.0281
 4898TIP3   OH214657   4.548   4.969   2.991  0.1761  0.0692 -0.4950
 4898TIP3    H114658   4.558   4.996   2.900 -0.7361  2.0225 -0.0680
 4898TIP3    H214659   4.457   4.988   3.013  0.2134 -0.9341  0.6628
 4899TIP3   OH214660   2.889   5.366   3.859  0.5024  0.3440 -0.1146
 4899TIP3    H114661   2.975   5.325   3.865  0.1803 -0.1645  1.6226
 4899TIP3    H214662   2.908   5.459   3.842  1.4734  0.4705  1.4366
 4900TIP3   OH214663   0.695   1.074   2.454 -0.7766  0.0463 -0.1559
 4900TIP3    H114664   0.726   1.127   2.527 -2.2026  0.3036  0.2801
 4900TIP3    H214665   0.602   1.062   2.470 -1.3527  0.9164 -2.4144
 4901TIP3   OH214666   6.900   5.925   0.327  0.2366  0.3448 -0.0963
 4901TIP3    H114667   6.920   5.999   0.269  0.8076  0.6299  0.4537
 4901TIP3    H214668   6.970   5.862   0.312  0.4072  0.4350  0.3015
 4902TIP3   OH214669   2.089   4.867   5.396  0.2862 -0.2905  0.8707
 4902TIP3    H114670   2.162   4.905   5.348 -0.4426 -2.2301 -2.0177
 4902TIP3    H214671   2.019   4.933   5.390  0.2123 -0.4937 -0.8068
 4903TIP3   OH214672   6.237   4.124   2.438  0.2645  0.3070 -0.2254
 4903TIP3    H114673   6.280   4.064   2.377  0.7404  0.7776 -0.3569
 4903TIP3    H214674   6.146   4.128   2.407  0.6598  1.1174 -1.3835
 4904TIP3   OH214675   2.349   3.384   1.179  0.5630 -0.2107  0.3213
 4904TIP3    H114676   2.270   3.419   1.221  0.7119 -0.8232  1.1276
 4904TIP3    H214677   2.322   3.298   1.146  1.1124 -0.7975  1.3603
 4905TIP3   OH214678   6.078   3.909   5.098 -0.6819  0.0091  0.3716
 4905TIP3    H114679   6.032   3.886   5.179  1.2214 -1.9383  0.9781
 4905TIP3    H214680   6.041   3.851   5.032  1.6945 -2.6311  1.1650
 4906TIP3   OH214681   3.917   3.998   0.597  0.0201  0.0220  0.5177
 4906TIP3    H114682   3.898   3.935   0.528 -0.1202 -0.5795  1.0905
 4906TIP3    H214683   3.948   4.076   0.551 -1.6682  0.2427 -0.3346
 4907TIP3   OH214684   3.672   5.367   2.432 -0.0900 -0.2274 -0.0261
 4907TIP3    H114685   3.751   5.371   2.485  0.0985  1.0498 -0.3782
 4907TIP3    H214686   3.701   5.332   2.348 -0.4901 -2.8263  0.8238
 4908TIP3   OH214687   3.676   6.344   4.798  0.4584  0.5330 -0.2834
 4908TIP3    H114688   3.690   6.253   4.822 -1.0999  0.2977 -0.1453
 4908TIP3    H214689   3.679   6.345   4.702 -1.4274 -0.0530 -0.3859
 4909TIP3   OH214690   4.776   6.060   0.559  0.0810 -0.0108  0.5630
 4909TIP3    H114691   4.751   5.969   0.543 -2.0037  0.6666 -0.3688
 4909TIP3    H214692   4.862   6.054   0.599  1.2385 -2.2993 -1.9129
 4910TIP3   OH214693   0.909   4.021   1.396 -0.1181  0.5263  0.2616
 4910TIP3    H114694   0.893   4.105   1.438  0.3925  0.6052  0.2921
 4910TIP3    H214695   0.929   3.961   1.467 -0.6580  0.3346  0.2562
 4911TIP3   OH214696   5.338   0.355   1.570 -0.1036  0.3963 -0.0723
 4911TIP3    H114697   5.248   0.382   1.549 -0.1744 -0.7803 -1.4215
 4911TIP3    H214698   5.385   0.366   1.487  0.5660 -0.6675  0.1512
 4912TIP3   OH214699   1.599   3.639   4.743  0.4801 -0.2682 -0.6321
 4912TIP3    H114700   1.538   3.598   4.805  0.1225  1.4973  0.2512
 4912TIP3    H214701   1.604   3.577   4.670 -1.4763 -1.0197 -0.1996
 4913TIP3   OH214702   6.525   0.962   4.044 -0.6696  0.5101 -0.1014
 4913TIP3    H114703   6.594   0.953   4.110 -0.8338 -1.5688 -0.1619
 4913TIP3    H214704   6.536   1.051   4.011  1.1587  0.6735  0.7981
 4914TIP3   OH214705   3.881   5.115   1.206  0.1729 -0.2085  0.5759
 4914TIP3    H114706   3.822   5.168   1.260 -0.5976  0.3370 -0.7520
 4914TIP3    H214707   3.945   5.080   1.268 -0.9593 -0.0112  1.9173
 4915TIP3   OH214708   2.137   4.091   1.668  0.0779  0.2083  0.0184
 4915TIP3    H114709   2.205   4.048   1.616 -0.6933 -0.7152 -0.2498
 4915TIP3    H214710   2.059   4.087   1.613 -0.3090  0.8470  0.5100
 4916TIP3   OH214711   2.457   1.133   5.128  0.3538  0.0701 -0.1277
 4916TIP3    H114712   2.375   1.161   5.168  0.3942  1.2032 -0.7920
 4916TIP3    H214713   2.510   1.101   5.201 -0.3206  0.2176  0.4366
 4917TIP3   OH214714   5.251   3.258   3.094  0.4056  0.0272 -0.0156
 4917TIP3    H114715   5.282   3.178   3.051 -1.4100 -0.5133 -0.4293
 4917TIP3    H214716   5.223   3.314   3.021  3.2529  1.8600  0.1280
 4918TIP3   OH214717   0.202   4.747   5.289  0.6210 -0.3466 -0.2702
 4918TIP3    H114718   0.214   4.750   5.384  1.6460  1.9293 -0.4068
 4918TIP3    H214719   0.205   4.838   5.262 -0.3131 -0.9066 -2.4435
 4919TIP3   OH214720   0.954   4.152   3.503  0.2057 -0.2892 -0.3848
 4919TIP3    H114721   0.944   4.204   3.583  0.9253 -0.7248  0.0016
 4919TIP3    H214722   0.936   4.062   3.531  1.6963 -0.6231 -0.4132
 4920TIP3   OH214723   1.524   1.967   4.491 -0.2302  0.4555 -0.2023
 4920TIP3    H114724   1.460   1.897   4.485 -0.1206  0.2730  0.6613
 4920TIP3    H214725   1.593   1.943   4.429 -0.5652  0.2088 -0.4823
 4921TIP3   OH214726   0.609   4.116   3.755  0.2713  0.2361  0.1989
 4921TIP3    H114727   0.610   4.191   3.815  0.9895 -0.5775  1.2371
 4921TIP3    H214728   0.549   4.054   3.795 -1.1784  0.6513 -1.2147
 4922TIP3   OH214729   5.990   0.811   5.712  0.5361  0.9175 -0.0488
 4922TIP3    H114730   5.915   0.776   5.664  1.2442 -0.1305 -0.4280
 4922TIP3    H214731   5.952   0.866   5.780 -0.6047 -0.1430  0.1947
 4923TIP3   OH214732   0.287   5.920   1.658  0.1945  0.0734  0.2369
 4923TIP3    H114733   0.379   5.921   1.685 -0.1588  1.1900  1.5315
 4923TIP3    H214734   0.238   5.909   1.739 -0.8175 -1.0497 -0.5027
 4924TIP3   OH214735   4.536   3.922   0.713 -0.0590 -0.1047  0.3141
 4924TIP3    H114736   4.549   3.893   0.803 -0.4715  0.5145  0.5744
 4924TIP3    H214737   4.554   3.844   0.660  2.1641  0.0066  0.8031
 4925TIP3   OH214738   5.239   3.671   0.556 -0.2672 -0.2072 -0.3669
 4925TIP3    H114739   5.275   3.650   0.469  0.1686 -1.3792  0.0747
 4925TIP3    H214740   5.167   3.609   0.567 -0.6388  0.2721 -0.0901
 4926TIP3   OH214741   4.342   2.450   4.181  0.0398 -0.2602  0.0490
 4926TIP3    H114742   4.359   2.540   4.209  1.1512 -0.8813  1.5248
 4926TIP3    H214743   4.297   2.459   4.097  1.1668  1.6444 -0.4086
 4927TIP3   OH214744   2.990   1.848   2.067  0.3060  0.3060  0.1818
 4927TIP3    H114745   3.070   1.890   2.099 -0.1646  1.4032 -0.0490
 4927TIP3    H214746   2.987   1.871   1.975  0.1193 -0.3868  0.0136
 4928TIP3   OH214747   4.317   0.857   0.609 -0.5450  0.1196  0.1662
 4928TIP3    H114748   4.349   0.925   0.550 -1.6507 -0.1684 -0.7987
 4928TIP3    H214749   4.246   0.900   0.658  0.0266  0.2049  0.9413
 4929TIP3   OH214750   1.841   5.585   2.041 -0.4597  0.1807 -0.7929
 4929TIP3    H114751   1.849   5.680   2.030 -1.8622  0.6409  1.4697
 4929TIP3    H214752   1.779   5.574   2.113 -0.6138 -2.4837 -1.2135
 4930TIP3   OH214753   4.198   0.246   0.484  0.2082  0.5658 -0.3988
 4930TIP3    H114754   4.111   0.282   0.466 -0.0979  0.1167  0.1665
 4930TIP3    H214755   4.218   0.275   0.573  1.1983  1.7470 -0.9672
 4931TIP3   OH214756   5.242   4.150   3.725 -0.1933  0.1674 -0.1515
 4931TIP3    H114757   5.228   4.243   3.741 -0.0208  0.4430 -1.4949
 4931TIP3    H214758   5.319   4.128   3.778  0.1093  0.9265 -0.2553
 4932TIP3   OH214759   3.374   4.736   3.201 -0.2009  0.3669 -0.1898
 4932TIP3    H114760   3.362   4.777   3.116  0.3347  0.1215 -0.3900
 4932TIP3    H214761   3.434   4.794   3.248  0.5897 -0.1811 -0.4878
 4933TIP3   OH214762   6.199   4.136   5.197  0.5395 -0.3733  0.0496
 4933TIP3    H114763   6.114   4.178   5.211  0.8725  0.3343 -0.0525
 4933TIP3    H214764   6.177   4.053   5.153  0.0017  0.6349 -1.7056
 4934TIP3   OH214765   3.722   0.467   1.148  0.3875 -0.5075  0.5614
 4934TIP3    H114766   3.676   0.506   1.222 -1.3356 -1.5197  0.1013
 4934TIP3    H214767   3.814   0.487   1.163 -0.1140  0.9859  1.9369
 4935TIP3   OH214768   0.312   0.332   4.834  0.3094 -0.6942  0.3608
 4935TIP3    H114769   0.316   0.412   4.782 -2.1837 -0.5695  0.2454
 4935TIP3    H214770   0.354   0.266   4.778  0.8072  0.1503 -0.2946
 4936TIP3   OH214771   3.629   3.502   4.064  0.1807  0.5648 -0.8018
 4936TIP3    H114772   3.587   3.555   3.997  0.3730 -0.5922 -1.8629
 4936TIP3    H214773   3.557   3.459   4.109  0.1314 -0.2888 -1.6683
 4937TIP3   OH214774   2.117   1.578   0.083  0.4436 -0.2575  0.4569
 4937TIP3    H114775   2.077   1.517   0.020  0.0186  0.4301  0.0427
 4937TIP3    H214776   2.059   1.654   0.082  1.0572  0.2240  0.8445
 4938TIP3   OH214777   5.528   4.289   2.960 -0.2484 -0.1447 -0.0112
 4938TIP3    H114778   5.523   4.206   3.008 -1.7732  0.1927  0.4646
 4938TIP3    H214779   5.485   4.271   2.877  0.2548 -0.0769 -0.2895
 4939TIP3   OH214780   4.157   2.188   0.521  0.0020  0.3833 -0.7260
 4939TIP3    H114781   4.188   2.263   0.472 -1.1474  0.5490 -1.2424
 4939TIP3    H214782   4.075   2.217   0.561  0.0704 -0.2706 -0.0780
 4940TIP3   OH214783   2.418   1.955   0.806 -0.0472  0.5884  0.7053
 4940TIP3    H114784   2.492   1.894   0.807  1.1877  2.0128  0.0412
 4940TIP3    H214785   2.397   1.969   0.898 -0.4548 -0.9122  0.8745
 4941TIP3   OH214786   4.772   2.463   5.238  0.2996  1.0103  0.4050
 4941TIP3    H114787   4.757   2.442   5.146  1.1592 -0.0497  0.4762
 4941TIP3    H214788   4.867   2.474   5.245  0.3896 -0.0677  1.3574
 4942TIP3   OH214789   6.899   2.119   0.114 -0.2768 -0.4291 -0.0559
 4942TIP3    H114790   6.845   2.056   0.162 -0.9154  0.8372  0.9705
 4942TIP3    H214791   6.891   2.200   0.165  1.4638  0.1744 -0.6784
 4943TIP3   OH214792   5.493   0.781   5.612 -0.4778  0.8668  0.4282
 4943TIP3    H114793   5.476   0.862   5.565 -0.6099  0.3785 -0.3824
 4943TIP3    H214794   5.476   0.712   5.548  1.8573  0.2467  0.3957
 4944TIP3   OH214795   4.385   5.823   4.407 -0.0228 -0.4705 -0.6194
 4944TIP3    H114796   4.421   5.762   4.344 -0.0989 -1.9990  0.7627
 4944TIP3    H214797   4.333   5.884   4.354  1.3751 -0.5722 -2.2015
 4945TIP3   OH214798   6.715   1.211   4.305 -0.0758 -0.5106 -0.5455
 4945TIP3    H114799   6.704   1.116   4.297 -0.9134 -0.5521  0.8302
 4945TIP3    H214800   6.630   1.247   4.281 -0.0498 -0.1606 -0.1152
 4946TIP3   OH214801   2.865   0.365   4.135  0.0802 -0.4565  0.7609
 4946TIP3    H114802   2.951   0.345   4.100  1.0161  1.8535  1.5123
 4946TIP3    H214803   2.838   0.445   4.090  0.7282  1.8528  4.0590
 4947TIP3   OH214804   3.076   4.108   5.443  0.4331 -0.6367 -0.0531
 4947TIP3    H114805   2.986   4.104   5.477 -0.0171  0.0357 -1.1009
 4947TIP3    H214806   3.075   4.049   5.367  0.2477  0.9520 -1.3586
 4948TIP3   OH214807   3.044   0.321   5.535 -0.2060 -0.0088  0.0479
 4948TIP3    H114808   3.098   0.335   5.613  0.1415 -1.6425  0.1356
 4948TIP3    H214809   3.004   0.235   5.548 -0.9307  0.1239 -1.1274
 4949TIP3   OH214810   4.564   1.860   4.566 -0.3494  0.2288 -0.7871
 4949TIP3    H114811   4.496   1.825   4.509 -1.3595  0.8775 -0.0065
 4949TIP3    H214812   4.640   1.871   4.508 -0.6323 -1.2573 -1.4955
 4950TIP3   OH214813   1.404   3.684   1.135  0.2142  0.4435 -0.0065
 4950TIP3    H114814   1.477   3.745   1.144  0.1206  0.4305  0.8490
 4950TIP3    H214815   1.328   3.740   1.117  0.5291  0.4184 -1.5426
 4951TIP3   OH214816   5.575   6.750   2.650 -0.4542 -0.0744  0.1914
 4951TIP3    H114817   5.539   6.803   2.579  1.2927 -0.4578 -1.0587
 4951TIP3    H214818   5.498   6.708   2.690 -1.4729 -0.2620 -1.8204
 4952TIP3   OH214819   5.013   2.032   2.147 -0.0257  0.4843 -0.3412
 4952TIP3    H114820   5.008   2.100   2.214 -0.0384  0.1609 -0.0086
 4952TIP3    H214821   4.998   1.950   2.195 -0.6241  0.2961 -0.8366
 4953TIP3   OH214822   1.319   0.066   5.018  0.1634 -0.0075 -0.2581
 4953TIP3    H114823   1.264   0.144   5.010  1.7072  1.0729 -0.6072
 4953TIP3    H214824   1.263  -0.005   4.987 -0.6122  1.2575 -1.9080
 4954TIP3   OH214825   7.077   3.441   0.141 -0.0503  0.6301 -0.2834
 4954TIP3    H114826   7.109   3.400   0.222  0.3692  1.8899  0.2040
 4954TIP3    H214827   7.122   3.394   0.071 -0.4046 -0.4614  0.1960
 4955TIP3   OH214828   6.304   4.532   4.235 -0.7813 -0.3992  0.0641
 4955TIP3    H114829   6.306   4.628   4.234 -1.3163 -0.3772  0.3944
 4955TIP3    H214830   6.274   4.508   4.148  0.8204 -0.3291 -0.5360
 4956TIP3   OH214831   6.172   3.791   1.733 -0.0098 -0.0366  0.0729
 4956TIP3    H114832   6.258   3.823   1.706  0.2444 -1.2484 -0.6209
 4956TIP3    H214833   6.166   3.814   1.826  0.8607  0.4607  0.0152
 4957TIP3   OH214834   3.411   5.344   3.675  0.4334  0.5190 -0.2852
 4957TIP3    H114835   3.462   5.406   3.726 -0.3561  1.0001 -0.0740
 4957TIP3    H214836   3.334   5.393   3.646 -1.1513 -0.8283  1.4142
 4958TIP3   OH214837   0.210   4.726   4.391 -0.0920  0.1264 -0.1171
 4958TIP3    H114838   0.187   4.633   4.385 -0.8991  0.3191 -0.0356
 4958TIP3    H214839   0.243   4.748   4.303 -0.2286 -0.1474 -0.2386
 4959TIP3   OH214840   2.207   0.746   3.453  0.2554  0.1627 -0.8853
 4959TIP3    H114841   2.162   0.668   3.486  0.0285 -0.4335 -2.5142
 4959TIP3    H214842   2.162   0.767   3.371  0.4170  1.9259 -0.5636
 4960TIP3   OH214843   4.213   6.215   2.063  0.6151  0.7213  0.0315
 4960TIP3    H114844   4.244   6.234   1.974 -1.2005 -1.5443 -1.2218
 4960TIP3    H214845   4.279   6.156   2.099  0.7120  0.5883 -0.3508
 4961TIP3   OH214846   3.123   6.163   2.242 -0.3361 -0.1045 -0.3796
 4961TIP3    H114847   3.048   6.220   2.220 -0.7710 -1.2284 -1.9746
 4961TIP3    H214848   3.088   6.074   2.236  0.5045 -0.6111  1.4316
 4962TIP3   OH214849   0.264   2.343   2.761  0.4960  0.3165 -0.3610
 4962TIP3    H114850   0.318   2.422   2.762  0.6689  0.1976 -0.2069
 4962TIP3    H214851   0.280   2.302   2.846  1.8225 -0.8570 -1.1478
 4963TIP3   OH214852   4.881   1.344   1.668 -0.1036 -0.4110 -0.5739
 4963TIP3    H114853   4.826   1.408   1.623 -1.1058  0.5211  1.8231
 4963TIP3    H214854   4.879   1.267   1.612 -1.8233  0.4532 -1.7727
 4964TIP3   OH214855   3.891   5.684   3.462  0.7997  0.6311 -0.1970
 4964TIP3    H114856   3.922   5.686   3.553  1.5913  0.2446 -0.4561
 4964TIP3    H214857   3.929   5.762   3.422  0.0231  1.0848 -0.0648
 4965TIP3   OH214858   3.770   2.439   5.206  0.4433  0.2259 -0.0305
 4965TIP3    H114859   3.790   2.427   5.299  0.8032 -0.6314 -0.2067
 4965TIP3    H214860   3.781   2.532   5.190 -0.4806  0.5286  0.9873
 4966TIP3   OH214861   0.853   5.826   2.024  0.1948  0.7405 -0.0102
 4966TIP3    H114862   0.814   5.777   1.951  0.5066  0.0826  0.2586
 4966TIP3    H214863   0.820   5.915   2.013 -1.7175  0.1337  0.4150
 4967TIP3   OH214864   1.973   1.196   1.610 -0.0909  0.1469 -0.0716
 4967TIP3    H114865   2.040   1.256   1.642 -0.7081  1.2683 -0.8166
 4967TIP3    H214866   1.895   1.217   1.662 -0.4443  0.3202 -0.6643
 4968TIP3   OH214867   3.350   4.838   4.721 -0.1249 -0.0826 -0.1727
 4968TIP3    H114868   3.321   4.888   4.797  0.9964  1.4135 -0.6723
 4968TIP3    H214869   3.397   4.763   4.758 -0.6073 -0.0095  0.6023
 4969TIP3   OH214870   5.436   0.435   4.928 -0.4736  0.6016  0.1232
 4969TIP3    H114871   5.503   0.472   4.987  0.6123 -0.6076 -0.3025
 4969TIP3    H214872   5.424   0.502   4.861 -0.0271  1.0279  0.4603
 4970TIP3   OH214873   6.344   2.612   0.351 -0.1513 -0.1146  0.3032
 4970TIP3    H114874   6.311   2.529   0.316  0.9235 -0.9732  1.2627
 4970TIP3    H214875   6.432   2.621   0.315 -0.4041  0.8489 -0.1289
 4971TIP3   OH214876   3.536   3.665   3.825  0.5012 -0.2976  0.1301
 4971TIP3    H114877   3.518   3.756   3.803  1.7279  0.2285  1.1683
 4971TIP3    H214878   3.611   3.641   3.770 -0.6299 -1.1386 -1.1177
 4972TIP3   OH214879   3.281   0.710   4.702 -0.0631 -0.7049 -0.5535
 4972TIP3    H114880   3.321   0.715   4.789  1.9598 -0.0388 -1.4615
 4972TIP3    H214881   3.327   0.638   4.659 -0.4884 -0.5122 -1.3448
 4973TIP3   OH214882   5.975   5.720   1.032 -0.1914 -0.3011  0.5843
 4973TIP3    H114883   5.930   5.636   1.030 -0.4625 -0.1691 -1.1151
 4973TIP3    H214884   5.919   5.777   1.084 -0.8486 -0.7451  0.3760
 4974TIP3   OH214885   6.735   3.932   4.417 -0.0080 -0.4365  0.7085
 4974TIP3    H114886   6.707   3.904   4.504 -0.9784  0.1016  0.5866
 4974TIP3    H214887   6.691   4.016   4.404 -0.8798 -1.0918 -0.7888
 4975TIP3   OH214888   1.064   3.521   4.592  0.0678  0.4617 -0.3157
 4975TIP3    H114889   1.124   3.500   4.519 -0.3562 -2.4009  0.0438
 4975TIP3    H214890   1.120   3.518   4.670  0.0989  1.3328 -0.2967
 4976TIP3   OH214891   1.555   4.113   3.249  0.3178  0.2931  0.3447
 4976TIP3    H114892   1.643   4.149   3.258 -0.0391  1.2640  0.0383
 4976TIP3    H214893   1.509   4.142   3.328 -0.6802  2.6443 -0.9983
 4977TIP3   OH214894   5.603   3.182   2.058 -0.4208 -0.0847  0.1575
 4977TIP3    H114895   5.548   3.237   2.114 -0.0905  0.7275 -0.3085
 4977TIP3    H214896   5.562   3.185   1.972  0.7425  1.1637 -0.3929
 4978TIP3   OH214897   2.952   3.645   2.915  0.0098  0.8503 -0.2798
 4978TIP3    H114898   2.877   3.703   2.903  0.4761  1.4017 -0.5585
 4978TIP3    H214899   2.925   3.563   2.872 -0.6637  0.8351  0.1547
 4979TIP3   OH214900   6.045   0.491   0.266  0.2873 -0.0259  0.6179
 4979TIP3    H114901   6.043   0.535   0.181  0.0343 -0.0138  0.6284
 4979TIP3    H214902   5.954   0.470   0.284  0.1298  1.2760  1.5570
 4980TIP3   OH214903   7.139  -0.007   0.992  0.1556 -0.5818  0.6107
 4980TIP3    H114904   7.066   0.055   0.988  1.4193  0.9059 -2.6212
 4980TIP3    H214905   7.210   0.043   1.033  0.5013 -0.6574  0.1060
 4981TIP3   OH214906   3.053   5.889   2.276 -0.7377  0.2371 -0.4259
 4981TIP3    H114907   2.967   5.860   2.244 -0.6457  0.9284 -1.3598
 4981TIP3    H214908   3.115   5.828   2.238 -0.7632  0.1141 -0.2697
 4982TIP3   OH214909   6.770   1.861   0.055  0.4425  0.0557  0.6197
 4982TIP3    H114910   6.703   1.898  -0.002  0.1371  0.6523  1.3432
 4982TIP3    H214911   6.723   1.795   0.107  0.7480 -0.5878  0.0919
 4983TIP3   OH214912   3.889   4.722   4.296 -0.1887 -0.3411  0.3045
 4983TIP3    H114913   3.832   4.687   4.364  1.1859 -2.7546  0.3315
 4983TIP3    H214914   3.967   4.750   4.343 -0.7631  1.7397  0.1179
 4984TIP3   OH214915   2.035   6.356   3.271 -0.2679  0.6373  0.2379
 4984TIP3    H114916   2.109   6.411   3.294 -0.9298  1.3449  0.7080
 4984TIP3    H214917   2.007   6.317   3.354  0.5393 -0.8809 -0.1572
 4985TIP3   OH214918   5.662   2.757   5.755 -0.1964  0.0396 -0.2312
 4985TIP3    H114919   5.694   2.667   5.762 -0.9814 -0.2307  0.0129
 4985TIP3    H214920   5.572   2.748   5.723  0.3573  0.8453 -2.1210
 4986TIP3   OH214921   1.585   1.081   0.978 -0.5722  0.4400 -0.2431
 4986TIP3    H114922   1.532   1.033   1.042 -1.2399  0.9503 -0.4059
 4986TIP3    H214923   1.635   1.143   1.031 -0.5739  0.3575 -0.1446
 4987TIP3   OH214924   6.545   6.467   0.198  0.2905  0.3095 -0.0118
 4987TIP3    H114925   6.558   6.557   0.168  0.2846  0.4541  0.4058
 4987TIP3    H214926   6.458   6.443   0.166  1.2384 -0.4213 -2.2353
 4988TIP3   OH214927   5.349   2.732   5.695  0.7877 -0.4234  0.1483
 4988TIP3    H114928   5.374   2.821   5.722 -0.5852  0.3791 -1.0614
 4988TIP3    H214929   5.325   2.688   5.776  0.0882  0.7944  0.6305
 4989TIP3   OH214930   5.044   5.362   2.010  0.0009  0.0688  0.2465
 4989TIP3    H114931   4.975   5.423   2.034  1.7372  1.7726  1.2121
 4989TIP3    H214932   5.082   5.334   2.093  0.4705 -0.8785 -0.2597
 4990TIP3   OH214933   0.672   1.349   4.003  0.2736  0.1023  0.2990
 4990TIP3    H114934   0.727   1.367   3.927 -0.0734 -1.0146 -0.2372
 4990TIP3    H214935   0.685   1.425   4.060 -0.3921  1.5511 -1.3814
 4991TIP3   OH214936   5.845   3.838   1.685  0.2036 -0.5309  0.2289
 4991TIP3    H114937   5.901   3.844   1.607 -0.7304  0.3097 -0.4063
 4991TIP3    H214938   5.861   3.919   1.733  0.5402 -0.9046  0.7566
 4992TIP3   OH214939   2.979   5.716   0.172  0.1488  0.1821 -0.0581
 4992TIP3    H114940   2.894   5.672   0.172  0.0273  0.4135  0.7414
 4992TIP3    H214941   3.042   5.647   0.192  0.3699 -0.3656 -2.3866
 4993TIP3   OH214942   3.198   3.041   4.792 -0.3932 -1.2107 -0.3469
 4993TIP3    H114943   3.256   3.016   4.865 -0.7964 -3.3743 -0.7012
 4993TIP3    H214944   3.255   3.040   4.715 -0.2032  0.0139 -0.2418
 4994TIP3   OH214945   7.200   0.517   2.148 -0.1843  0.1735 -0.0723
 4994TIP3    H114946   7.149   0.452   2.100  1.1061 -1.6811  0.9190
 4994TIP3    H214947   7.267   0.545   2.086 -0.2800 -0.0140 -0.2635
 4995TIP3   OH214948   3.428   3.119   4.666  0.0500  0.5690 -0.2013
 4995TIP3    H114949   3.389   3.206   4.665  0.4091  0.8113  1.8158
 4995TIP3    H214950   3.505   3.128   4.723  1.3412 -0.5829 -1.6858
 4996TIP3   OH214951   5.430   2.158   1.374 -0.3583 -0.6196  0.0532
 4996TIP3    H114952   5.502   2.172   1.436  1.5999 -1.5505 -1.8708
 4996TIP3    H214953   5.403   2.068   1.388 -3.2525  0.4803  2.7133
 4997TIP3   OH214954   7.097   0.776   1.788 -0.3840  0.2690  0.5443
 4997TIP3    H114955   7.034   0.848   1.791  1.3038  1.7471  1.9812
 4997TIP3    H214956   7.138   0.776   1.874  1.6314 -0.6192 -0.3639
 4998TIP3   OH214957   4.538   1.516   3.050 -0.3841 -0.3812 -0.5703
 4998TIP3    H114958   4.595   1.439   3.045 -0.8138 -0.6836 -0.7788
 4998TIP3    H214959   4.544   1.556   2.963  1.2516  0.8403  0.0532
 4999TIP3   OH214960   3.818   6.277   2.236  0.0654 -0.2621 -0.4377
 4999TIP3    H114961   3.911   6.255   2.229 -0.1264 -1.0993 -0.4911
 4999TIP3    H214962   3.817   6.372   2.246  1.0137 -0.4058  1.3896
 5000TIP3   OH214963   2.812   5.336   5.555  0.5848 -0.2296  0.0596
 5000TIP3    H114964   2.847   5.323   5.467  1.4783  0.4032  0.3048
 5000TIP3    H214965   2.802   5.431   5.563  2.0464 -0.1364  1.1986
 5001TIP3   OH214966   2.699   1.019   2.035 -0.0656  0.4850 -0.3416
 5001TIP3    H114967   2.764   0.990   1.971 -1.4960 -1.8511 -0.8647
 5001TIP3    H214968   2.749   1.067   2.101  2.3381 -1.8591 -0.3034
 5002TIP3   OH214969   2.321   3.831   0.293  0.1132 -0.1460 -0.0997
 5002TIP3    H114970   2.260   3.876   0.235 -0.8865  0.2979  1.2355
 5002TIP3    H214971   2.329   3.889   0.369  1.5040 -0.6305  0.1609
 5003TIP3   OH214972   6.602   1.949   0.332 -0.1591  0.5449  0.4591
 5003TIP3    H114973   6.567   2.027   0.373 -0.4845  0.0551  1.1295
 5003TIP3    H214974   6.696   1.952   0.351 -0.3491  0.1643  1.5338
 5004TIP3   OH214975   0.120   4.314   4.562  0.7440  0.0905  0.3889
 5004TIP3    H114976   0.093   4.224   4.542  1.1542 -0.0040  0.2620
 5004TIP3    H214977   0.058   4.369   4.513 -0.6165 -0.0825  1.8160
 5005TIP3   OH214978   4.861   4.784   4.118 -0.2994 -0.0649 -0.2172
 5005TIP3    H114979   4.802   4.841   4.068 -0.2915  0.6394  0.5540
 5005TIP3    H214980   4.846   4.697   4.082 -1.1077  0.2537 -0.6914
 5006TIP3   OH214981   2.773   4.134   5.832 -0.3038  0.1524  0.5118
 5006TIP3    H114982   2.757   4.226   5.852 -2.5770 -0.4442  1.8709
 5006TIP3    H214983   2.823   4.101   5.907 -0.6175  0.0219  0.6689
 5007TIP3   OH214984   5.078   4.671   5.561  0.2895 -0.3222  0.2505
 5007TIP3    H114985   4.985   4.693   5.566  0.5936  0.8192  1.2194
 5007TIP3    H214986   5.087   4.594   5.617 -0.4645 -1.9387 -1.7429
 5008TIP3   OH214987   5.311   1.805   3.260  0.1598 -0.7965 -0.6288
 5008TIP3    H114988   5.256   1.745   3.311  1.0709 -0.2055  1.1398
 5008TIP3    H214989   5.325   1.760   3.177 -4.2467 -0.3076 -1.8858
 5009TIP3   OH214990   1.001   1.476   3.703  0.2521 -0.0218  0.1673
 5009TIP3    H114991   0.983   1.541   3.771 -0.5389  1.0935 -1.0406
 5009TIP3    H214992   0.925   1.418   3.705  1.0498 -1.0766  1.3793
 5010TIP3   OH214993   1.647   1.183   2.234  0.5125 -0.6034  0.0643
 5010TIP3    H114994   1.632   1.132   2.313  0.0918  0.1047  0.4529
 5010TIP3    H214995   1.562   1.224   2.215  0.5123 -1.0344 -0.9506
 5011TIP3   OH214996   6.816   2.024   1.319 -0.4107 -0.8439 -0.4430
 5011TIP3    H114997   6.785   1.993   1.234 -0.1863 -0.5589 -0.6341
 5011TIP3    H214998   6.870   1.953   1.353  0.7037 -0.3951 -1.2067
 5012TIP3   OH214999   0.576   3.856   5.322  0.0104 -0.5603  0.2323
 5012TIP3    H115000   0.481   3.850   5.335 -0.1625  1.0676 -0.0551
 5012TIP3    H215001   0.613   3.819   5.402 -0.9143  0.2058  1.0586
 5013TIP3   OH215002   4.822   0.513   5.815 -0.3314  0.7206 -0.2113
 5013TIP3    H115003   4.734   0.486   5.842  1.0806 -3.1602  1.1616
 5013TIP3    H215004   4.880   0.448   5.855  3.4052  4.0772  0.4404
 5014TIP3   OH215005   2.751   6.784   2.587 -0.1966  0.1725 -0.3975
 5014TIP3    H115006   2.691   6.747   2.522  1.3059 -0.4530 -1.4786
 5014TIP3    H215007   2.827   6.727   2.585  1.1152  1.8398 -0.2110
 5015TIP3   OH215008   0.618   4.750   0.408 -0.3942  0.1827  0.0424
 5015TIP3    H115009   0.677   4.801   0.352 -0.1089  0.5923  0.6918
 5015TIP3    H215010   0.674   4.722   0.481 -0.6133 -0.8590 -0.1857
 5016TIP3   OH215011   2.924   3.455   2.215 -0.4177  0.1558 -0.0943
 5016TIP3    H115012   2.971   3.496   2.288 -0.3395 -0.8875  0.4547
 5016TIP3    H215013   2.957   3.500   2.137 -0.9524  1.7236  0.5353
 5017TIP3   OH215014   6.103   4.004   2.116 -0.1375 -0.4074  0.0911
 5017TIP3    H115015   6.034   4.064   2.089 -2.1764 -0.1672  4.8916
 5017TIP3    H215016   6.083   3.922   2.070 -1.9969  0.4270 -0.7000
 5018TIP3   OH215017   5.581   4.362   3.943  0.5684 -0.1697  0.5841
 5018TIP3    H115018   5.621   4.367   4.030 -0.4126 -1.2267  1.1346
 5018TIP3    H215019   5.634   4.297   3.897 -0.7762 -2.0445  1.5237
 5019TIP3   OH215020   1.237   1.302   5.817  0.2521  0.6177 -0.0885
 5019TIP3    H115021   1.192   1.319   5.734 -1.0512  0.6088  0.5865
 5019TIP3    H215022   1.247   1.207   5.821  0.1971  0.6084 -0.1807
 5020TIP3   OH215023   6.473   2.983   1.954  0.1095  0.0765 -0.2914
 5020TIP3    H115024   6.471   3.079   1.953 -0.2982  0.0708 -0.0743
 5020TIP3    H215025   6.402   2.957   1.896 -0.1013 -0.0948  0.0406
 5021TIP3   OH215026   6.662   5.499   4.584 -0.4422  0.0216  0.4368
 5021TIP3    H115027   6.602   5.447   4.530  0.6458 -0.6242 -0.1893
 5021TIP3    H215028   6.609   5.527   4.658 -1.0900 -1.9509  0.7745
 5022TIP3   OH215029   6.837   1.821   3.053  0.5686 -0.4599 -0.5241
 5022TIP3    H115030   6.756   1.871   3.059  2.0351  1.9420  0.7150
 5022TIP3    H215031   6.844   1.775   3.136  1.1459  0.4773 -0.0433
 5023TIP3   OH215032   5.793   6.267   3.582 -0.1092 -0.3980  0.2434
 5023TIP3    H115033   5.777   6.226   3.668  0.2342 -1.0730 -0.0106
 5023TIP3    H215034   5.772   6.360   3.596 -1.5456 -0.7580  0.6543
 5024TIP3   OH215035   3.523   5.817   0.693  0.8249  0.1425 -0.3891
 5024TIP3    H115036   3.459   5.888   0.703  1.1697  0.5005 -0.7151
 5024TIP3    H215037   3.470   5.737   0.691  0.5687  0.0168  3.4191
 5025TIP3   OH215038   5.096   4.374   0.749  0.4612 -0.0239 -0.4410
 5025TIP3    H115039   5.002   4.360   0.764  0.4906  0.0579 -0.1787
 5025TIP3    H215040   5.110   4.465   0.773 -0.1258  1.1858 -4.0474
 5026TIP3   OH215041   2.991   3.484   4.985 -0.0104  0.8554 -0.2694
 5026TIP3    H115042   3.063   3.455   4.928  0.5400 -0.2103  0.9110
 5026TIP3    H215043   2.912   3.458   4.939  0.4415 -1.0507 -0.0792
 5027TIP3   OH215044   4.712   1.669   0.226 -0.7234  0.4183 -0.0940
 5027TIP3    H115045   4.653   1.722   0.172 -0.8203  0.4283  0.0211
 5027TIP3    H215046   4.766   1.622   0.162 -0.8856  0.3745 -0.2021
 5028TIP3   OH215047   0.464   6.060   0.777 -0.0997 -0.3883  0.2352
 5028TIP3    H115048   0.382   6.106   0.796  1.4100  1.5062  2.8401
 5028TIP3    H215049   0.496   6.101   0.697 -0.0426  1.3958  1.1193
 5029TIP3   OH215050   6.853   1.835   5.208 -0.5175  0.6219 -0.2958
 5029TIP3    H115051   6.869   1.759   5.151  1.2471  0.9157 -0.2696
 5029TIP3    H215052   6.876   1.910   5.154  0.9428  0.9197  0.6797
 5030TIP3   OH215053   6.618   4.570   1.022  0.4031 -0.6417 -0.0406
 5030TIP3    H115054   6.595   4.538   1.109 -1.2452 -1.1629 -0.6321
 5030TIP3    H215055   6.633   4.664   1.034  0.7326 -0.7983  0.8839
 5031TIP3   OH215056   4.589   5.206   4.645 -0.1277  0.7771 -0.0906
 5031TIP3    H115057   4.672   5.221   4.692  0.0602  0.6273 -0.3691
 5031TIP3    H215058   4.539   5.286   4.659  0.2690  1.0759 -0.3334
 5032TIP3   OH215059   5.517   2.914   3.605  0.2974  0.0651 -0.1665
 5032TIP3    H115060   5.546   2.864   3.529  0.9204 -0.1756  0.2226
 5032TIP3    H215061   5.545   3.004   3.587  1.3680 -0.1694  0.2223
 5033TIP3   OH215062   3.702   5.133   5.522 -0.3807 -0.0526  0.2953
 5033TIP3    H115063   3.614   5.139   5.483  0.6359  0.0782 -2.1315
 5033TIP3    H215064   3.761   5.151   5.450  1.6938 -0.4724  1.8158
 5034TIP3   OH215065   5.240   3.508   4.739  0.1175  0.4321  0.2813
 5034TIP3    H115066   5.173   3.572   4.714  0.1317 -0.1847 -1.4691
 5034TIP3    H215067   5.315   3.528   4.683  0.5599 -0.3469  0.5815
 5035TIP3   OH215068   4.255   1.944   0.414 -0.8035 -0.4174  0.5225
 5035TIP3    H115069   4.193   1.996   0.465  0.5096  0.6151  1.1437
 5035TIP3    H215070   4.219   1.856   0.415 -1.8725  0.0066  1.4981
 5036TIP3   OH215071   5.184   5.845   5.641  0.1812 -0.3326 -0.0778
 5036TIP3    H115072   5.252   5.783   5.616 -0.6955 -0.4640 -2.4062
 5036TIP3    H215073   5.194   5.855   5.736  3.0282 -0.7654 -0.2408
 5037TIP3   OH215074   3.193   2.106   5.907 -0.2468 -0.3131  0.0694
 5037TIP3    H115075   3.115   2.050   5.911 -0.7092  0.2458 -0.7911
 5037TIP3    H215076   3.216   2.109   5.814  0.8357 -0.5047  0.3219
 5038TIP3   OH215077   6.419   2.197   4.825  0.3867  0.2268 -0.3801
 5038TIP3    H115078   6.494   2.158   4.870  0.3783  0.5556 -0.0689
 5038TIP3    H215079   6.402   2.139   4.751 -0.4195 -1.0889  0.7718
 5039TIP3   OH215080   3.274   1.135   2.297 -0.9663 -0.0198 -0.6491
 5039TIP3    H115081   3.201   1.160   2.354 -0.5359 -1.5158  0.6258
 5039TIP3    H215082   3.267   1.040   2.290  1.4021 -0.3249  0.3091
 5040TIP3   OH215083   6.288   6.116   4.443 -0.3724  0.3339 -0.4309
 5040TIP3    H115084   6.365   6.167   4.467  0.5915 -1.4202  0.4173
 5040TIP3    H215085   6.323   6.034   4.407 -1.8216 -0.4770 -0.0815
 5041TIP3   OH215086   3.687   5.949   2.070 -0.1643  0.2569  0.5074
 5041TIP3    H115087   3.619   5.886   2.045  1.3082 -0.8669 -0.8514
 5041TIP3    H215088   3.718   5.985   1.987  0.8578  0.7827  1.0982
 5042TIP3   OH215089   1.368   3.356   4.609  0.0874 -0.0202 -0.5602
 5042TIP3    H115090   1.347   3.263   4.617  0.2252  0.0168  0.4411
 5042TIP3    H215091   1.352   3.377   4.517 -0.1722 -0.9752 -0.7441
 5043TIP3   OH215092   1.498   0.378   0.237 -0.2376 -0.2330 -0.0121
 5043TIP3    H115093   1.440   0.445   0.202 -1.3245 -1.4190 -0.5890
 5043TIP3    H215094   1.449   0.296   0.228  1.8154 -1.4251 -1.2512
 5044TIP3   OH215095   5.425   1.060   3.287 -0.3723  0.0027  0.2191
 5044TIP3    H115096   5.514   1.081   3.315 -0.4823 -0.3199  0.8249
 5044TIP3    H215097   5.374   1.137   3.310 -0.3094  0.0597  0.1679
 5045TIP3   OH215098   2.397   4.950   5.654  0.5217  0.1996  0.3344
 5045TIP3    H115099   2.423   5.042   5.651  0.2094  0.3019  0.6306
 5045TIP3    H215100   2.329   4.946   5.722 -0.3072 -0.0374 -0.4754
 5046TIP3   OH215101   6.999   2.885   2.091  0.0628 -0.5513  0.0459
 5046TIP3    H115102   7.038   2.962   2.133 -0.3780 -0.0649 -0.4155
 5046TIP3    H215103   6.941   2.921   2.024  0.7618 -1.3106 -1.0009
 5047TIP3   OH215104   3.513   5.039   1.281 -0.4249  0.2488  0.1313
 5047TIP3    H115105   3.539   4.949   1.262 -0.5395  0.3704 -0.6488
 5047TIP3    H215106   3.444   5.058   1.217 -1.4439  0.4065  1.2363
 5048TIP3   OH215107   2.282   3.532   3.976  0.0473  0.0951  0.0481
 5048TIP3    H115108   2.244   3.449   4.003 -1.6506  0.2929 -1.5736
 5048TIP3    H215109   2.372   3.510   3.950 -0.1517 -1.0891  0.3311
 5049TIP3   OH215110   4.676   4.537   0.696  0.1063  0.2749 -0.2439
 5049TIP3    H115111   4.670   4.545   0.601 -1.2870 -1.5336 -0.3522
 5049TIP3    H215112   4.770   4.540   0.714  0.5639 -1.6369 -1.9370
 5050TIP3   OH215113   6.943   4.086   5.041  0.5572 -0.1339 -0.1427
 5050TIP3    H115114   7.036   4.062   5.038  0.7894  0.7269 -0.1842
 5050TIP3    H215115   6.934   4.137   5.122 -0.4604 -2.4326  1.2937
 5051TIP3   OH215116   6.034   3.613   1.591  0.5478  0.4479 -0.0334
 5051TIP3    H115117   6.060   3.692   1.638 -2.5583  2.0333 -0.7055
 5051TIP3    H215118   5.952   3.587   1.633  0.2552 -0.9976 -1.4207
 5052TIP3   OH215119   6.293   2.104   2.460  0.4652  0.3117  0.0358
 5052TIP3    H115120   6.273   2.174   2.398  1.6182  0.8664  0.2709
 5052TIP3    H215121   6.211   2.090   2.508  0.6035  2.6481  1.1158
 5053TIP3   OH215122   4.640   5.854   2.212  0.5614 -0.2336  0.1065
 5053TIP3    H115123   4.665   5.892   2.128 -1.3446  0.6144 -0.1494
 5053TIP3    H215124   4.716   5.867   2.269  1.1704  1.0025 -0.9364
 5054TIP3   OH215125   5.144   5.131   5.118 -0.0305  0.3549 -0.2805
 5054TIP3    H115126   5.186   5.180   5.189  0.9880 -0.8907  0.0117
 5054TIP3    H215127   5.119   5.198   5.055 -0.3809  1.4329  0.9500
 5055TIP3   OH215128   0.320   4.703   2.453 -0.2897  0.4951  0.3778
 5055TIP3    H115129   0.226   4.687   2.452 -0.2484  0.2415 -0.3711
 5055TIP3    H215130   0.357   4.634   2.398  0.5725 -0.6911  2.3658
 5056TIP3   OH215131   0.849   6.458   1.744  0.0158 -0.3956  0.4882
 5056TIP3    H115132   0.789   6.494   1.679  1.3306  0.0803 -0.5030
 5056TIP3    H215133   0.901   6.532   1.772 -0.4365 -0.6202  2.0320
 5057TIP3   OH215134   1.455   1.701   4.849 -0.6887  0.1219  0.4079
 5057TIP3    H115135   1.521   1.652   4.898 -0.3829 -1.6910 -1.6131
 5057TIP3    H215136   1.384   1.638   4.837 -1.3558  0.9831 -0.2198
 5058TIP3   OH215137   1.816   0.981   3.929 -0.2797  0.3127 -0.3133
 5058TIP3    H115138   1.863   1.053   3.972  0.3132  0.7765 -1.6743
 5058TIP3    H215139   1.883   0.935   3.879 -0.6854 -1.1086  0.3853
 5059TIP3   OH215140   5.617   2.464   0.643  0.3440  0.2853 -0.1156
 5059TIP3    H115141   5.663   2.411   0.708 -0.8031  0.4402  0.8589
 5059TIP3    H215142   5.526   2.464   0.672  0.3718  3.3760  0.3402
 5060TIP3   OH215143   5.755   1.207   1.662 -0.7792 -0.2805 -0.1876
 5060TIP3    H115144   5.700   1.261   1.605  2.1518  1.1197 -1.9203
 5060TIP3    H215145   5.842   1.212   1.623  1.4967  0.6782  4.3033
 5061TIP3   OH215146   5.386   6.456   5.844 -0.4990 -0.3332  0.1631
 5061TIP3    H115147   5.424   6.541   5.822 -0.1081 -0.6436 -0.3960
 5061TIP3    H215148   5.296   6.476   5.870 -0.1555  0.3402  0.8622
 5062TIP3   OH215149   6.251   5.504   5.711 -0.4517 -0.5546 -0.1216
 5062TIP3    H115150   6.275   5.555   5.788 -0.5825 -0.9666  0.1947
 5062TIP3    H215151   6.157   5.517   5.702 -0.7492 -1.8926  0.8212
 5063TIP3   OH215152   6.665   1.040   0.586  0.5514  0.1603 -0.3553
 5063TIP3    H115153   6.733   1.024   0.520  1.3775  1.3262  0.1721
 5063TIP3    H215154   6.685   0.979   0.657  0.9146  0.3394 -0.3019
 5064TIP3   OH215155   7.005   0.104   2.972 -0.1764  0.2198 -0.2669
 5064TIP3    H115156   7.034   0.049   3.044 -0.7972  0.2533  0.0160
 5064TIP3    H215157   7.085   0.123   2.922  0.1469 -0.3621  0.0210
 5065TIP3   OH215158   3.068   0.777   4.113  0.1284 -0.2438 -0.4296
 5065TIP3    H115159   3.106   0.841   4.054 -1.0674  0.0562 -0.9090
 5065TIP3    H215160   2.981   0.812   4.134  0.5946 -0.2352  1.6975
 5066TIP3   OH215161   4.371   1.110   0.070  0.1335 -0.2258  0.8844
 5066TIP3    H115162   4.383   1.146  -0.018  1.6032  1.3360  1.6512
 5066TIP3    H215163   4.399   1.019   0.063  0.3991 -0.0720 -0.2273
 5067TIP3   OH215164   1.650   5.087   1.774 -0.0146  0.2047  0.6216
 5067TIP3    H115165   1.732   5.101   1.822  0.1639 -1.8163  0.9838
 5067TIP3    H215166   1.664   5.130   1.690  1.1239  0.5460  0.9650
 5068TIP3   OH215167   4.122   3.735   0.588 -0.2000  0.0412 -0.2020
 5068TIP3    H115168   4.175   3.805   0.625  0.7436 -0.1964 -1.0746
 5068TIP3    H215169   4.176   3.698   0.518 -1.3304 -0.5099 -0.8089
 5069TIP3   OH215170   0.791   1.247   4.590  0.7271  0.1529 -0.0154
 5069TIP3    H115171   0.737   1.323   4.569  1.0945  0.9124  1.6526
 5069TIP3    H215172   0.869   1.283   4.631  0.2296 -1.1663  2.2467
 5070TIP3   OH215173   0.635   0.603   4.919 -0.1212 -0.2762 -0.2279
 5070TIP3    H115174   0.625   0.529   4.860 -2.7060  0.6907 -1.1120
 5070TIP3    H215175   0.546   0.627   4.945  0.5666  2.6284 -0.1230
 5071TIP3   OH215176   3.848   2.286   0.095  0.1911  0.6953  0.7326
 5071TIP3    H115177   3.810   2.203   0.124  0.7892 -0.1202 -0.6986
 5071TIP3    H215178   3.932   2.292   0.141  1.7628 -1.2494 -1.6052
 5072TIP3   OH215179   0.039   4.145   3.384 -0.8536  0.5333  0.5087
 5072TIP3    H115180   0.054   4.140   3.479 -2.6673  2.9339  1.0056
 5072TIP3    H215181  -0.040   4.092   3.370  0.1733 -0.9353  0.0723
 5073TIP3   OH215182   4.393   1.481   4.886 -0.4441  0.7773 -0.2861
 5073TIP3    H115183   4.426   1.521   4.966 -2.3309  0.1487  0.8813
 5073TIP3    H215184   4.317   1.535   4.862 -2.0255 -1.0161  0.3833
 5074TIP3   OH215185   5.348   1.345   2.539 -0.3798  0.4246  0.5510
 5074TIP3    H115186   5.312   1.426   2.502 -1.3780  0.3168  1.2425
 5074TIP3    H215187   5.432   1.334   2.495  0.1615  2.2798  1.0168
 5075TIP3   OH215188   3.499   5.998   4.487 -0.3325 -0.0801  0.0189
 5075TIP3    H115189   3.405   5.997   4.503 -0.6660  0.4552 -1.7673
 5075TIP3    H215190   3.511   5.946   4.408  1.1321 -1.8270  1.3041
 5076TIP3   OH215191   4.087   4.363   2.593 -0.0266  0.0273  0.1799
 5076TIP3    H115192   4.062   4.399   2.508 -0.8317  0.3028  0.5244
 5076TIP3    H215193   4.059   4.271   2.589  1.4457 -0.4121 -0.4603
 5077TIP3   OH215194   0.919   3.449   1.782  0.1035  0.3603  0.3767
 5077TIP3    H115195   0.897   3.512   1.713  0.2625 -1.0818 -1.0421
 5077TIP3    H215196   0.998   3.406   1.751 -0.7991 -1.5640  0.5879
 5078TIP3   OH215197   5.878   4.847   5.472  0.5471 -0.2611 -0.6238
 5078TIP3    H115198   5.822   4.876   5.543 -0.6632  0.4340 -1.8145
 5078TIP3    H215199   5.862   4.910   5.402  2.5744 -0.2309 -1.1326
 5079TIP3   OH215200   4.848   0.773   1.983 -0.0940  0.2551 -0.1306
 5079TIP3    H115201   4.863   0.867   1.991  0.3404  0.0618  2.4211
 5079TIP3    H215202   4.906   0.744   1.913  0.0159  1.8407 -0.7133
 5080TIP3   OH215203   4.248   1.321   1.544  0.3295  0.3327  0.2417
 5080TIP3    H115204   4.242   1.233   1.506  0.2403  0.4840 -0.0952
 5080TIP3    H215205   4.199   1.377   1.484  0.4448  0.6270  0.4188
 5081TIP3   OH215206   6.476   6.142   1.870  0.0259  0.0538 -0.4838
 5081TIP3    H115207   6.534   6.208   1.909 -2.9222  1.5376  1.7611
 5081TIP3    H215208   6.473   6.072   1.935  0.5378 -0.8399 -1.3782
 5082TIP3   OH215209   5.718   1.103   2.529  0.2607  0.2006 -0.3056
 5082TIP3    H115210   5.781   1.174   2.516  0.3447  0.0655 -0.6398
 5082TIP3    H215211   5.766   1.023   2.509 -0.3734  0.1869 -1.8859
 5083TIP3   OH215212   0.659   0.689   3.423 -0.0225 -0.1516  0.6332
 5083TIP3    H115213   0.666   0.594   3.424  0.6866 -0.1365 -0.8866
 5083TIP3    H215214   0.569   0.706   3.394  0.3904 -0.3809 -0.8537
 5084TIP3   OH215215   1.616   5.805   4.370  0.1892  0.1658 -0.3500
 5084TIP3    H115216   1.694   5.829   4.321  0.7576  0.0178  0.4499
 5084TIP3    H215217   1.558   5.765   4.306  0.7540  0.3100 -0.9613
 5085TIP3   OH215218   6.747   6.076   2.775  0.1943 -0.1385  0.1322
 5085TIP3    H115219   6.689   6.049   2.704  0.0739 -0.5075  0.3713
 5085TIP3    H215220   6.701   6.052   2.855  0.7750 -0.6496  0.3259
 5086TIP3   OH215221   0.317   4.839   2.743 -0.3333 -0.2574  0.5441
 5086TIP3    H115222   0.388   4.775   2.743 -1.4823 -1.6036 -0.5549
 5086TIP3    H215223   0.353   4.914   2.694  0.4322 -0.7845  0.2710
 5087TIP3   OH215224   4.152   3.191   3.959  0.1350  0.2790  0.1567
 5087TIP3    H115225   4.102   3.195   4.040 -1.1730  0.3612 -0.6283
 5087TIP3    H215226   4.147   3.279   3.923  3.3607  1.1612  1.4563
 5088TIP3   OH215227   2.588   3.183   2.851 -0.1667 -0.1435 -1.0511
 5088TIP3    H115228   2.550   3.143   2.772 -1.4285 -1.3453  0.1077
 5088TIP3    H215229   2.647   3.116   2.885 -0.8226 -0.2694 -0.1385
 5089TIP3   OH215230   5.446   2.142   4.345 -0.5007  0.3420  0.5774
 5089TIP3    H115231   5.424   2.074   4.408  0.6388 -1.3554 -0.7676
 5089TIP3    H215232   5.372   2.145   4.285  0.6018 -1.8776 -1.0603
 5090TIP3   OH215233   3.247   5.972   4.588  0.1575  0.1525  0.3429
 5090TIP3    H115234   3.249   6.066   4.610 -0.6953 -0.2458  2.3685
 5090TIP3    H215235   3.159   5.944   4.612  0.9278 -1.5040  1.4460
 5091TIP3   OH215236   1.755   5.366   0.361 -0.1588  0.0448  0.2016
 5091TIP3    H115237   1.769   5.431   0.430  0.5592  1.0288 -0.8442
 5091TIP3    H215238   1.822   5.385   0.296  0.5137 -2.1989  0.1555
 5092TIP3   OH215239   2.645   6.562   1.765 -0.7765  0.0825 -0.0617
 5092TIP3    H115240   2.640   6.583   1.671 -1.2748 -0.2710 -0.1176
 5092TIP3    H215241   2.592   6.630   1.807  0.6417  1.1182  0.1140
 5093TIP3   OH215242   6.354   0.070   3.251  0.1194 -0.4256 -0.0620
 5093TIP3    H115243   6.260   0.084   3.260 -0.0434 -1.5442  0.1302
 5093TIP3    H215244   6.392   0.111   3.329 -0.5139 -2.6728  1.5324
 5094TIP3   OH215245   3.511   1.235   5.106  0.2132  0.4404 -0.1066
 5094TIP3    H115246   3.528   1.216   5.199  1.4267 -0.3480 -0.4651
 5094TIP3    H215247   3.419   1.212   5.094  0.1087  0.2986  0.8495
 5095TIP3   OH215248   6.701   2.693   0.786  0.3236  0.4878  0.8422
 5095TIP3    H115249   6.662   2.727   0.867  0.7311  4.3523 -0.3533
 5095TIP3    H215250   6.636   2.712   0.719  1.4629  0.7349 -0.2297
 5096TIP3   OH215251   7.136   6.445   2.099 -0.4620  0.3329  0.3274
 5096TIP3    H115252   7.144   6.540   2.090 -0.6395  0.1684 -1.9389
 5096TIP3    H215253   7.055   6.433   2.148 -1.6617  1.3294 -1.3280
 5097TIP3   OH215254   6.964   3.961   2.285  0.0715  0.2345  0.1465
 5097TIP3    H115255   7.037   3.910   2.250 -0.3589 -0.3851  0.1432
 5097TIP3    H215256   6.989   4.052   2.270  1.5541  0.1026  1.5086
 5098TIP3   OH215257   1.378   6.121   5.041  0.2217 -0.0242 -0.1864
 5098TIP3    H115258   1.318   6.196   5.042  0.5744  0.2568  0.1653
 5098TIP3    H215259   1.464   6.159   5.027  0.3869 -0.3776 -0.1310
 5099TIP3   OH215260   3.424   5.112   4.428  1.0443 -0.1116 -0.1928
 5099TIP3    H115261   3.484   5.041   4.452  0.5285 -0.1547  1.0851
 5099TIP3    H215262   3.362   5.071   4.368  1.1556 -0.5672 -0.0046
 5100TIP3   OH215263   3.714   0.310   0.927  0.0762  0.3092 -0.1254
 5100TIP3    H115264   3.735   0.360   1.006 -1.0538 -1.2248  1.2020
 5100TIP3    H215265   3.707   0.220   0.957 -0.3209 -0.3333 -2.0190
 5101TIP3   OH215266   3.277   3.359   1.585 -0.4241  0.0158  0.0482
 5101TIP3    H115267   3.308   3.345   1.495 -0.8437 -1.1962  0.0718
 5101TIP3    H215268   3.182   3.368   1.576 -0.6826 -1.8055  0.5033
 5102TIP3   OH215269   4.308   1.703   4.039 -0.4208 -0.0491  0.1947
 5102TIP3    H115270   4.381   1.746   3.996 -0.1494 -0.2034  0.4969
 5102TIP3    H215271   4.325   1.714   4.133  0.4294 -2.0732  0.3194
 5103TIP3   OH215272   0.920   0.505   3.194  0.5862 -0.3827  0.0870
 5103TIP3    H115273   0.838   0.487   3.149  1.0010 -0.6382 -0.5926
 5103TIP3    H215274   0.971   0.424   3.183  0.9472 -0.2097  0.4568
 5104TIP3   OH215275   3.072   0.990   1.380 -0.0639  0.2505  0.4808
 5104TIP3    H115276   3.149   0.953   1.336 -1.2318 -0.6606 -0.8828
 5104TIP3    H215277   3.102   1.075   1.413  1.2358  0.3944 -0.9615
 5105TIP3   OH215278   4.971   2.071   5.341 -0.0197 -0.5049  0.2826
 5105TIP3    H115279   5.041   2.068   5.276  0.2206 -0.1445  0.5247
 5105TIP3    H215280   4.890   2.072   5.289  0.1764 -0.0194 -0.0189
 5106TIP3   OH215281   1.549   2.611   4.005  0.2514  0.0019  0.4602
 5106TIP3    H115282   1.516   2.582   3.920  0.0873  0.4234  0.3780
 5106TIP3    H215283   1.470   2.630   4.057  0.3504  0.9730  0.2764
 5107TIP3   OH215284   6.984   4.460   1.484  0.5020 -0.4784 -0.4431
 5107TIP3    H115285   6.961   4.367   1.487 -0.0527 -0.3269  1.0141
 5107TIP3    H215286   6.921   4.501   1.543  2.0021  0.5261  0.5128
 5108TIP3   OH215287   5.364   5.237   4.586 -0.5134 -0.0398  0.2551
 5108TIP3    H115288   5.279   5.214   4.549 -0.1573 -0.1312 -0.5229
 5108TIP3    H215289   5.428   5.205   4.522  0.0665  1.1189  0.2298
 5109TIP3   OH215290   0.468   2.556   1.165  0.2661  0.6968  0.0596
 5109TIP3    H115291   0.523   2.575   1.240 -1.7173  0.9318  1.5306
 5109TIP3    H215292   0.388   2.606   1.180 -0.1758  0.8137 -2.2730
 5110TIP3   OH215293   5.785   2.111   4.958  0.1464 -0.7503 -0.3637
 5110TIP3    H115294   5.744   2.072   5.035 -0.1045 -1.0485 -0.6408
 5110TIP3    H215295   5.735   2.191   4.942 -1.8863 -2.2414 -2.0468
 5111TIP3   OH215296   6.052   5.911   5.280 -0.0718  0.5805  0.0335
 5111TIP3    H115297   6.049   5.869   5.194 -0.3014  2.3254 -0.8614
 5111TIP3    H215298   6.128   5.873   5.323  0.4062  0.1171 -1.1872
 5112TIP3   OH215299   0.605   5.667   5.812  0.3874  0.2340  0.0279
 5112TIP3    H115300   0.666   5.691   5.742  0.2727 -1.1236 -0.5566
 5112TIP3    H215301   0.640   5.710   5.890  1.4800  0.3611 -0.5170
 5113TIP3   OH215302   5.706   1.121   0.243 -0.0349 -0.0357  0.1334
 5113TIP3    H115303   5.736   1.092   0.329 -0.3781 -1.2344 -0.1188
 5113TIP3    H215304   5.766   1.078   0.181 -0.3828  0.0302 -0.2550
 5114TIP3   OH215305   4.680   1.154   0.523  0.1030 -0.1196 -0.1201
 5114TIP3    H115306   4.600   1.187   0.564  0.4169  2.3404 -1.3220
 5114TIP3    H215307   4.750   1.199   0.569  0.6097  0.2356 -1.2052
 5115TIP3   OH215308   3.313   4.222   0.924 -0.3480  0.4106 -0.3838
 5115TIP3    H115309   3.382   4.264   0.975 -0.7577  0.9331 -0.2529
 5115TIP3    H215310   3.257   4.294   0.895 -0.4981  0.0517 -1.0000
 5116TIP3   OH215311   1.348   0.029   0.743  0.2921  0.0351 -0.2651
 5116TIP3    H115312   1.426   0.005   0.793  1.5961  3.5237 -0.3627
 5116TIP3    H215313   1.276   0.017   0.805  0.8057 -3.1180 -0.1302
 5117TIP3   OH215314   0.288   2.549   2.088 -0.3685 -0.1347 -0.3156
 5117TIP3    H115315   0.233   2.523   2.162 -1.0877 -0.1587 -0.8482
 5117TIP3    H215316   0.317   2.466   2.049  0.1887 -0.1237  0.0540
 5118TIP3   OH215317   1.807   5.337   3.885  0.6761 -0.3762 -0.0069
 5118TIP3    H115318   1.810   5.308   3.976  0.4013 -1.0179 -0.2018
 5118TIP3    H215319   1.752   5.273   3.841 -0.7857  0.9583 -0.2410
 5119TIP3   OH215320   2.937   6.227   0.817 -0.1758 -0.2302  0.3263
 5119TIP3    H115321   2.976   6.310   0.792 -1.5007  0.3953  0.2723
 5119TIP3    H215322   2.983   6.162   0.764 -0.8030  0.7350 -1.4882
 5120TIP3   OH215323   0.102   5.240   1.863 -0.5080  0.0361 -0.0585
 5120TIP3    H115324   0.142   5.189   1.792 -0.5667 -1.0767  0.6853
 5120TIP3    H215325   0.041   5.299   1.818  1.4030  1.2874 -1.1587
 5121TIP3   OH215326   4.775   6.588   4.933 -0.3117 -0.1339  0.0284
 5121TIP3    H115327   4.782   6.499   4.968 -1.6616 -1.0873 -1.9481
 5121TIP3    H215328   4.685   6.614   4.952 -0.0557  0.6538  0.1971
 5122TIP3   OH215329   5.908   3.353   0.743  0.3808  0.4855 -0.0137
 5122TIP3    H115330   5.871   3.311   0.821  0.6981 -1.1255 -0.6846
 5122TIP3    H215331   5.834   3.358   0.682  0.2866  1.1522  0.1519
 5123TIP3   OH215332   3.610   2.175   1.030  0.0209 -0.1144 -0.0959
 5123TIP3    H115333   3.620   2.130   0.946  1.3305  1.0616 -0.6060
 5123TIP3    H215334   3.515   2.189   1.039 -0.1298 -0.2385 -1.3861
 5124TIP3   OH215335   4.959   2.054   1.518  0.0056  0.5960 -0.0284
 5124TIP3    H115336   5.020   2.045   1.445 -1.2349  0.9432 -1.1604
 5124TIP3    H215337   4.994   2.126   1.570  1.6615 -0.5607  0.5216
 5125TIP3   OH215338   5.641   4.528   3.612  0.1762  0.4590 -0.1832
 5125TIP3    H115339   5.597   4.443   3.615 -1.1280  1.1123  2.6166
 5125TIP3    H215340   5.581   4.584   3.561 -0.0796  0.2688 -0.0936
 5126TIP3   OH215341   1.559   1.121   4.343 -0.0338  0.2772  0.4193
 5126TIP3    H115342   1.623   1.190   4.322 -1.3843  1.2878 -0.6265
 5126TIP3    H215343   1.597   1.073   4.416  2.1432  0.5112 -0.4947
 5127TIP3   OH215344   0.760   1.927   5.082 -0.3199  0.2168  0.8186
 5127TIP3    H115345   0.697   1.916   5.152 -0.0651  0.7193  1.1358
 5127TIP3    H215346   0.724   1.878   5.008 -0.2704 -0.8722  1.4943
 5128TIP3   OH215347   5.025   1.716   1.277  0.2973  0.1364 -0.1373
 5128TIP3    H115348   4.944   1.768   1.281  0.2136  0.0350 -0.5162
 5128TIP3    H215349   5.026   1.668   1.360  0.2424  0.5485  0.1022
 5129TIP3   OH215350   2.281   2.306   3.665  0.1654  0.8366 -0.0289
 5129TIP3    H115351   2.268   2.372   3.596 -3.4842 -0.1618 -0.5102
 5129TIP3    H215352   2.230   2.338   3.739  2.0228  0.6726  1.3814
 5130TIP3   OH215353   3.754   4.335   0.598 -1.1787 -0.1219 -0.0848
 5130TIP3    H115354   3.806   4.344   0.518  1.2514 -1.2464  1.2433
 5130TIP3    H215355   3.795   4.394   0.661 -0.9800 -1.5908  1.2345
 5131TIP3   OH215356   4.375   4.048   5.023  0.7503  0.2859 -0.0671
 5131TIP3    H115357   4.372   4.089   4.937 -0.6867 -2.0205 -1.2433
 5131TIP3    H215358   4.295   4.078   5.067  1.8717  2.0916  0.8672
 5132TIP3   OH215359   3.147   5.356   1.985  0.6636  0.0368  0.2865
 5132TIP3    H115360   3.181   5.436   2.026  1.2548 -0.7891  1.4409
 5132TIP3    H215361   3.214   5.331   1.922 -0.5039  1.6298 -1.7187
 5133TIP3   OH215362   0.499   4.326   2.175 -0.1215 -0.3674 -0.7386
 5133TIP3    H115363   0.438   4.396   2.152  1.9126  1.4436 -0.9388
 5133TIP3    H215364   0.506   4.330   2.271  0.9929  0.6842 -0.8293
 5134TIP3   OH215365   2.276   5.987   3.475 -0.1228  0.3233  0.0278
 5134TIP3    H115366   2.261   6.074   3.512  0.1334  0.4257 -0.1100
 5134TIP3    H215367   2.371   5.980   3.467 -0.1992  0.7162 -1.5767
 5135TIP3   OH215368   1.457   0.287   4.679 -0.0494 -0.3930 -0.4738
 5135TIP3    H115369   1.529   0.318   4.733 -1.1174  0.6728  0.3813
 5135TIP3    H215370   1.456   0.192   4.693  0.6391 -0.3122  0.1747
 5136TIP3   OH215371   3.035   2.324   3.479  0.5331  0.3717 -0.8195
 5136TIP3    H115372   3.005   2.246   3.432  0.3314 -0.3002  0.3857
 5136TIP3    H215373   3.131   2.316   3.479  0.5561  0.5646 -1.4032
 5137TIP3   OH215374   2.975   4.824   4.622 -0.1115 -0.1363 -0.3934
 5137TIP3    H115375   2.987   4.807   4.715  1.6105  2.2250 -0.1017
 5137TIP3    H215376   2.907   4.762   4.595 -1.3564 -0.2557  2.6177
 5138TIP3   OH215377   3.894   0.718   0.679  0.3841 -0.0576  0.6588
 5138TIP3    H115378   3.942   0.636   0.693 -1.1635 -1.2908 -0.8333
 5138TIP3    H215379   3.825   0.717   0.745  0.3925  0.0752  0.6703
 5139TIP3   OH215380   0.065   2.895   1.254 -0.0349 -0.6157 -0.3346
 5139TIP3    H115381   0.084   2.921   1.344 -3.6478 -1.3251  0.8303
 5139TIP3    H215382   0.058   2.977   1.206  4.0353 -0.2792 -0.6516
 5140TIP3   OH215383   0.864   0.399   5.081 -0.0346  0.1270 -0.7477
 5140TIP3    H115384   0.777   0.381   5.048 -1.2787  1.4514  1.5447
 5140TIP3    H215385   0.877   0.493   5.067  0.4335  0.2104  0.1380
 5141TIP3   OH215386   2.966   5.385   0.370  0.5702  0.1360 -0.5765
 5141TIP3    H115387   2.981   5.478   0.350  1.9776  0.0503  0.0149
 5141TIP3    H215388   3.006   5.338   0.298  1.0728 -0.0454 -0.1782
 5142TIP3   OH215389   0.875   1.231   2.944 -0.1562 -0.4190  0.4904
 5142TIP3    H115390   0.836   1.225   3.031 -0.1506  0.4640  0.5671
 5142TIP3    H215391   0.964   1.199   2.956  0.1041  0.4425  1.0063
 5143TIP3   OH215392   0.298   6.722   1.481 -0.1568  0.0999 -0.0323
 5143TIP3    H115393   0.248   6.695   1.558 -0.1665  0.7697  0.2041
 5143TIP3    H215394   0.242   6.698   1.407 -0.9095  0.9893  0.2330
 5144TIP3   OH215395   3.769   6.525   1.216  0.1356  0.2067  0.7025
 5144TIP3    H115396   3.752   6.518   1.310 -1.5467  1.1018  0.5074
 5144TIP3    H215397   3.725   6.606   1.189 -0.2409 -0.5080 -1.0038
 5145TIP3   OH215398   3.849   3.153   1.879 -0.1062 -0.1401  0.6170
 5145TIP3    H115399   3.816   3.134   1.791 -0.1074 -1.3029  0.8505
 5145TIP3    H215400   3.843   3.248   1.887 -0.5194 -0.0612 -0.4778
 5146TIP3   OH215401   3.125   5.568   3.922 -0.2415  0.3027 -0.5700
 5146TIP3    H115402   3.085   5.614   3.996  1.7311  0.4133  0.4912
 5146TIP3    H215403   3.169   5.492   3.962  0.8980  0.3950 -1.5974
 5147TIP3   OH215404   1.523   0.893   1.166 -0.9234 -0.1618  0.0461
 5147TIP3    H115405   1.524   0.821   1.104  0.4002 -1.4633  1.4802
 5147TIP3    H215406   1.461   0.865   1.234 -0.0417 -0.2093  0.8531
 5148TIP3   OH215407   2.615   6.323   2.828  0.4897  0.3158 -0.1596
 5148TIP3    H115408   2.540   6.289   2.877  0.6031  0.5373  0.1751
 5148TIP3    H215409   2.579   6.349   2.744  0.1883  0.4373  0.0043
 5149TIP3   OH215410   4.593   0.581   1.663  0.2885  0.5072  0.2276
 5149TIP3    H115411   4.663   0.622   1.614 -1.4102  0.6259 -2.2819
 5149TIP3    H215412   4.521   0.572   1.600 -2.2732  1.1543  2.8301
 5150TIP3   OH215413   3.656   1.232   4.265 -0.0361  0.1148  0.6067
 5150TIP3    H115414   3.718   1.239   4.337  2.0666  1.6690 -1.1944
 5150TIP3    H215415   3.665   1.316   4.218 -1.5882 -0.6636 -1.2151
 5151TIP3   OH215416   0.681   2.043   0.905 -0.1781 -0.3458 -0.3132
 5151TIP3    H115417   0.648   2.028   0.993  3.1495 -0.6665  1.0411
 5151TIP3    H215418   0.678   1.958   0.862 -1.8064 -0.1874 -0.5772
 5152TIP3   OH215419   5.675   4.255   2.308  0.2262  0.3989  0.0952
 5152TIP3    H115420   5.712   4.258   2.220  1.2872  1.0913  0.5484
 5152TIP3    H215421   5.750   4.241   2.366 -0.2562  1.3655  0.9955
 5153TIP3   OH215422   5.847   0.352   0.862  0.4064 -0.3407  0.2380
 5153TIP3    H115423   5.898   0.399   0.797 -0.2537  1.1392  0.7245
 5153TIP3    H215424   5.905   0.284   0.895  0.1127 -2.5813 -3.3060
 5154TIP3   OH215425   2.758   3.078   3.736  0.0974  0.1274 -0.3939
 5154TIP3    H115426   2.677   3.105   3.780  0.2650  0.0031 -0.0017
 5154TIP3    H215427   2.777   2.991   3.771 -0.1841 -0.3072 -1.2989
 5155TIP3   OH215428   0.780   2.450   4.721  0.2041  0.3347 -0.3644
 5155TIP3    H115429   0.779   2.542   4.696  1.7953  0.7460  0.9062
 5155TIP3    H215430   0.758   2.450   4.814 -3.9166 -1.0037 -1.1277
 5156TIP3   OH215431   0.104   0.818   5.832 -0.2274  0.2009  0.4673
 5156TIP3    H115432   0.077   0.727   5.843  1.2322 -0.5075 -1.3940
 5156TIP3    H215433   0.196   0.819   5.857  0.0579  0.9200 -0.5570
 5157TIP3   OH215434   3.523   1.868   5.645 -0.0282  0.1661  0.4328
 5157TIP3    H115435   3.566   1.942   5.687 -1.3344  0.3337  1.5597
 5157TIP3    H215436   3.485   1.904   5.565 -1.2522  0.9288  1.3128
 5158TIP3   OH215437   3.143   3.846   3.748  0.4031 -0.0387 -0.3971
 5158TIP3    H115438   3.144   3.791   3.670 -0.2993 -0.5505 -0.0482
 5158TIP3    H215439   3.064   3.898   3.740  0.4600  0.0894 -0.1474
 5159TIP3   OH215440   2.982   5.430   1.764 -0.7706  0.2979 -0.0537
 5159TIP3    H115441   2.978   5.344   1.723 -0.3563  0.5408 -0.6119
 5159TIP3    H215442   3.027   5.415   1.847 -2.4169 -0.3513  0.7655
 5160TIP3   OH215443   0.868   2.121   4.010  0.0941 -0.2621  0.2648
 5160TIP3    H115444   0.938   2.129   4.075  1.9766 -1.8675 -1.4288
 5160TIP3    H215445   0.890   2.185   3.943  1.0451 -1.9698 -1.1408
 5161TIP3   OH215446   3.301   3.923   5.843  0.2288 -0.0468  0.2461
 5161TIP3    H115447   3.245   3.910   5.767  1.3079 -1.4620 -0.3692
 5161TIP3    H215448   3.390   3.914   5.808  0.7730  0.3849  1.4867
 5162TIP3   OH215449   4.426   3.340   3.788  0.2451  0.1015  0.2728
 5162TIP3    H115450   4.354   3.362   3.730 -0.1242 -1.9131 -0.1153
 5162TIP3    H215451   4.505   3.370   3.742 -0.2288  0.8624 -0.0494
 5163TIP3   OH215452   0.589   1.862   0.383  0.5167 -0.5134  0.1653
 5163TIP3    H115453   0.523   1.924   0.415  1.2553 -1.2140  3.4697
 5163TIP3    H215454   0.672   1.910   0.392  0.7401 -0.4863 -1.6432
 5164TIP3   OH215455   0.052   6.169   1.574 -0.4031 -0.0088 -0.5074
 5164TIP3    H115456   0.064   6.255   1.533  0.3107 -0.2630 -0.8553
 5164TIP3    H215457   0.032   6.110   1.500 -0.2581 -0.2590 -0.3489
 5165TIP3   OH215458   3.905   4.144   2.584 -0.4215 -0.4736 -0.2940
 5165TIP3    H115459   3.853   4.075   2.624 -1.7689  0.6803 -0.0025
 5165TIP3    H215460   3.935   4.107   2.501  0.0908 -1.8990  0.4993
 5166TIP3   OH215461   2.114   1.322   1.839  0.3787 -0.1061  0.0218
 5166TIP3    H115462   2.199   1.328   1.884 -0.2769  0.0846  1.2743
 5166TIP3    H215463   2.096   1.228   1.836  1.1980 -0.2486 -1.3871
 5167TIP3   OH215464   4.807   3.337   3.774 -0.1935 -0.8545  0.2126
 5167TIP3    H115465   4.731   3.353   3.718  0.0323  0.2111  0.2011
 5167TIP3    H215466   4.779   3.266   3.832 -1.1495 -0.5775  0.1103
 5168TIP3   OH215467   0.260   4.883   1.069 -0.3243 -0.9149  0.2090
 5168TIP3    H115468   0.258   4.832   1.150 -1.3441 -0.8045  0.2638
 5168TIP3    H215469   0.325   4.839   1.015  2.2108  0.3971  1.9785
 5169TIP3   OH215470   4.936   3.590   1.644  0.3318  0.1720 -0.3619
 5169TIP3    H115471   4.940   3.550   1.558 -2.7294  0.1398 -0.6144
 5169TIP3    H215472   5.005   3.547   1.694  1.7321 -0.2934 -2.5516
 5170TIP3   OH215473   5.198   2.712   1.292  0.3892 -0.1471  0.3888
 5170TIP3    H115474   5.274   2.699   1.237  0.6667 -1.1218  0.9804
 5170TIP3    H215475   5.229   2.696   1.382 -0.3599  0.0387  0.6947
 5171TIP3   OH215476   0.265   4.443   1.360 -0.3101  0.0388 -0.0829
 5171TIP3    H115477   0.200   4.373   1.368 -0.7288  0.3238 -0.8613
 5171TIP3    H215478   0.272   4.479   1.448 -1.7883  0.4983 -0.1220
 5172TIP3   OH215479   3.903   2.854   3.474 -0.0214 -0.2855 -0.6576
 5172TIP3    H115480   3.919   2.922   3.409  1.2376  0.1390  0.0619
 5172TIP3    H215481   3.894   2.902   3.556 -1.7149 -0.8072 -0.5095
 5173TIP3   OH215482   4.504   4.994   0.596  0.0439 -0.1951 -0.2297
 5173TIP3    H115483   4.444   4.945   0.652  0.6999  0.6991  1.3096
 5173TIP3    H215484   4.478   5.085   0.607  2.6472  0.4164  1.8014
 5174TIP3   OH215485   5.835   3.370   5.280  0.3998  0.1433  0.6237
 5174TIP3    H115486   5.782   3.356   5.202  0.9373 -1.8273  0.5671
 5174TIP3    H215487   5.896   3.297   5.281  3.9094  2.7939  0.1036
 5175TIP3   OH215488   4.740   1.564   1.603  0.5782  0.0631 -0.4049
 5175TIP3    H115489   4.784   1.648   1.610  1.4388 -0.2693 -1.5935
 5175TIP3    H215490   4.690   1.569   1.522 -0.8389  0.0719  0.4250
 5176TIP3   OH215491   2.447   1.993   3.844  0.5546 -0.3781 -0.0732
 5176TIP3    H115492   2.432   2.076   3.798  1.8406  0.0140  0.1737
 5176TIP3    H215493   2.530   1.961   3.809  1.0563 -0.5720  1.2334
 5177TIP3   OH215494   0.221   2.258   4.247 -0.5357 -0.8337 -0.2846
 5177TIP3    H115495   0.280   2.310   4.193  0.8162 -0.8564  1.1126
 5177TIP3    H215496   0.274   2.185   4.279 -0.9385 -0.2485  1.9382
 5178TIP3   OH215497   0.764   5.497   2.016 -0.4451  0.0100  0.0399
 5178TIP3    H115498   0.674   5.491   2.049  0.0991  1.5176  1.9964
 5178TIP3    H215499   0.755   5.531   1.927 -1.8769 -2.1961 -0.7725
 5179TIP3   OH215500   7.084   3.019   2.399  0.1364 -0.0399 -0.1450
 5179TIP3    H115501   6.995   3.006   2.433 -0.1492  0.7867 -0.5242
 5179TIP3    H215502   7.125   3.078   2.462 -0.0335  0.6275 -0.6440
 5180TIP3   OH215503   2.691   2.020   2.193 -0.2603 -0.2556 -0.2084
 5180TIP3    H115504   2.759   2.026   2.127  1.1343 -1.6323  1.0001
 5180TIP3    H215505   2.609   2.017   2.144  0.7478 -1.8439 -1.9368
 5181TIP3   OH215506   6.941   5.700   4.077 -0.3434 -0.0511 -0.1617
 5181TIP3    H115507   6.985   5.659   4.002 -0.4676 -0.1690 -0.1713
 5181TIP3    H215508   6.950   5.637   4.148  2.9276  1.5166  1.0140
 5182TIP3   OH215509   4.433   3.367   3.419 -0.2385 -0.5085 -0.1859
 5182TIP3    H115510   4.371   3.296   3.433 -1.1580  0.1256 -0.9730
 5182TIP3    H215511   4.475   3.346   3.336  0.6118 -0.9308  0.3378
 5183TIP3   OH215512   1.018   3.277   0.790 -0.3266 -0.3008 -0.5349
 5183TIP3    H115513   0.937   3.243   0.752 -0.2975 -0.5780 -0.3529
 5183TIP3    H215514   1.022   3.369   0.761 -0.8850 -0.1843 -0.2569
 5184TIP3   OH215515   2.869   4.788   3.251  0.3783  0.4078 -0.4262
 5184TIP3    H115516   2.839   4.715   3.198 -0.9182  1.4783 -1.2303
 5184TIP3    H215517   2.950   4.757   3.292  0.8868 -0.7982 -2.2429
 5185TIP3   OH215518   0.093   0.029   5.846  0.2777  0.4828  0.3023
 5185TIP3    H115519   0.162   0.002   5.785 -1.7598  0.8281 -2.3441
 5185TIP3    H215520   0.137   0.091   5.905  2.4125  0.0114 -0.6814
 5186TIP3   OH215521   6.493   2.246   5.478 -0.1239 -0.4824  0.1722
 5186TIP3    H115522   6.491   2.175   5.543  0.1786 -1.0951 -0.4703
 5186TIP3    H215523   6.410   2.239   5.432  0.6283 -1.6117 -1.1048
 5187TIP3   OH215524   0.368   4.583   5.818 -0.3015  0.9919 -0.0503
 5187TIP3    H115525   0.322   4.602   5.900 -1.8711  0.5765 -0.7864
 5187TIP3    H215526   0.413   4.664   5.796 -0.9841  1.5442  0.5397
 5188TIP3   OH215527   2.564   2.400   5.484 -0.4336 -0.1345  0.9077
 5188TIP3    H115528   2.556   2.320   5.536 -1.2641 -0.9024 -0.3409
 5188TIP3    H215529   2.656   2.424   5.490  1.0352 -3.9521 -2.5869
 5189TIP3   OH215530   6.954   2.471   3.247  0.0508  0.0888  0.2684
 5189TIP3    H115531   6.944   2.566   3.241  0.2654  0.4544  3.6958
 5189TIP3    H215532   7.047   2.456   3.234 -0.1274  0.1625 -1.3227
 5190TIP3   OH215533   5.377   2.385   0.744  0.2445  0.3324  0.2571
 5190TIP3    H115534   5.296   2.433   0.762 -0.0391 -0.1282  0.2119
 5190TIP3    H215535   5.348   2.299   0.713  0.7333  0.4394 -0.5374
 5191TIP3   OH215536   4.612   6.272   4.242  0.4380  0.1531  0.2179
 5191TIP3    H115537   4.670   6.243   4.171 -1.5639 -2.2681 -0.6022
 5191TIP3    H215538   4.636   6.217   4.317 -1.6605 -2.1115 -0.5965
 5192TIP3   OH215539   6.120   0.531   2.633 -0.2108 -0.1560  0.1435
 5192TIP3    H115540   6.162   0.542   2.548 -1.2241 -0.3975 -0.4011
 5192TIP3    H215541   6.189   0.493   2.689  0.8133  1.0937 -0.2192
 5193TIP3   OH215542   3.000   5.280   3.463  0.2419 -0.3023 -0.2538
 5193TIP3    H115543   2.988   5.342   3.535  1.5382 -1.2423  0.8320
 5193TIP3    H215544   3.059   5.325   3.403  0.4887 -0.1355  0.1057
 5194TIP3   OH215545   2.598   6.793   5.350  0.6178  0.1631 -0.2451
 5194TIP3    H115546   2.503   6.784   5.357  0.2241  2.8995 -0.6971
 5194TIP3    H215547   2.631   6.757   5.433 -0.8388 -0.4148  0.1327
 5195TIP3   OH215548   6.108   1.839   0.449  0.0880 -0.5322 -0.1555
 5195TIP3    H115549   6.067   1.794   0.523  0.4453 -0.3744  0.1447
 5195TIP3    H215550   6.181   1.782   0.424  1.3163  0.4365  1.0270
 5196TIP3   OH215551   2.836   1.803   3.020  0.2902  0.5066 -0.3884
 5196TIP3    H115552   2.837   1.841   2.932  2.1775  1.8409  0.1467
 5196TIP3    H215553   2.820   1.877   3.078 -0.6597 -0.3177  0.4411
 5197TIP3   OH215554   1.727   2.773   2.447  0.0551  0.0383  0.6635
 5197TIP3    H115555   1.656   2.739   2.392 -0.1707  0.2454  0.8296
 5197TIP3    H215556   1.692   2.852   2.486  0.7584  0.7720 -0.1413
 5198TIP3   OH215557   4.654   4.749   5.428  0.2966  0.0435 -0.1826
 5198TIP3    H115558   4.711   4.731   5.353  0.2818  1.1996 -0.4959
 5198TIP3    H215559   4.582   4.800   5.391 -0.9723 -1.4260  0.2053
 5199TIP3   OH215560   5.453   0.275   3.448  0.4516 -0.1787 -0.6086
 5199TIP3    H115561   5.422   0.196   3.404 -2.2013  0.6877 -0.5070
 5199TIP3    H215562   5.442   0.344   3.382 -2.7423  0.9922  0.9584
 5200TIP3   OH215563   6.219   3.586   0.408 -0.8849 -0.2544  0.0904
 5200TIP3    H115564   6.231   3.667   0.358  0.1480 -1.1643 -1.2256
 5200TIP3    H215565   6.204   3.615   0.498 -0.0698  1.3874 -0.2568
 5201TIP3   OH215566   7.183   2.297   1.832 -0.1266 -0.2275 -0.6393
 5201TIP3    H115567   7.132   2.299   1.913  0.3267  1.3314 -0.3485
 5201TIP3    H215568   7.196   2.389   1.810  1.7951 -0.5811 -1.1781
 5202TIP3   OH215569   4.831   3.659   3.500  0.0533 -0.0142 -0.3339
 5202TIP3    H115570   4.764   3.675   3.567  1.4259  1.4496  0.7757
 5202TIP3    H215571   4.805   3.714   3.426 -0.2771  0.0891 -0.1459
 5203TIP3   OH215572   2.083   5.828   0.504  0.2921 -0.2966  0.2449
 5203TIP3    H115573   2.161   5.867   0.542 -0.4487  1.2350  0.2390
 5203TIP3    H215574   2.077   5.865   0.416 -0.8179  0.1563  0.4964
 5204TIP3   OH215575   0.381   3.349   0.464 -0.0921 -0.2322  0.4064
 5204TIP3    H115576   0.387   3.261   0.428  1.4566 -0.1395  0.3617
 5204TIP3    H215577   0.356   3.336   0.555  0.5761 -0.7613  0.5251
 5205TIP3   OH215578   4.787   4.489   2.479  0.1714  0.0647  0.1809
 5205TIP3    H115579   4.732   4.456   2.550  0.1019 -0.9662 -0.3425
 5205TIP3    H215580   4.860   4.428   2.475  0.6150  0.6036 -0.0870
 5206TIP3   OH215581   4.495   0.855   0.973 -0.1531 -0.1276 -0.2653
 5206TIP3    H115582   4.425   0.828   0.913  1.3742 -0.4390 -2.0309
 5206TIP3    H215583   4.498   0.950   0.964  0.0298 -0.1671 -0.6582
 5207TIP3   OH215584   5.350   2.082   0.307 -0.2439 -0.4993  0.3435
 5207TIP3    H115585   5.314   2.170   0.311  0.3509 -0.2901  1.9210
 5207TIP3    H215586   5.399   2.072   0.389  1.0578 -1.7108 -0.5224
 5208TIP3   OH215587   3.574   2.726   0.171 -0.5160 -0.3351  0.3688
 5208TIP3    H115588   3.566   2.696   0.262 -1.7983 -0.4746  0.2284
 5208TIP3    H215589   3.648   2.677   0.136  1.1545  0.9963  1.8233
 5209TIP3   OH215590   6.596   4.755   0.531 -0.5564 -0.1587 -0.1846
 5209TIP3    H115591   6.674   4.715   0.569 -0.5691  1.1542  1.3233
 5209TIP3    H215592   6.539   4.774   0.606 -1.7744  0.0718 -1.1295
 5210TIP3   OH215593   5.206   4.872   5.716 -0.3548  0.5274  0.0221
 5210TIP3    H115594   5.207   4.820   5.636  2.1139 -0.0022  0.3153
 5210TIP3    H215595   5.155   4.818   5.778  0.3900 -0.5870 -0.2955
 5211TIP3   OH215596   3.827   2.949   0.643  0.1469  0.1419  0.4320
 5211TIP3    H115597   3.822   3.044   0.635  1.3207  0.1475 -0.4003
 5211TIP3    H215598   3.875   2.934   0.724 -0.0854  0.2535  0.5915
 5212TIP3   OH215599   2.893   1.755   2.314 -0.2935 -0.4448  0.0414
 5212TIP3    H115600   2.951   1.812   2.363 -1.4367  0.3693  0.4929
 5212TIP3    H215601   2.914   1.772   2.222  0.1381 -0.1283  0.1982
 5213TIP3   OH215602   6.010   6.257   2.058 -0.5285 -0.2213  0.6653
 5213TIP3    H115603   5.951   6.311   2.110 -1.0476  1.2131 -1.3249
 5213TIP3    H215604   5.995   6.168   2.089 -3.1403  0.2002  0.7911
 5214TIP3   OH215605   3.499   0.573   0.908  0.3418  0.4499 -0.4383
 5214TIP3    H115606   3.423   0.578   0.966 -0.0444 -1.1914 -0.7493
 5214TIP3    H215607   3.554   0.505   0.946 -0.2966 -1.2341 -2.3389
 5215TIP3   OH215608   4.411   2.764   3.614  0.1773 -0.1145 -0.6595
 5215TIP3    H115609   4.347   2.835   3.612 -1.0827 -1.2437 -1.2672
 5215TIP3    H215610   4.495   2.809   3.629 -0.5920  1.4894 -0.9352
 5216TIP3   OH215611   6.496   3.042   2.566  0.2504 -0.6967 -0.0192
 5216TIP3    H115612   6.569   2.993   2.528  0.3247  1.0904 -2.4581
 5216TIP3    H215613   6.419   3.012   2.518 -0.1341 -0.4572  0.4384
 5217TIP3   OH215614   0.495   3.362   5.760  0.0548  0.4834 -0.0648
 5217TIP3    H115615   0.474   3.419   5.685  0.5993  1.0654  0.2169
 5217TIP3    H215616   0.414   3.315   5.778 -0.0617  0.2648 -1.0802
 5218TIP3   OH215617   6.275   6.229   2.158 -0.3469  0.4590  1.0076
 5218TIP3    H115618   6.284   6.135   2.174  0.4853  0.3700  0.1402
 5218TIP3    H215619   6.187   6.239   2.122  0.4182 -0.3793 -1.2780
 5219TIP3   OH215620   4.541   3.981   1.295  0.2315  0.1380  0.2982
 5219TIP3    H115621   4.469   4.033   1.331 -0.8380 -0.6259 -0.6911
 5219TIP3    H215622   4.520   3.891   1.318 -1.1592 -0.5622 -3.1514
 5220TIP3   OH215623   3.650   0.638   1.859 -0.5058  0.5744  0.5060
 5220TIP3    H115624   3.555   0.644   1.866 -0.5305 -0.5722  1.2352
 5220TIP3    H215625   3.676   0.723   1.823 -1.8258  0.7759 -0.0342
 5221TIP3   OH215626   4.671   0.100   3.410 -0.4114  0.1480 -0.1084
 5221TIP3    H115627   4.614   0.093   3.486  0.6618 -1.3976  0.6022
 5221TIP3    H215628   4.759   0.106   3.446  0.1484 -0.9510 -1.2004
 5222TIP3   OH215629   3.161   3.197   3.567 -0.5527  0.1964  0.2991
 5222TIP3    H115630   3.210   3.169   3.490 -0.0028  1.0380  0.3375
 5222TIP3    H215631   3.126   3.115   3.604  0.9190 -0.4329  0.3449
 5223TIP3   OH215632   1.917   1.803   4.074  0.4193  0.3915  0.1948
 5223TIP3    H115633   1.952   1.872   4.130  1.2400  0.3190 -0.2126
 5223TIP3    H215634   1.852   1.847   4.019  0.2021  0.6236  0.6359
 5224TIP3   OH215635   2.854   1.802   0.959  0.3196 -0.1200 -0.3947
 5224TIP3    H115636   2.893   1.882   0.995 -0.8595 -0.1086  0.9514
 5224TIP3    H215637   2.849   1.743   1.034 -3.2488  0.2795 -0.1772
 5225TIP3   OH215638   6.721   0.214   0.400 -0.0515 -0.3602  0.2028
 5225TIP3    H115639   6.700   0.262   0.320 -2.6486 -0.1698  0.9121
 5225TIP3    H215640   6.765   0.278   0.456 -3.1893  1.3226  1.0206
 5226TIP3   OH215641   4.382   5.534   1.661  0.0681 -0.0746 -0.0455
 5226TIP3    H115642   4.290   5.517   1.640 -0.4492  0.1300  1.9180
 5226TIP3    H215643   4.399   5.484   1.741  1.9405 -0.8085 -0.8359
 5227TIP3   OH215644   6.051   0.842   0.222 -0.3024  0.2439 -0.1496
 5227TIP3    H115645   6.057   0.765   0.165  0.4425 -0.4947  0.8823
 5227TIP3    H215646   6.138   0.850   0.261 -0.8226  0.6563  0.9832
 5228TIP3   OH215647   6.981   3.716   1.225 -0.1764 -0.1760  0.2677
 5228TIP3    H115648   6.966   3.636   1.276  1.3756 -2.0498 -1.9386
 5228TIP3    H215649   6.920   3.780   1.261 -2.3362 -2.6878  1.4609
 5229TIP3   OH215650   3.805   1.714   3.940  0.0368 -0.5037  0.7986
 5229TIP3    H115651   3.900   1.706   3.952  0.3702 -0.3110 -1.3829
 5229TIP3    H215652   3.785   1.804   3.966  0.7949  0.0781 -0.5613
 5230TIP3   OH215653   2.038   1.960   4.266 -0.5171 -0.0656 -0.3098
 5230TIP3    H115654   2.129   1.929   4.270 -0.8476 -1.0030  0.9821
 5230TIP3    H215655   2.020   1.990   4.355 -0.8960  1.9433 -1.0282
 5231TIP3   OH215656   6.537   3.369   2.215  0.0576 -0.1548  0.1949
 5231TIP3    H115657   6.553   3.452   2.170  0.5801 -0.7774 -0.7839
 5231TIP3    H215658   6.625   3.337   2.237 -0.1484 -0.4094  0.6656
 5232TIP3   OH215659   1.729   0.583   2.040  0.0184  0.3583  0.0072
 5232TIP3    H115660   1.825   0.583   2.038  0.0476 -1.0980 -1.7372
 5232TIP3    H215661   1.706   0.490   2.047 -1.3097  0.8072  2.4638
 5233TIP3   OH215662   2.901   4.015   3.703  0.8507 -0.2176 -0.2537
 5233TIP3    H115663   2.958   4.040   3.775 -0.9098 -0.5359  1.3125
 5233TIP3    H215664   2.843   4.091   3.691  0.9034 -0.2991 -1.1373
 5234TIP3   OH215665   0.305   3.240   4.322  0.3132  0.0541  0.1056
 5234TIP3    H115666   0.210   3.251   4.327  0.2130  0.0174 -1.3779
 5234TIP3    H215667   0.339   3.328   4.336  0.0002  0.2966 -0.6223
 5235TIP3   OH215668   6.027   6.004   2.764 -0.2409  0.0520 -0.2155
 5235TIP3    H115669   6.098   5.940   2.770  0.5361  0.9046 -0.1193
 5235TIP3    H215670   5.974   5.989   2.843  0.5381  0.2352  0.3473
 5236TIP3   OH215671   2.206   2.246   0.622  0.2926 -0.6309  0.3638
 5236TIP3    H115672   2.180   2.154   0.627  1.0401 -0.9280 -0.7477
 5236TIP3    H215673   2.300   2.245   0.639  0.2273 -0.0068  0.8059
 5237TIP3   OH215674   2.010   0.960   5.771 -0.7591 -0.1544  0.1229
 5237TIP3    H115675   1.962   0.897   5.824  0.6128 -0.8607  0.5728
 5237TIP3    H215676   2.069   0.907   5.718 -4.0986  0.1925 -4.5375
 5238TIP3   OH215677   2.380   5.255   2.030  0.6111  0.1535 -0.1466
 5238TIP3    H115678   2.342   5.327   2.080  1.5511 -0.0405  0.8798
 5238TIP3    H215679   2.456   5.227   2.081  0.5267 -1.2834 -0.7431
 5239TIP3   OH215680   1.775   3.467   1.073 -0.1526  0.1743  0.2549
 5239TIP3    H115681   1.760   3.469   1.167 -0.4764  1.2872  0.1917
 5239TIP3    H215682   1.801   3.556   1.051  1.7141 -0.4768 -0.4383
 5240TIP3   OH215683   4.479   3.266   5.637 -0.3659 -0.6339  0.0840
 5240TIP3    H115684   4.570   3.239   5.626  0.0737  0.0604  1.7091
 5240TIP3    H215685   4.468   3.338   5.575  0.1837 -0.7234 -0.1273
 5241TIP3   OH215686   4.404   0.506   0.090 -0.2586 -0.0024  0.4953
 5241TIP3    H115687   4.317   0.468   0.082 -0.8981  1.3781  0.5873
 5241TIP3    H215688   4.463   0.440   0.053 -1.4860 -0.3582 -0.9098
 5242TIP3   OH215689   6.844   2.550   0.581  0.3865  0.2996  0.2579
 5242TIP3    H115690   6.799   2.593   0.654 -1.6821 -0.2368 -0.6370
 5242TIP3    H215691   6.921   2.509   0.621 -0.1726  0.8237  1.9562
 5243TIP3   OH215692   6.455   1.073   5.264  0.0889 -0.2459 -0.1524
 5243TIP3    H115693   6.411   1.034   5.340  0.8005 -0.0169  0.3890
 5243TIP3    H215694   6.481   1.160   5.294 -0.1953  0.0992 -0.8785
 5244TIP3   OH215695   4.476   4.438   3.948  0.0735  0.1146  0.0980
 5244TIP3    H115696   4.400   4.482   3.911  1.1640  0.9038 -1.3478
 5244TIP3    H215697   4.520   4.506   4.000  1.2977  0.5832 -1.4414
 5245TIP3   OH215698   6.183   4.889   1.733  0.1348 -0.1063  0.2764
 5245TIP3    H115699   6.169   4.808   1.684  1.2891  0.0729 -0.4010
 5245TIP3    H215700   6.131   4.878   1.812 -2.5081 -0.0376 -1.3226
 5246TIP3   OH215701   0.972   4.056   0.453  0.2104  0.7208  0.7361
 5246TIP3    H115702   0.906   4.040   0.385  0.2113 -1.9938  1.2349
 5246TIP3    H215703   0.958   4.146   0.480 -0.2332  1.6862 -2.3646
 5247TIP3   OH215704   3.742   6.632   0.864  0.5520 -0.0989  0.8222
 5247TIP3    H115705   3.801   6.692   0.908 -1.6507  1.5187  1.7492
 5247TIP3    H215706   3.661   6.682   0.851 -0.2059 -1.7468 -1.6166
 5248TIP3   OH215707   6.972   6.283   4.306  0.2205  0.3077 -0.3326
 5248TIP3    H115708   6.928   6.206   4.342 -1.2353  1.2284 -0.0889
 5248TIP3    H215709   7.044   6.300   4.367  0.7438 -1.0125 -0.5502
 5249TIP3   OH215710   4.732   4.311   1.989  0.3343 -0.5962 -0.0848
 5249TIP3    H115711   4.742   4.279   1.899  0.8827  1.1358 -0.6997
 5249TIP3    H215712   4.708   4.403   1.978  1.5695 -0.0377  1.5472
 5250TIP3   OH215713   6.225   3.883   4.300 -0.1374 -0.2053 -0.1446
 5250TIP3    H115714   6.261   3.797   4.320  1.1853  0.4725  0.5206
 5250TIP3    H215715   6.301   3.942   4.301 -0.8129  0.7800 -1.8330
 5251TIP3   OH215716   4.778   6.093   4.097  0.0333 -0.2193  0.3364
 5251TIP3    H115717   4.785   6.004   4.132  2.7804 -0.6338 -0.9379
 5251TIP3    H215718   4.758   6.081   4.004 -1.5853  0.6261  0.5405
 5252TIP3   OH215719   4.261   3.681   4.430  0.2860 -0.4686  0.3702
 5252TIP3    H115720   4.277   3.768   4.466 -0.1107  0.7530 -2.2233
 5252TIP3    H215721   4.188   3.693   4.370  0.3103 -2.5923 -0.1645
 5253TIP3   OH215722   3.338   5.673   2.421 -0.1969 -0.1450  0.5111
 5253TIP3    H115723   3.406   5.607   2.436 -0.5290 -0.3469  1.2108
 5253TIP3    H215724   3.343   5.730   2.497  0.9114  1.4005 -0.6815
 5254TIP3   OH215725   5.563   6.273   5.357  0.3195  0.3883 -0.3004
 5254TIP3    H115726   5.593   6.336   5.423  1.2303  0.1998 -0.5144
 5254TIP3    H215727   5.546   6.193   5.407 -1.3403  0.9265  0.0488
 5255TIP3   OH215728   2.293   0.877   1.251  0.0649 -0.0449 -0.1566
 5255TIP3    H115729   2.262   0.799   1.296 -0.6140 -1.0812 -2.2911
 5255TIP3    H215730   2.214   0.926   1.230  0.5326  2.0137  2.3042
 5256TIP3   OH215731   4.156   3.703   5.620  0.1652  0.4807  0.3535
 5256TIP3    H115732   4.094   3.765   5.659  1.5589  1.8611  0.4755
 5256TIP3    H215733   4.148   3.624   5.674 -0.9402  0.8890  0.8153
 5257TIP3   OH215734   3.032   0.653   4.963 -0.5096  0.4773  0.3716
 5257TIP3    H115735   3.119   0.614   4.950 -0.1639  0.9251  1.2138
 5257TIP3    H215736   3.004   0.679   4.876 -1.4160 -2.9530 -0.5095
 5258TIP3   OH215737   4.782   5.074   5.263  0.3706 -0.3271 -0.1861
 5258TIP3    H115738   4.749   5.065   5.174  0.3141  2.3352 -0.4984
 5258TIP3    H215739   4.818   5.162   5.267  3.3810 -1.4800  1.5023
 5259TIP3   OH215740   3.221   5.734   5.007 -0.8065  0.2265 -0.0528
 5259TIP3    H115741   3.204   5.782   5.088 -1.4255 -2.3399  1.4503
 5259TIP3    H215742   3.139   5.741   4.957 -1.5848 -0.7422  1.0148
 5260TIP3   OH215743   4.889   0.472   2.815  0.3877  0.1102 -0.0497
 5260TIP3    H115744   4.871   0.379   2.800 -1.1827  0.0950  1.5278
 5260TIP3    H215745   4.955   0.495   2.749  0.8641 -2.1180 -0.4296
 5261TIP3   OH215746   2.131   3.426   4.332  0.2358  0.1468  0.1279
 5261TIP3    H115747   2.048   3.389   4.302 -0.1136 -1.0187  2.3572
 5261TIP3    H215748   2.127   3.518   4.304 -1.2639 -0.1653 -0.8244
 5262TIP3   OH215749   6.209   0.286   4.440 -0.6153  0.4539 -0.4521
 5262TIP3    H115750   6.288   0.234   4.454  0.6810  2.4986  0.0891
 5262TIP3    H215751   6.189   0.273   4.347 -1.1785 -2.0662 -0.0698
 5263TIP3   OH215752   1.254   0.190   5.603  0.1870 -0.5354  0.7663
 5263TIP3    H115753   1.265   0.160   5.513 -0.1208 -0.9035  0.8485
 5263TIP3    H215754   1.296   0.276   5.605 -1.5055  0.3585 -0.2118
 5264TIP3   OH215755   5.380   2.478   3.408 -0.3664  0.1972 -0.4292
 5264TIP3    H115756   5.284   2.474   3.404 -0.4315  0.3481  0.7952
 5264TIP3    H215757   5.407   2.390   3.431 -0.2541  0.3336 -0.0355
 5265TIP3   OH215758   5.662   6.269   0.398 -0.2625 -0.2463  0.0085
 5265TIP3    H115759   5.651   6.315   0.481 -3.3943  0.2264 -0.5128
 5265TIP3    H215760   5.621   6.327   0.333 -0.1385 -1.7079 -1.4486
 5266TIP3   OH215761   0.707   0.438   1.120 -0.5082 -0.0478 -0.0888
 5266TIP3    H115762   0.618   0.450   1.089 -0.2243 -1.7675 -1.7547
 5266TIP3    H215763   0.700   0.436   1.216 -1.8855  2.1212 -0.0900
 5267TIP3   OH215764   4.131   2.384   0.204 -0.5191 -0.1095 -0.4054
 5267TIP3    H115765   4.194   2.399   0.274  0.3598  0.3250 -1.2605
 5267TIP3    H215766   4.136   2.289   0.187  0.0040 -0.0660 -0.5366
 5268TIP3   OH215767   0.366   4.344   5.230  0.0615  0.1536  0.0165
 5268TIP3    H115768   0.386   4.344   5.136  2.5130 -1.0040  0.4534
 5268TIP3    H215769   0.282   4.298   5.236 -0.7987  1.4042 -1.6789
 5269TIP3   OH215770   7.184   4.953   2.348  0.3584 -0.4972  0.1323
 5269TIP3    H115771   7.225   5.026   2.395 -0.3715  0.0298 -0.0345
 5269TIP3    H215772   7.189   4.879   2.409  0.7204 -0.2009  0.4700
 5270TIP3   OH215773   6.206   0.676   5.127  0.1568  0.8432  0.2285
 5270TIP3    H115774   6.300   0.660   5.126  0.0311 -0.2436  1.7498
 5270TIP3    H215775   6.187   0.700   5.218 -1.3436 -1.2207  0.5292
 5271TIP3   OH215776   7.130   5.013   5.188  0.0165 -0.3958  0.4494
 5271TIP3    H115777   7.142   4.931   5.141 -0.8607  0.2034 -0.8575
 5271TIP3    H215778   7.218   5.036   5.218  0.7582 -0.3430 -1.6640
 5272TIP3   OH215779   4.008   5.280   1.549  0.1140 -0.3997  0.1119
 5272TIP3    H115780   3.958   5.362   1.550  0.1814 -0.2967 -1.6976
 5272TIP3    H215781   4.097   5.307   1.526  0.1082 -0.9911 -0.6145
 5273TIP3   OH215782   3.022   2.496   5.408  0.2260 -0.0780 -0.0486
 5273TIP3    H115783   3.009   2.486   5.313 -0.3835 -1.8506  0.1713
 5273TIP3    H215784   3.115   2.515   5.418 -0.1606  2.7640 -1.1234
 5274TIP3   OH215785   1.334   0.535   0.482 -0.2627  0.0081  0.2007
 5274TIP3    H115786   1.361   0.619   0.518  0.0174  1.3844 -2.9263
 5274TIP3    H215787   1.416   0.489   0.464 -0.3388  0.0617 -0.2830
 5275TIP3   OH215788   5.213   4.513   0.497 -0.4395 -0.1319 -0.2661
 5275TIP3    H115789   5.239   4.469   0.578 -0.8374  1.3457  0.7053
 5275TIP3    H215790   5.141   4.460   0.463 -1.3811  0.1271  1.2377
 5276TIP3   OH215791   2.725   3.827   2.900  0.1699 -0.1206  0.4592
 5276TIP3    H115792   2.746   3.916   2.870 -0.2376 -0.3097 -0.4251
 5276TIP3    H215793   2.634   3.814   2.873  0.6593 -1.3359 -0.7549
 5277TIP3   OH215794   0.311   0.152   3.069  0.4568  0.0380  0.2182
 5277TIP3    H115795   0.330   0.071   3.022  0.0145 -0.3043  0.6219
 5277TIP3    H215796   0.367   0.218   3.027  0.8244 -0.4751 -0.1069
 5278TIP3   OH215797   0.662   3.725   1.824  0.1291  0.1175  0.6112
 5278TIP3    H115798   0.662   3.812   1.785  1.3167 -0.0233  0.2599
 5278TIP3    H215799   0.733   3.728   1.889  0.1283 -0.5601  0.6484
 5279TIP3   OH215800   0.063   2.151   3.103 -0.3323  0.1570 -0.0747
 5279TIP3    H115801   0.029   2.064   3.084  1.3551 -0.8862  1.3934
 5279TIP3    H215802   0.147   2.155   3.058 -0.4236  1.0753 -0.1890
 5280TIP3   OH215803   3.520   0.089   2.067  0.2783  0.0156 -0.4734
 5280TIP3    H115804   3.552   0.109   1.979  0.8178 -0.6105 -0.4290
 5280TIP3    H215805   3.445   0.147   2.079  0.1782  0.0859 -1.3626
 5281TIP3   OH215806   3.538   6.233   2.032  0.3509  0.0634  0.2970
 5281TIP3    H115807   3.573   6.322   2.026  0.3006  0.1208  0.7547
 5281TIP3    H215808   3.606   6.178   1.995  0.6511  0.2367  0.5855
 5282TIP3   OH215809   4.325   5.040   5.123  0.2603 -0.3291  0.1014
 5282TIP3    H115810   4.299   5.111   5.182 -1.0775 -0.8773  0.2256
 5282TIP3    H215811   4.270   5.052   5.045  1.5155 -0.0196 -0.7587
 5283TIP3   OH215812   1.134   4.713   1.228  0.0054  0.0099 -0.3682
 5283TIP3    H115813   1.079   4.777   1.274  0.5981  0.0613  0.2962
 5283TIP3    H215814   1.224   4.743   1.245  0.3509 -1.7289  1.0653
 5284TIP3   OH215815   7.216   0.074   3.831 -0.2095  0.3165  0.0427
 5284TIP3    H115816   7.150   0.009   3.807  0.6259  0.4262 -3.0276
 5284TIP3    H215817   7.173   0.129   3.896 -2.0961 -1.2997  0.2671
 5285TIP3   OH215818   5.522   4.109   5.337 -0.3745  0.1777 -0.1833
 5285TIP3    H115819   5.584   4.048   5.375 -0.8950 -1.1537 -1.3806
 5285TIP3    H215820   5.523   4.090   5.243 -0.5614  2.0143 -0.6029
 5286TIP3   OH215821   1.698   1.639   5.896 -0.3505  0.2589  0.4113
 5286TIP3    H115822   1.610   1.648   5.860  0.1306  0.4892 -0.7511
 5286TIP3    H215823   1.734   1.561   5.854  0.3685  0.7589  0.0793
 5287TIP3   OH215824   6.428   2.125   3.649 -0.2376 -0.1895 -0.0359
 5287TIP3    H115825   6.388   2.198   3.601  0.1541 -0.6838 -1.1202
 5287TIP3    H215826   6.520   2.149   3.657 -0.7214  1.2258  2.9689
 5288TIP3   OH215827   0.739   6.319   1.929  0.3699  1.4930 -0.7504
 5288TIP3    H115828   0.758   6.380   1.858  0.0219  3.2549  0.5928
 5288TIP3    H215829   0.654   6.281   1.907  1.3758  0.1030 -2.4721
 5289TIP3   OH215830   6.319   5.769   5.359  0.0614  0.0870  0.4837
 5289TIP3    H115831   6.325   5.838   5.425  0.2240 -0.1672  0.7373
 5289TIP3    H215832   6.368   5.803   5.284 -1.7995  1.2576 -0.3041
 5290TIP3   OH215833   6.803   2.631   0.035 -0.4030  0.3432 -0.5531
 5290TIP3    H115834   6.861   2.557   0.055  0.9989  1.2839 -1.0118
 5290TIP3    H215835   6.835   2.666  -0.048 -1.9023  0.6530 -1.0354
 5291TIP3   OH215836   6.040   0.067   1.805  0.3610 -0.8451  0.4787
 5291TIP3    H115837   6.109   0.101   1.862 -1.8303  1.4564  1.9236
 5291TIP3    H215838   6.017   0.140   1.748 -2.8545 -0.4737  2.0469
 5292TIP3   OH215839   5.589   6.251   4.976 -0.2262 -0.4225  0.2261
 5292TIP3    H115840   5.620   6.166   5.008  1.6965 -0.7158 -2.0814
 5292TIP3    H215841   5.545   6.231   4.893  1.1153  0.8422 -0.8619
 5293TIP3   OH215842   0.072   1.406   1.410 -0.1851  0.0170 -0.1341
 5293TIP3    H115843  -0.001   1.344   1.411  1.0990 -1.5867  1.6581
 5293TIP3    H215844   0.146   1.355   1.378  0.8222  0.7087  1.0017
 5294TIP3   OH215845   3.562   0.482   5.582  0.1276  0.0531 -0.2622
 5294TIP3    H115846   3.582   0.527   5.500  0.4929 -1.5491 -1.0968
 5294TIP3    H215847   3.473   0.448   5.570 -0.0029  0.2233  0.2043
 5295TIP3   OH215848   7.081   0.412   1.016 -0.3567  0.3437  0.5935
 5295TIP3    H115849   7.075   0.501   1.048 -1.5001  0.5306 -0.0794
 5295TIP3    H215850   7.076   0.421   0.920 -1.5181 -0.4909  0.5529
 5296TIP3   OH215851   1.603   0.647   2.692 -0.8248  0.0827 -0.8510
 5296TIP3    H115852   1.619   0.665   2.784 -1.0720  0.8456 -0.9525
 5296TIP3    H215853   1.566   0.728   2.657 -2.4830 -0.7785 -1.2051
 5297TIP3   OH215854   4.352   6.408   4.016  0.3776 -0.3763 -0.3868
 5297TIP3    H115855   4.412   6.391   3.943 -0.6041 -1.4261 -0.9756
 5297TIP3    H215856   4.336   6.322   4.055  0.0750  0.0380  0.4238
 5298TIP3   OH215857   5.353   0.653   4.699  0.3971 -0.3957  0.1437
 5298TIP3    H115858   5.399   0.734   4.722 -1.3006  0.6546  0.0139
 5298TIP3    H215859   5.369   0.643   4.605  1.1761 -0.6235  0.2866
 5299TIP3   OH215860   7.028   3.607   2.281  0.5191 -0.1875  0.3333
 5299TIP3    H115861   7.076   3.685   2.254 -0.9166  0.3721 -0.7601
 5299TIP3    H215862   7.045   3.543   2.212  0.5040 -0.3407  0.4697
 5300TIP3   OH215863   0.535   1.764   3.956  0.4973 -0.0285  0.5960
 5300TIP3    H115864   0.560   1.773   4.048  0.8581  0.1133  0.4847
 5300TIP3    H215865   0.578   1.837   3.912  0.7156 -0.3725  0.2346
 5301TIP3   OH215866   5.369   1.874   2.797  0.6953  0.0740  0.0285
 5301TIP3    H115867   5.369   1.804   2.863  2.3845  0.6520  0.7130
 5301TIP3    H215868   5.462   1.894   2.785  0.2856  1.5663 -0.8377
 5302TIP3   OH215869   1.802   2.068   0.194  0.8186  0.3356  0.0572
 5302TIP3    H115870   1.717   2.040   0.159  0.5201  1.1884  0.0861
 5302TIP3    H215871   1.846   2.108   0.119  0.5684  1.2794  0.3969
 5303TIP3   OH215872   5.456   3.665   3.949  0.2468  0.2149 -0.1187
 5303TIP3    H115873   5.438   3.641   4.040 -0.4459  0.4294 -0.1909
 5303TIP3    H215874   5.380   3.717   3.922  0.9187  1.0306 -0.5004
 5304TIP3   OH215875   2.248   0.994   2.156 -0.0445 -0.2639  0.1615
 5304TIP3    H115876   2.293   1.019   2.075  0.3368 -1.6849 -0.0997
 5304TIP3    H215877   2.168   0.950   2.127  0.4623 -1.4641  0.5125
 5305TIP3   OH215878   6.830   0.738   4.013 -0.4352 -0.2628  0.4173
 5305TIP3    H115879   6.861   0.827   3.999  1.4652 -1.0923 -1.2049
 5305TIP3    H215880   6.740   0.738   3.981  0.0666  0.7141 -1.0982
 5306TIP3   OH215881   6.242   5.513   2.082  0.0175  0.0596 -0.7313
 5306TIP3    H115882   6.158   5.503   2.036  0.6925  1.1915 -2.2823
 5306TIP3    H215883   6.291   5.434   2.058 -0.2043 -0.0884 -0.7076
 5307TIP3   OH215884   6.424   6.495   5.535 -0.0177  0.3219 -0.5279
 5307TIP3    H115885   6.519   6.502   5.544  0.2392 -1.8269 -0.9047
 5307TIP3    H215886   6.407   6.525   5.446  0.0697  2.1786  0.0421
 5308TIP3   OH215887   6.248   2.828   4.930  0.4564 -0.1759 -0.7178
 5308TIP3    H115888   6.317   2.777   4.972  1.3776  0.5856 -1.2543
 5308TIP3    H215889   6.170   2.813   4.984  1.3096 -0.1643  0.5653
 5309TIP3   OH215890   1.086   5.078   2.777  0.6065  0.9791 -0.1225
 5309TIP3    H115891   1.116   5.052   2.690  0.7162 -0.8119  0.4008
 5309TIP3    H215892   1.038   5.160   2.763 -0.3161  0.1850 -2.0421
 5310TIP3   OH215893   0.969   4.439   3.994  0.2552  0.3404 -0.7163
 5310TIP3    H115894   0.936   4.526   4.018  0.9819  0.7931 -1.3490
 5310TIP3    H215895   0.957   4.386   4.074 -1.1897  0.7133 -0.6545
 5311TIP3   OH215896   0.008   3.787   4.265  0.2683  0.0363  0.0942
 5311TIP3    H115897   0.011   3.815   4.356 -0.0974  0.6818 -0.0864
 5311TIP3    H215898   0.100   3.775   4.241  0.5065  1.7919 -0.0193
 5312TIP3   OH215899   3.694   1.820   1.039  0.0055 -1.1228 -0.0647
 5312TIP3    H115900   3.599   1.837   1.040  0.1511 -0.3048  0.2228
 5312TIP3    H215901   3.732   1.895   1.083  0.9178 -0.6123 -1.6433
 5313TIP3   OH215902   6.117   4.281   5.667  0.1316  0.3347 -0.6170
 5313TIP3    H115903   6.091   4.338   5.596  0.8782  0.4885 -0.7817
 5313TIP3    H215904   6.192   4.232   5.632 -0.6286 -0.9093 -0.5644
 5314TIP3   OH215905   1.169   3.109   1.143  0.0797  0.0547  0.1122
 5314TIP3    H115906   1.076   3.130   1.138  0.1450  0.4539  0.4973
 5314TIP3    H215907   1.209   3.166   1.078  0.1772  0.6484  0.6864
 5315TIP3   OH215908   6.879   4.906   4.339  0.1122  0.1295 -0.0854
 5315TIP3    H115909   6.913   4.991   4.313  1.8633 -0.6483 -0.4991
 5315TIP3    H215910   6.822   4.879   4.267  0.4896  0.4416 -0.5067
 5316TIP3   OH215911   6.557   1.704   1.303  0.2546 -0.0976  0.5308
 5316TIP3    H115912   6.624   1.705   1.234 -0.9369  2.0657 -0.7124
 5316TIP3    H215913   6.566   1.789   1.345  0.1982 -0.9537  2.3505
 5317TIP3   OH215914   2.040   6.081   5.140  0.1738 -0.3276 -0.1323
 5317TIP3    H115915   2.069   6.120   5.058 -0.5805 -0.8679 -0.6734
 5317TIP3    H215916   2.119   6.043   5.178  0.8086  1.1254  0.1003
 5318TIP3   OH215917   0.542   4.884   2.470 -0.1678 -0.3033 -0.3357
 5318TIP3    H115918   0.504   4.964   2.507 -1.3750 -0.0701 -1.9535
 5318TIP3    H215919   0.469   4.822   2.468  0.6985 -1.3948  0.6758
 5319TIP3   OH215920   6.959   1.537   4.007 -0.5482  0.6260 -0.0174
 5319TIP3    H115921   6.927   1.619   3.969  0.0635  0.5091 -0.8037
 5319TIP3    H215922   6.881   1.499   4.048 -1.8556 -0.3496 -3.1100
 5320TIP3   OH215923   1.369   0.972   3.793 -0.1247 -0.0083  0.3893
 5320TIP3    H115924   1.401   0.954   3.881 -0.4605 -0.5549  0.4022
 5320TIP3    H215925   1.274   0.980   3.802  0.0045  1.7421  0.3695
 5321TIP3   OH215926   5.518   6.467   0.251 -0.3333 -0.2603 -0.0347
 5321TIP3    H115927   5.425   6.457   0.270 -0.6661  1.6416 -0.5080
 5321TIP3    H215928   5.530   6.424   0.166 -0.8374 -0.2201 -0.1276
 5322TIP3   OH215929   4.401   5.045   2.772  0.7192 -0.3519  0.2397
 5322TIP3    H115930   4.363   5.129   2.749  0.2365 -0.0875  1.8807
 5322TIP3    H215931   4.349   4.981   2.723  1.0595  0.2722 -0.9757
 5323TIP3   OH215932   6.103   6.788   5.405 -0.2302 -0.4492 -0.0707
 5323TIP3    H115933   6.194   6.781   5.378 -0.4603  0.6650 -1.2063
 5323TIP3    H215934   6.058   6.717   5.360 -0.3270  0.4453 -1.4413
 5324TIP3   OH215935   4.936   2.712   1.840  0.9223 -0.5739  0.4879
 5324TIP3    H115936   4.983   2.675   1.915  1.6472  0.5167  0.5952
 5324TIP3    H215937   5.005   2.735   1.778  0.7285  2.2132  1.1480
 5325TIP3   OH215938   1.523   6.416   2.104  0.1444  0.2091  0.1425
 5325TIP3    H115939   1.611   6.422   2.064  0.1392  2.6819  0.3370
 5325TIP3    H215940   1.492   6.329   2.079  2.0388 -0.1574 -1.2364
 5326TIP3   OH215941   0.151   6.268   0.482 -0.1105  0.3558  0.4248
 5326TIP3    H115942   0.061   6.239   0.493  0.4203 -1.8497 -0.5329
 5326TIP3    H215943   0.189   6.266   0.570 -0.4293 -0.8033  0.5512
 5327TIP3   OH215944   6.486   5.012   4.361 -0.0042  0.5078 -0.5043
 5327TIP3    H115945   6.393   5.010   4.386 -0.4656  1.4430 -2.0388
 5327TIP3    H215946   6.530   4.965   4.432 -1.5776  0.5048  0.5344
 5328TIP3   OH215947   6.598   3.140   3.351  0.4061 -0.5697 -0.3571
 5328TIP3    H115948   6.642   3.060   3.382  0.2970 -0.0343  1.2568
 5328TIP3    H215949   6.505   3.123   3.367  0.3928 -0.0878  0.0945
 5329TIP3   OH215950   1.906   6.072   4.447  0.1755  0.2748  0.4630
 5329TIP3    H115951   1.987   6.036   4.410 -0.1297 -0.8270  0.8358
 5329TIP3    H215952   1.843   6.070   4.376 -0.2047 -1.1598  0.8212
 5330TIP3   OH215953   2.321   4.849   0.405  0.5071  0.0279  0.3572
 5330TIP3    H115954   2.342   4.941   0.423 -0.1380  0.4201 -0.7885
 5330TIP3    H215955   2.348   4.836   0.314 -2.0834 -0.0619 -0.4801
 5331TIP3   OH215956   2.541   4.028   3.451  0.7411 -0.5380  0.0956
 5331TIP3    H115957   2.485   4.103   3.429  1.3758  0.7084  2.4969
 5331TIP3    H215958   2.608   4.027   3.383 -0.4692 -0.2476 -1.1446
 5332TIP3   OH215959   0.837   5.716   3.638  0.3477 -0.2087  0.0277
 5332TIP3    H115960   0.881   5.637   3.671  2.8016  0.7213 -0.7500
 5332TIP3    H215961   0.820   5.697   3.546  0.2120 -0.1149  0.0329
 5333TIP3   OH215962   0.571   4.888   4.378  0.1406 -0.0089  0.2787
 5333TIP3    H115963   0.547   4.949   4.308 -1.8217 -0.7178  0.2719
 5333TIP3    H215964   0.510   4.909   4.449  0.3790 -1.0278  0.7938
 5334TIP3   OH215965   3.537   1.940   3.322 -0.1827  0.0675 -0.0768
 5334TIP3    H115966   3.544   1.905   3.410  2.1776 -0.1292 -0.2951
 5334TIP3    H215967   3.456   1.992   3.323  1.1268  2.3274  3.0174
 5335TIP3   OH215968   4.451   6.398   0.050  0.0027 -0.0594  0.2516
 5335TIP3    H115969   4.531   6.360   0.087 -0.8922 -0.3672  2.0113
 5335TIP3    H215970   4.482   6.474   0.000  1.4305 -0.4731  0.4440
 5336TIP3   OH215971   2.026   0.108   4.851  0.4075 -0.3807 -0.2548
 5336TIP3    H115972   1.989   0.077   4.934  0.4300 -0.3351 -0.2274
 5336TIP3    H215973   2.120   0.116   4.868  0.2028  1.2979  0.2613
 5337TIP3   OH215974   5.844   5.452   0.167 -0.4330 -0.1097  0.0937
 5337TIP3    H115975   5.834   5.357   0.165  0.4376 -0.2097 -2.0924
 5337TIP3    H215976   5.771   5.485   0.115  0.7607  0.2175 -1.4214
 5338TIP3   OH215977   7.064   5.660   2.995  0.0186  0.4332  0.2895
 5338TIP3    H115978   6.982   5.656   3.044 -0.2217 -0.7255 -0.1671
 5338TIP3    H215979   7.046   5.721   2.923 -0.1807  0.7965  0.6436
 5339TIP3   OH215980   6.935   4.278   3.598  0.0050  0.2918  0.2689
 5339TIP3    H115981   6.924   4.184   3.609 -2.4782  0.3926 -0.6186
 5339TIP3    H215982   6.922   4.315   3.686  0.2464 -0.1366  0.4860
 5340TIP3   OH215983   5.346   6.509   4.605 -0.0976 -0.2733  0.4151
 5340TIP3    H115984   5.319   6.540   4.518 -1.4815 -0.4492  0.7467
 5340TIP3    H215985   5.308   6.573   4.665  0.5180 -0.3711  0.9048
 5341TIP3   OH215986   4.502   6.274   3.788 -0.3511  0.0088 -0.3172
 5341TIP3    H115987   4.469   6.327   3.715 -1.2812  0.1749  0.2149
 5341TIP3    H215988   4.514   6.187   3.751 -0.3136  0.2134 -0.7993
 5342TIP3   OH215989   2.766   4.107   0.059 -0.0577  0.0380 -0.1626
 5342TIP3    H115990   2.777   4.023   0.103  1.7456 -0.5484 -1.5953
 5342TIP3    H215991   2.845   4.117   0.006 -0.6203  2.2462 -0.6971
 5343TIP3   OH215992   5.927   0.140   4.571 -0.2774  0.0626 -0.1535
 5343TIP3    H115993   5.886   0.128   4.656 -0.4805 -1.8927 -0.4945
 5343TIP3    H215994   6.005   0.192   4.589  0.3801 -1.3890  1.4297
 5344TIP3   OH215995   2.211   2.927   3.546  0.2394 -0.0572  0.1070
 5344TIP3    H115996   2.277   2.934   3.477  0.3489  0.5811  0.2702
 5344TIP3    H215997   2.225   3.005   3.600  0.0640 -0.4771  0.7691
 5345TIP3   OH215998   0.217   1.816   2.111  0.0177  0.0918 -0.0115
 5345TIP3    H115999   0.297   1.798   2.160 -0.9110  2.0379  2.4486
 5345TIP3    H216000   0.169   1.733   2.113  1.3239 -0.7041 -0.2961
 5346TIP3   OH216001   3.978   5.587   0.781 -0.0394  0.6320 -0.0342
 5346TIP3    H116002   3.996   5.628   0.696  0.7210  0.1947 -0.0856
 5346TIP3    H216003   4.064   5.576   0.821 -0.2911 -0.3409  0.2456
 5347TIP3   OH216004   4.859   4.061   0.346  0.9223 -0.8013 -0.5789
 5347TIP3    H116005   4.896   4.025   0.427  1.9188 -0.4633 -0.8742
 5347TIP3    H216006   4.769   4.029   0.345 -0.1220  1.6071  2.2231
 5348TIP3   OH216007   5.009   6.244   4.001  0.5356 -0.0058  0.4363
 5348TIP3    H116008   4.924   6.219   4.038  0.6601 -1.8285 -0.3956
 5348TIP3    H216009   5.069   6.176   4.029  1.0594 -0.3832 -1.4362
 5349TIP3   OH216010   6.634   3.976   2.239 -0.5261 -0.1807 -0.1173
 5349TIP3    H116011   6.540   3.988   2.250 -0.3288  1.5644 -0.0655
 5349TIP3    H216012   6.666   3.958   2.328 -0.5171  1.7766  0.3231
 5350TIP3   OH216013   5.321   0.102   2.320 -0.0775  0.0008 -0.2228
 5350TIP3    H116014   5.257   0.049   2.273  2.5202 -1.6888 -2.0504
 5350TIP3    H216015   5.316   0.188   2.279  0.1942 -0.6837 -1.7435
 5351TIP3   OH216016   5.160   2.953   0.125  0.1835 -0.2636 -0.0443
 5351TIP3    H116017   5.252   2.942   0.101  0.4989  3.1064 -0.9327
 5351TIP3    H216018   5.116   2.972   0.041 -0.9147  0.1282  0.5967
 5352TIP3   OH216019   1.925   5.144   4.523 -0.0631  0.4028  0.1519
 5352TIP3    H116020   1.909   5.056   4.555 -1.7564  0.2241 -1.0731
 5352TIP3    H216021   1.918   5.200   4.601  0.0885 -0.4387  0.7770
 5353TIP3   OH216022   4.031   5.086   1.885  0.0045 -0.1674 -0.2964
 5353TIP3    H116023   4.088   5.081   1.808 -1.1530  0.8133 -1.2452
 5353TIP3    H216024   4.090   5.068   1.958  1.5015  0.6027 -1.2540
 5354TIP3   OH216025   6.788   5.566   0.065 -0.0963 -0.3568 -0.0029
 5354TIP3    H116026   6.833   5.504   0.123 -0.7050 -0.9663 -0.1608
 5354TIP3    H216027   6.751   5.631   0.124  1.7248  0.6772  0.0676
 5355TIP3   OH216028   3.726   0.193   2.700  0.1380 -0.0115 -0.3154
 5355TIP3    H116029   3.636   0.195   2.667 -0.2187  0.1362  0.6438
 5355TIP3    H216030   3.745   0.284   2.723 -0.0896 -0.2895  1.0796
 5356TIP3   OH216031   5.402   5.972   0.305 -0.1804  0.4795  0.3413
 5356TIP3    H116032   5.348   5.898   0.277  0.3789  0.5743 -1.0596
 5356TIP3    H216033   5.483   5.963   0.254  0.5821  1.1043  1.4078
 5357TIP3   OH216034   6.693   2.831   3.731  0.5421  0.3180  0.2685
 5357TIP3    H116035   6.766   2.889   3.754  1.2448 -0.4833  0.0986
 5357TIP3    H216036   6.723   2.743   3.755 -0.5128  0.0133  0.5303
 5358TIP3   OH216037   1.102   6.601   0.243  0.4024 -0.2095  0.4213
 5358TIP3    H116038   1.091   6.534   0.310  0.0659 -0.5955 -0.0100
 5358TIP3    H216039   1.033   6.584   0.179  1.4270 -0.6041 -0.6372
 5359TIP3   OH216040   5.139   5.050   0.927  0.0423 -0.0981 -0.1480
 5359TIP3    H116041   5.125   4.972   0.873 -1.5576  0.8112 -1.1145
 5359TIP3    H216042   5.189   5.109   0.871 -2.8236  1.4093 -1.2745
 5360TIP3   OH216043   3.198   2.380   4.116  0.2104 -0.3065  0.1651
 5360TIP3    H116044   3.167   2.322   4.186  0.7951 -0.3917  0.3663
 5360TIP3    H216045   3.292   2.388   4.133  0.2486  0.1633 -0.2594
 5361TIP3   OH216046   3.028   3.399   1.174 -0.0778  0.1355 -0.5669
 5361TIP3    H116047   3.022   3.485   1.216  1.0941 -0.3135  0.5792
 5361TIP3    H216048   3.122   3.387   1.158 -0.0890 -1.3852  0.3074
 5362TIP3   OH216049   6.349   1.508   2.213 -0.1189 -0.5105  0.1519
 5362TIP3    H116050   6.400   1.581   2.180 -2.1816  0.2277 -1.6732
 5362TIP3    H216051   6.323   1.534   2.301 -2.1395  1.7817 -1.0153
 5363TIP3   OH216052   5.005   1.048   0.905 -0.2167  0.4767 -0.0667
 5363TIP3    H116053   5.003   1.101   0.985 -0.1973  0.4464 -0.0462
 5363TIP3    H216054   4.964   0.965   0.930 -0.9864  0.7691 -0.3061
 5364TIP3   OH216055   6.654   5.211   1.954  0.0278 -0.3050  0.3179
 5364TIP3    H116056   6.685   5.125   1.982 -1.5530 -1.8647 -2.2446
 5364TIP3    H216057   6.651   5.205   1.858 -1.0935  2.2529  0.1173
 5365TIP3   OH216058   5.520   6.592   3.399  0.1083 -1.4549  0.2247
 5365TIP3    H116059   5.445   6.601   3.341  1.6191  1.0328 -1.5140
 5365TIP3    H216060   5.552   6.503   3.382 -1.3850 -1.9249 -0.3028
 5366TIP3   OH216061   6.213   0.859   3.130  0.0728 -0.2513  0.7222
 5366TIP3    H116062   6.299   0.901   3.129 -0.0406 -0.0094  1.0263
 5366TIP3    H216063   6.159   0.916   3.186  0.1066 -1.1737  1.7201
 5367TIP3   OH216064   2.047   6.434   4.812 -0.0730 -0.1520 -0.2853
 5367TIP3    H116065   2.082   6.510   4.764  3.0778 -2.0850 -1.3933
 5367TIP3    H216066   1.993   6.388   4.748 -0.6905  0.3314 -0.1126
 5368TIP3   OH216067   0.792   6.732   1.240  0.7746 -0.4068 -0.4953
 5368TIP3    H116068   0.776   6.739   1.146 -2.1515 -0.4984 -0.1244
 5368TIP3    H216069   0.709   6.761   1.280  0.7926 -3.2526  1.9622
 5369TIP3   OH216070   0.976   4.523   2.323  0.3712 -0.2241 -0.7637
 5369TIP3    H116071   1.030   4.586   2.274 -2.0676  2.6039 -0.1034
 5369TIP3    H216072   0.947   4.572   2.400 -3.3314 -1.3914 -1.2241
 5370TIP3   OH216073   3.611   1.930   3.974 -0.5750 -0.6652  0.0355
 5370TIP3    H116074   3.604   2.007   3.916 -1.3057 -0.3361  0.5402
 5370TIP3    H216075   3.528   1.929   4.021  0.3684 -0.3653  1.7775
 5371TIP3   OH216076   5.653   0.981   5.187  0.6094  0.1783 -0.1214
 5371TIP3    H116077   5.571   0.988   5.139 -0.9257 -0.3763  2.2807
 5371TIP3    H216078   5.687   1.071   5.189  0.0686  0.4211 -1.1181
 5372TIP3   OH216079   5.416   1.183   1.184 -0.0880  0.4268 -0.1663
 5372TIP3    H116080   5.461   1.099   1.190 -0.2875  0.3547  0.3289
 5372TIP3    H216081   5.387   1.188   1.093  1.6391  0.8505 -0.7345
 5373TIP3   OH216082   6.585   1.825   3.587 -0.6158 -0.2268 -1.0218
 5373TIP3    H116083   6.587   1.887   3.514 -0.7312 -0.2864 -1.0766
 5373TIP3    H216084   6.512   1.767   3.567  0.8792 -1.8184 -2.1425
 5374TIP3   OH216085   3.507   0.542   0.603 -0.4799 -0.4500 -0.0944
 5374TIP3    H116086   3.507   0.571   0.694  2.7315  0.0255 -0.1185
 5374TIP3    H216087   3.489   0.622   0.553 -0.7819 -0.4070  0.0828
 5375TIP3   OH216088   1.767   6.100   2.020  0.4550 -0.0590  0.5091
 5375TIP3    H116089   1.703   6.053   2.072  0.4867 -1.0803 -0.3301
 5375TIP3    H216090   1.834   6.035   1.999 -0.4276 -0.2194 -2.2532
 5376TIP3   OH216091   0.359   3.819   2.723  0.4560  0.0799  0.1706
 5376TIP3    H116092   0.415   3.758   2.676  0.9149  0.3056  0.4226
 5376TIP3    H216093   0.393   3.819   2.813 -0.4772 -0.4386  0.5380
 5377TIP3   OH216094   4.202   0.984   5.000 -0.0260  0.4775 -0.2061
 5377TIP3    H116095   4.294   0.957   4.994 -0.4749 -1.2057 -0.2157
 5377TIP3    H216096   4.169   0.937   5.076 -0.8458  1.2164 -0.0966
 5378TIP3   OH216097   5.894   1.290   4.726  0.1389 -0.5032 -0.7450
 5378TIP3    H116098   5.982   1.252   4.733 -0.0506 -0.8441 -0.0396
 5378TIP3    H216099   5.906   1.370   4.676  0.5663 -1.4566 -2.2168
 5379TIP3   OH216100   3.909   0.773   1.124 -0.3963  0.3865  0.1736
 5379TIP3    H116101   3.888   0.744   1.035  1.4096  0.2308 -0.2269
 5379TIP3    H216102   3.826   0.764   1.172 -1.3029  0.0939 -1.3783
 5380TIP3   OH216103   5.621   6.668   5.236 -0.4558  0.8458 -0.1657
 5380TIP3    H116104   5.650   6.739   5.179  0.6343 -0.5990 -1.5116
 5380TIP3    H216105   5.586   6.601   5.177  0.9742 -0.8292  0.7535
 5381TIP3   OH216106   4.114   3.936   5.370  0.5584 -0.6170  0.6426
 5381TIP3    H116107   4.202   3.913   5.400  1.1914 -1.2422 -1.4903
 5381TIP3    H216108   4.082   3.855   5.329 -0.3782  0.0682 -0.0027
 5382TIP3   OH216109   1.756   1.938   2.304  0.2012 -0.3819  0.2339
 5382TIP3    H116110   1.696   1.872   2.271 -0.4720 -0.3090  1.2637
 5382TIP3    H216111   1.780   1.907   2.392  0.4604  0.3638  0.4351
 5383TIP3   OH216112   0.884   2.897   4.987 -0.2556 -0.5533  0.1568
 5383TIP3    H116113   0.963   2.868   5.033 -0.3404 -0.0315  0.6565
 5383TIP3    H216114   0.909   2.980   4.946  0.0831 -1.4615 -1.5352
 5384TIP3   OH216115   6.428   0.522   3.295  1.4260  0.2707  0.1165
 5384TIP3    H116116   6.356   0.528   3.231 -0.1875 -1.2374  1.6624
 5384TIP3    H216117   6.507   0.540   3.244 -0.0173  2.0240 -1.6727
 5385TIP3   OH216118   6.947   3.794   1.976  0.0211  0.5464  0.5150
 5385TIP3    H116119   7.003   3.826   2.047 -2.0291  1.7596  1.7038
 5385TIP3    H216120   6.862   3.835   1.993 -1.4271 -1.7347 -0.7914
 5386TIP3   OH216121   7.030   6.559   4.627  0.6843 -0.0138  0.0445
 5386TIP3    H116122   6.951   6.566   4.681  1.2333 -0.6331  0.9698
 5386TIP3    H216123   6.999   6.531   4.541 -0.0389 -1.0087  0.6100
 5387TIP3   OH216124   5.692   2.488   5.678 -0.3741 -0.4116 -0.4073
 5387TIP3    H116125   5.760   2.472   5.613 -1.2480  0.4136 -1.5700
 5387TIP3    H216126   5.610   2.487   5.627 -1.0953  0.0749  0.7137
 5388TIP3   OH216127   4.564   2.681   2.285  0.2114 -0.5053  0.0689
 5388TIP3    H116128   4.481   2.691   2.239  1.2221  0.8010 -1.6172
 5388TIP3    H216129   4.569   2.757   2.343 -0.4599 -1.4467  1.4122
 5389TIP3   OH216130   6.576   0.684   3.937 -0.3974  0.0155 -0.0305
 5389TIP3    H116131   6.528   0.755   3.980 -0.9629  0.9915 -2.1521
 5389TIP3    H216132   6.523   0.606   3.954 -1.1415  0.5527  0.1659
 5390TIP3   OH216133   3.064   5.069   1.243  0.0783 -0.0545 -0.0009
 5390TIP3    H116134   3.111   5.090   1.324 -0.1079  0.4042 -0.0084
 5390TIP3    H216135   3.129   5.080   1.174  0.5526 -1.5394  0.1693
 5391TIP3   OH216136   0.898   1.771   1.856 -0.1227 -0.2531  0.0678
 5391TIP3    H116137   0.834   1.725   1.910 -0.5808 -0.3668 -0.5693
 5391TIP3    H216138   0.982   1.752   1.898 -0.4648 -0.3675  0.7222
 5392TIP3   OH216139   6.092   3.620   3.848  0.0628 -0.3313  0.2385
 5392TIP3    H116140   6.113   3.675   3.924  0.6809  1.2588 -1.0360
 5392TIP3    H216141   6.009   3.577   3.873  0.5826 -0.3841  2.0551
 5393TIP3   OH216142   1.959   0.485   2.557  0.3401 -0.3084  0.4238
 5393TIP3    H116143   2.047   0.461   2.527 -0.2613 -0.5284 -1.3025
 5393TIP3    H216144   1.903   0.415   2.522 -0.4391 -0.6353  2.2344
 5394TIP3   OH216145   2.694   3.134   5.237 -0.4994  0.3462  0.9638
 5394TIP3    H116146   2.638   3.087   5.300  0.3393  0.8708  2.1266
 5394TIP3    H216147   2.764   3.171   5.290 -0.4615  1.8809 -0.1086
 5395TIP3   OH216148   2.208   1.403   1.552  0.4704 -0.2446  0.0171
 5395TIP3    H116149   2.223   1.436   1.641 -1.7105  0.2044  0.2778
 5395TIP3    H216150   2.205   1.482   1.497  2.3644 -0.5563 -0.5820
 5396TIP3   OH216151   4.936   6.469   5.803  0.0808 -0.6508  0.4199
 5396TIP3    H116152   4.878   6.517   5.743  0.0497 -0.3915  0.6541
 5396TIP3    H216153   4.973   6.399   5.749  1.7988  0.8964 -0.5526
 5397TIP3   OH216154   4.855   4.625   1.652  0.7617 -0.0271 -0.2533
 5397TIP3    H116155   4.885   4.542   1.688  0.5164  0.9649  2.4891
 5397TIP3    H216156   4.933   4.665   1.614  1.0316 -1.1410 -0.8979
 5398TIP3   OH216157   7.173   5.929   4.423  0.3753 -0.6008 -0.3126
 5398TIP3    H116158   7.150   5.920   4.515 -2.2145 -0.8306 -0.9169
 5398TIP3    H216159   7.181   5.840   4.391  1.5915 -0.5233 -0.2737
 5399TIP3   OH216160   7.241   0.678   1.549  0.3248 -0.8613  0.3616
 5399TIP3    H116161   7.176   0.625   1.503  1.5954 -1.6100 -0.6496
 5399TIP3    H216162   7.192   0.722   1.618 -1.3432 -0.9939 -0.6785
 5400TIP3   OH216163   5.891   2.192   2.069 -0.3672 -0.2892 -0.0893
 5400TIP3    H116164   5.882   2.167   2.161  0.3578  1.1689  0.4072
 5400TIP3    H216165   5.985   2.208   2.058 -0.5890  0.6175 -0.7804
 5401TIP3   OH216166   4.316   0.283   3.849 -0.5499 -0.4501  0.7021
 5401TIP3    H116167   4.344   0.337   3.775  0.1750 -2.2184 -0.3886
 5401TIP3    H216168   4.221   0.291   3.849 -0.4704  0.7539  0.5394
 5402TIP3   OH216169   0.651   2.269   3.328  0.1000 -0.0502  0.0683
 5402TIP3    H116170   0.743   2.251   3.349  0.4192  3.2657  2.3631
 5402TIP3    H216171   0.656   2.326   3.250 -0.0253 -0.1228  0.0079
 5403TIP3   OH216172   2.323   5.487   2.520  0.0289  0.1484 -0.0228
 5403TIP3    H116173   2.293   5.535   2.597  0.8792  1.4813 -0.4772
 5403TIP3    H216174   2.243   5.447   2.484 -0.5026  0.1801  1.0790
 5404TIP3   OH216175   6.329   6.355   5.173 -0.0995 -0.2020  0.1061
 5404TIP3    H116176   6.403   6.298   5.192 -0.5712 -1.0415 -0.5181
 5404TIP3    H216177   6.252   6.302   5.193 -0.5466  0.3677 -0.0714
 5405TIP3   OH216178   1.037   1.861   5.105 -0.0177  0.9605  0.1389
 5405TIP3    H116179   1.017   1.883   5.014 -1.2258 -1.3814 -0.2341
 5405TIP3    H216180   0.953   1.868   5.151 -0.2482 -1.5757  0.2063
 5406TIP3   OH216181   1.301   3.172   5.468 -0.4226  0.9477 -0.3817
 5406TIP3    H116182   1.272   3.140   5.383 -0.9810  0.2717  0.0511
 5406TIP3    H216183   1.379   3.120   5.487 -0.6999  0.6003 -0.1739
 5407TIP3   OH216184   5.144   5.641   5.253  0.1912  0.1742  0.3910
 5407TIP3    H116185   5.052   5.660   5.237  0.1599 -0.3079 -0.0112
 5407TIP3    H216186   5.144   5.589   5.334  0.0435 -0.4765 -0.0237
 5408TIP3   OH216187   0.533   0.306   3.640 -0.1165 -0.1584 -0.0800
 5408TIP3    H116188   0.576   0.381   3.681  0.1566 -0.0558 -0.5478
 5408TIP3    H216189   0.520   0.244   3.712  0.4359 -0.0186  0.1460
 5409TIP3   OH216190   2.716   0.787   5.312  0.4036  0.0800  0.1317
 5409TIP3    H116191   2.799   0.756   5.275  2.2273  1.0683  3.0150
 5409TIP3    H216192   2.742   0.857   5.372 -2.0832 -1.6801  3.6271
 5410TIP3   OH216193   6.865   0.462   3.915 -0.1408 -0.2849 -0.9420
 5410TIP3    H116194   6.855   0.481   3.822 -0.4457  0.2248 -0.8085
 5410TIP3    H216195   6.857   0.547   3.958 -3.1195 -0.8455 -0.1998
 5411TIP3   OH216196   6.685   5.133   1.243 -0.8034 -0.1094  0.1847
 5411TIP3    H116197   6.766   5.093   1.275 -0.9457 -0.8946 -0.4051
 5411TIP3    H216198   6.674   5.212   1.297  0.5479  0.2181  0.0238
 5412TIP3   OH216199   6.819   4.211   2.915 -0.3226 -0.3103 -0.4118
 5412TIP3    H116200   6.769   4.287   2.884 -1.4853 -0.7939  0.2305
 5412TIP3    H216201   6.900   4.249   2.948 -0.7210  0.6186 -0.4476
 5413TIP3   OH216202   3.858   3.427   2.541  0.2460 -0.4188 -0.0265
 5413TIP3    H116203   3.894   3.458   2.458 -0.3897  1.0886  0.2192
 5413TIP3    H216204   3.881   3.334   2.545 -0.4009 -0.7227 -2.2579
 5414TIP3   OH216205   0.654   1.913   4.775 -0.0702  0.4299  0.0476
 5414TIP3    H116206   0.624   1.994   4.734 -2.0794 -0.5867 -0.5970
 5414TIP3    H216207   0.577   1.877   4.818  0.0787 -2.3843 -1.8019
 5415TIP3   OH216208   6.310   4.534   2.838  0.2066  0.0541  0.1051
 5415TIP3    H116209   6.316   4.482   2.918 -0.5428  0.8235  0.6825
 5415TIP3    H216210   6.293   4.471   2.769 -0.2496 -0.5129  0.7239
 5416TIP3   OH216211   1.206   4.358   3.747 -0.8370  0.8049  0.0834
 5416TIP3    H116212   1.111   4.350   3.741 -0.8111 -1.9943  1.4647
 5416TIP3    H216213   1.229   4.305   3.823  1.7858  2.0882  0.2870
 5417TIP3   OH216214   1.456   1.922   5.151 -0.2349  0.1294 -0.2833
 5417TIP3    H116215   1.385   1.866   5.120 -1.3732 -0.4946  3.0131
 5417TIP3    H216216   1.416   2.009   5.159 -0.2374  0.0833  0.2494
 5418TIP3   OH216217   1.575   0.189   2.788 -0.2058  0.1124  0.3310
 5418TIP3    H116218   1.566   0.129   2.863 -2.0528 -0.0639 -0.0024
 5418TIP3    H216219   1.635   0.256   2.820  0.0738 -0.6512  1.5215
 5419TIP3   OH216220   1.721   4.727   4.236  0.3212 -0.1251  0.0731
 5419TIP3    H116221   1.801   4.767   4.270 -0.1799  0.8041  0.1977
 5419TIP3    H216222   1.650   4.768   4.286 -0.3252  0.1222 -0.9971
 5420TIP3   OH216223   6.038   5.032   5.827  0.0063  0.5295 -0.0361
 5420TIP3    H116224   6.071   4.995   5.745  0.0760  0.4431  0.0314
 5420TIP3    H216225   6.014   4.956   5.880 -2.7868  0.5648 -1.0792
 5421TIP3   OH216226   0.656   5.481   2.386  0.1874  0.2600  0.3163
 5421TIP3    H116227   0.731   5.538   2.401 -0.3379  1.1394 -0.3211
 5421TIP3    H216228   0.664   5.457   2.293 -0.5318  0.6755  0.1442
 5422TIP3   OH216229   3.996   1.097   5.308 -0.5885 -0.3353 -0.4045
 5422TIP3    H116230   3.963   1.022   5.258  0.8378 -0.3079 -1.4664
 5422TIP3    H216231   4.075   1.063   5.351  0.3756  0.6607 -1.3330
 5423TIP3   OH216232   1.598   1.212   3.293  0.1683 -0.0168 -0.3556
 5423TIP3    H116233   1.588   1.190   3.385  0.2360  0.8559 -0.1314
 5423TIP3    H216234   1.554   1.140   3.246  0.8797 -0.9100  0.3095
 5424TIP3   OH216235   0.362   0.910   0.716  0.2878  0.4197  0.0998
 5424TIP3    H116236   0.413   0.987   0.689  2.2288 -1.4374 -1.8665
 5424TIP3    H216237   0.426   0.840   0.726 -1.5773 -1.3692  0.3304
 5425TIP3   OH216238   6.880   0.296   3.469  0.7329  0.1241  0.1040
 5425TIP3    H116239   6.846   0.236   3.535  2.5907  0.1339  1.1590
 5425TIP3    H216240   6.872   0.383   3.509  3.1200  0.0091  0.9818
 5426TIP3   OH216241   6.171   5.426   0.918 -0.3393  0.5462  0.5301
 5426TIP3    H116242   6.176   5.332   0.931  0.4527 -0.0399 -2.9410
 5426TIP3    H216243   6.095   5.439   0.860  0.6815  1.7416 -0.6262
 5427TIP3   OH216244   4.524   2.658   5.582 -0.0614  0.2418  0.2789
 5427TIP3    H116245   4.549   2.636   5.492  2.6489  0.3566  0.9043
 5427TIP3    H216246   4.515   2.574   5.626 -1.7262  0.1747 -0.1346
 5428TIP3   OH216247   0.518   1.433   2.141  0.2269  0.6028  0.3479
 5428TIP3    H116248   0.505   1.338   2.144  0.7545  0.4911 -0.6499
 5428TIP3    H216249   0.556   1.454   2.227  0.5417 -0.1538  0.4054
 5429TIP3   OH216250   5.690   1.247   3.220  0.3057  0.0971  0.0758
 5429TIP3    H116251   5.781   1.267   3.196  0.8052 -2.4855 -0.5579
 5429TIP3    H216252   5.646   1.232   3.137 -0.1545 -0.6925  0.4511
 5430TIP3   OH216253   1.311   0.346   1.525  0.8273  0.2398  0.3106
 5430TIP3    H116254   1.248   0.276   1.508  0.7605  0.2601  0.4693
 5430TIP3    H216255   1.319   0.348   1.621  3.1783 -1.6303  0.2475
 5431TIP3   OH216256   1.079   6.267   3.439 -0.3524  0.1852  0.2220
 5431TIP3    H116257   1.174   6.269   3.431  0.1388  1.5841  4.1259
 5431TIP3    H216258   1.050   6.351   3.405 -0.1389 -0.0008 -0.4283
 5432TIP3   OH216259   2.206   2.785   1.118 -0.4179  0.0840 -0.1744
 5432TIP3    H116260   2.116   2.760   1.098  0.1599 -1.0310 -1.6599
 5432TIP3    H216261   2.229   2.733   1.195 -0.2717 -1.7054 -1.3387
 5433TIP3   OH216262   2.502   6.092   0.752 -0.1719 -0.4648 -0.1008
 5433TIP3    H116263   2.565   6.093   0.679  1.8564  0.9820  1.5427
 5433TIP3    H216264   2.554   6.064   0.827 -1.4489  0.9074  1.3537
 5434TIP3   OH216265   2.905   2.324   4.032 -0.0698 -0.1522  0.2499
 5434TIP3    H116266   2.915   2.246   4.085 -1.5363 -0.2992  0.3466
 5434TIP3    H216267   2.854   2.296   3.956 -1.7270  0.9298  0.9021
 5435TIP3   OH216268   3.337   5.784   0.417  0.3741  0.1270 -0.2483
 5435TIP3    H116269   3.407   5.720   0.405 -0.1005 -0.3279 -0.6813
 5435TIP3    H216270   3.380   5.869   0.411  1.1807 -0.1307  1.3709
 5436TIP3   OH216271   2.791   0.106   3.518  0.0570  0.3183  0.0920
 5436TIP3    H116272   2.742   0.186   3.502  0.5931  0.5285 -0.5367
 5436TIP3    H216273   2.883   0.134   3.522  0.1747 -0.1307  0.8251
 5437TIP3   OH216274   5.551   4.681   3.344 -0.3390 -0.4771 -0.0348
 5437TIP3    H116275   5.456   4.681   3.356 -0.0645 -0.4754  2.4570
 5437TIP3    H216276   5.577   4.773   3.353  0.0655 -0.6842  1.0785
 5438TIP3   OH216277   6.772   3.548   3.815 -0.0973  0.1083 -0.1898
 5438TIP3    H116278   6.677   3.537   3.805  0.1661 -2.0482 -0.7665
 5438TIP3    H216279   6.808   3.460   3.803  1.9355  0.7585  0.7011
 5439TIP3   OH216280   6.270   5.420   0.656  0.1925 -0.1456 -0.9003
 5439TIP3    H116281   6.251   5.404   0.748  1.4101  0.3378 -0.5385
 5439TIP3    H216282   6.186   5.409   0.611  0.1314 -3.6682 -0.2155
 5440TIP3   OH216283   6.397   3.350   1.337  0.1017 -0.1106 -0.3896
 5440TIP3    H116284   6.383   3.418   1.404 -0.0753  0.1939 -0.7329
 5440TIP3    H216285   6.327   3.364   1.274  1.5554  1.0428 -1.8152
 5441TIP3   OH216286   1.620   2.560   1.998 -0.2935 -0.0748  0.1887
 5441TIP3    H116287   1.569   2.611   1.935  0.3714  1.4462  0.8506
 5441TIP3    H216288   1.693   2.617   2.022  1.7004 -2.1397 -0.6374
 5442TIP3   OH216289   2.589   1.377   5.682  0.1165  0.8237  0.5258
 5442TIP3    H116290   2.522   1.316   5.652  2.8978 -2.1283 -0.2359
 5442TIP3    H216291   2.607   1.351   5.772  2.4042 -0.6988 -0.2834
 5443TIP3   OH216292   3.921   0.840   1.939  0.1093 -0.6124  0.1550
 5443TIP3    H116293   3.890   0.931   1.941 -0.0069 -0.6619  0.9025
 5443TIP3    H216294   3.897   0.809   1.852 -0.7104 -0.2153  0.2269
 5444TIP3   OH216295   3.954   6.191   3.017  0.3976 -0.2069  0.2672
 5444TIP3    H116296   4.011   6.120   2.988  0.0417 -0.7287  0.8222
 5444TIP3    H216297   3.892   6.150   3.076 -0.8502  0.2715 -0.6742
 5445TIP3   OH216298   3.011   5.968   5.301 -0.4164  0.2962  0.3478
 5445TIP3    H116299   2.953   6.004   5.368 -0.1087  0.1712  0.6835
 5445TIP3    H216300   3.078   6.036   5.288 -1.0606  0.7772 -0.5979
 5446TIP3   OH216301   4.112   6.788   4.278  0.2423  0.2240  0.0147
 5446TIP3    H116302   4.133   6.705   4.235  1.7211  0.7798 -0.3838
 5446TIP3    H216303   4.031   6.817   4.236 -1.1085 -1.6685  1.1307
 5447TIP3   OH216304   4.031   1.631   3.738 -0.3587  0.0913 -0.3172
 5447TIP3    H116305   4.108   1.606   3.686  0.7628  2.1141  0.2935
 5447TIP3    H216306   4.027   1.726   3.732 -3.9508  0.0004 -1.8410
 5448TIP3   OH216307   4.376   4.687   2.930  0.4455  0.0111 -0.7624
 5448TIP3    H116308   4.285   4.675   2.903 -0.3299 -0.1319  1.6878
 5448TIP3    H216309   4.386   4.782   2.939 -0.1458 -0.0601  0.9744
 5449TIP3   OH216310   1.900   3.360   4.210 -0.3407  0.4250  0.1516
 5449TIP3    H116311   1.913   3.266   4.195  0.6441  0.9011 -2.5907
 5449TIP3    H216312   1.806   3.369   4.227 -0.5069 -1.0163  0.0862
 5450TIP3   OH216313   2.658   5.765   0.650  0.2510 -0.3030 -0.2673
 5450TIP3    H116314   2.668   5.670   0.651  1.3425 -0.2771  2.8868
 5450TIP3    H216315   2.727   5.797   0.707  0.5982  2.5351 -2.1014
 5451TIP3   OH216316   5.335   4.647   1.591 -0.0910 -0.1711  0.4242
 5451TIP3    H116317   5.255   4.618   1.549  1.2520 -1.9108 -1.1148
 5451TIP3    H216318   5.323   4.741   1.605 -2.1956 -0.3199 -0.1004
 5452TIP3   OH216319   4.068   1.240   1.807  0.0178 -0.1424 -0.2802
 5452TIP3    H116320   3.983   1.272   1.836 -0.3070 -0.7516 -0.5335
 5452TIP3    H216321   4.131   1.305   1.837 -0.5438  0.3209 -0.1110
 5453TIP3   OH216322   2.040   0.995   1.277 -0.3723  0.2802 -0.2287
 5453TIP3    H116323   2.092   1.002   1.357  1.6810 -1.5379 -1.2690
 5453TIP3    H216324   2.049   1.080   1.234  1.7622  0.0723 -0.2971
 5454TIP3   OH216325   0.505   5.434   4.000 -0.3470  0.0738 -0.3132
 5454TIP3    H116326   0.540   5.498   4.062  1.0574  1.6585 -2.5906
 5454TIP3    H216327   0.565   5.359   4.006 -0.9382 -0.3048  1.0759
 5455TIP3   OH216328   4.189   0.068   0.899 -0.5594  0.1775 -0.2352
 5455TIP3    H116329   4.278   0.081   0.866  0.1750 -2.2168  0.5807
 5455TIP3    H216330   4.133   0.112   0.834  1.0294 -1.0800 -2.6335
 5456TIP3   OH216331   6.976   5.219   4.478  0.2200 -0.3290 -0.2842
 5456TIP3    H116332   6.962   5.313   4.476 -0.4096 -0.4198 -0.4686
 5456TIP3    H216333   6.997   5.196   4.387  0.5813 -0.3341 -0.1981
 5457TIP3   OH216334   0.548   6.036   1.636 -0.1796  0.2189 -0.1016
 5457TIP3    H116335   0.468   6.051   1.587 -0.2382 -0.1473 -0.1188
 5457TIP3    H216336   0.606   6.107   1.610 -0.5640  0.5951  0.0532
 5458TIP3   OH216337   5.776   3.848   2.967  0.5758  0.0637  0.1460
 5458TIP3    H116338   5.780   3.759   3.003 -0.8561 -0.1989 -0.2702
 5458TIP3    H216339   5.775   3.905   3.044  0.3957 -0.3404  0.4501
 5459TIP3   OH216340   2.786   3.123   5.650 -0.3634  0.0087 -0.6078
 5459TIP3    H116341   2.848   3.050   5.646 -0.3927 -0.1133  0.7205
 5459TIP3    H216342   2.733   3.106   5.728 -2.2589 -0.0192 -1.8276
 5460TIP3   OH216343   4.821   3.680   3.978 -0.0140 -0.2643  0.0593
 5460TIP3    H116344   4.741   3.679   4.030 -0.4481  0.1522 -0.5849
 5460TIP3    H216345   4.880   3.740   4.024 -0.5393  0.4103 -0.1321
 5461TIP3   OH216346   0.947   4.288   3.745  0.2903 -0.1992  0.1729
 5461TIP3    H116347   0.941   4.199   3.780 -1.2374  0.0081  0.5239
 5461TIP3    H216348   0.938   4.345   3.822  1.5716  0.2802 -0.0054
 5462TIP3   OH216349   4.851   1.253   0.082  0.3233 -0.1222 -0.2217
 5462TIP3    H116350   4.794   1.279   0.155  0.0054  0.0793 -0.5419
 5462TIP3    H216351   4.939   1.256   0.119  0.5096  2.9939 -0.6420
 5463TIP3   OH216352   0.688   1.066   0.432  0.5332 -0.1254 -0.4487
 5463TIP3    H116353   0.712   1.156   0.451 -3.9207  1.1266  0.4558
 5463TIP3    H216354   0.699   1.020   0.515 -0.9287  0.6710  0.2345
 5464TIP3   OH216355   5.195   1.862   0.725 -0.0673  0.1063  0.0556
 5464TIP3    H116356   5.148   1.921   0.784  0.6591  0.8963 -0.1279
 5464TIP3    H216357   5.266   1.826   0.779  0.3651  0.5328 -0.2199
 5465TIP3   OH216358   3.626   6.667   4.648 -0.0837 -0.1380 -0.3545
 5465TIP3    H116359   3.620   6.762   4.634  0.1708  0.0763  0.8735
 5465TIP3    H216360   3.537   6.642   4.675  0.4341  0.2288  1.8743
 5466TIP3   OH216361   1.076   5.416   1.915  0.1769  0.6268  0.4219
 5466TIP3    H116362   1.143   5.385   1.977 -0.3546 -0.6936  0.3798
 5466TIP3    H216363   1.044   5.498   1.954  1.2420  0.8596  0.8536
 5467TIP3   OH216364   4.229   5.239   5.302 -0.7592 -0.5258  0.4719
 5467TIP3    H116365   4.201   5.218   5.391  0.6669  1.1345  1.3789
 5467TIP3    H216366   4.154   5.283   5.264 -1.4701 -1.4580  0.7531
 5468TIP3   OH216367   3.210   5.251   5.838  0.0165 -0.4210  0.1998
 5468TIP3    H116368   3.187   5.263   5.930  0.8950 -0.9773  0.5180
 5468TIP3    H216369   3.134   5.208   5.799 -0.3425 -0.2289  0.6849
 5469TIP3   OH216370   2.571   2.151   0.405 -0.1313  0.3894  0.5839
 5469TIP3    H116371   2.507   2.166   0.474  0.0294 -0.0891  0.8404
 5469TIP3    H216372   2.518   2.121   0.330 -0.3446  1.2758  0.3733
 5470TIP3   OH216373   1.122   3.868   4.524 -0.0925 -0.2848  0.0009
 5470TIP3    H116374   1.197   3.835   4.475 -1.3327 -1.1639 -1.3923
 5470TIP3    H216375   1.046   3.834   4.477 -1.3766  0.6897  1.2866
 5471TIP3   OH216376   0.455   5.067   2.661 -0.0136  0.1483 -0.7590
 5471TIP3    H116377   0.440   5.160   2.679  0.3340 -0.2633  2.0322
 5471TIP3    H216378   0.521   5.040   2.724 -0.9796 -2.2850 -0.6697
 5472TIP3   OH216379   5.962   5.869   4.234  0.0160  0.3150  0.1672
 5472TIP3    H116380   5.894   5.936   4.223 -0.0032  0.1422 -0.9633
 5472TIP3    H216381   5.918   5.797   4.279  0.0908  1.1244  1.5748
 5473TIP3   OH216382   3.332   4.788   1.503  0.2232 -0.3806  0.3592
 5473TIP3    H116383   3.305   4.709   1.551 -1.5236  0.4906  0.8783
 5473TIP3    H216384   3.350   4.756   1.415  2.6149 -1.8589  1.2873
 5474TIP3   OH216385   2.294   6.719   5.360  0.2714 -0.2280 -0.0279
 5474TIP3    H116386   2.235   6.670   5.417 -0.2751  2.3522  1.7824
 5474TIP3    H216387   2.235   6.771   5.305  0.8426 -0.1715 -0.5926
 5475TIP3   OH216388   2.006   1.319   0.877  0.1313  0.2618 -0.8423
 5475TIP3    H116389   1.928   1.314   0.822  1.3125  0.3403 -2.6392
 5475TIP3    H216390   2.061   1.385   0.835  1.2109  0.1505  0.3088
 5476TIP3   OH216391   2.775   6.707   0.836  0.2474 -0.1953  0.2546
 5476TIP3    H116392   2.775   6.694   0.741  0.8639  0.7133  0.1191
 5476TIP3    H216393   2.691   6.671   0.865 -0.1741 -0.0088 -0.6945
 5477TIP3   OH216394   1.818   0.020   2.365  0.3186 -0.1782 -0.2410
 5477TIP3    H116395   1.749   0.000   2.428 -0.1427 -0.0491 -0.6964
 5477TIP3    H216396   1.778   0.005   2.280  0.7893  0.0990 -0.5185
 5478TIP3   OH216397   0.353   0.681   3.844 -0.1711 -0.7871  0.5271
 5478TIP3    H116398   0.384   0.649   3.929  1.6656 -0.4612  0.0214
 5478TIP3    H216399   0.431   0.718   3.802 -1.1163 -0.5897 -1.1521
 5479TIP3   OH216400   5.192   0.126   2.005 -0.1698 -0.1899  0.6845
 5479TIP3    H116401   5.284   0.136   1.983 -0.6776 -0.7849 -2.0039
 5479TIP3    H216402   5.179   0.031   2.010 -0.7853 -0.1211  0.4187
 5480TIP3   OH216403   6.428   2.668   5.065  0.3238 -0.3724  0.6092
 5480TIP3    H116404   6.479   2.635   5.139 -0.2524 -1.8070  0.3969
 5480TIP3    H216405   6.493   2.693   5.000  0.7982 -0.5871  0.9973
 5481TIP3   OH216406   2.776   2.819   1.335 -0.2348 -0.2339 -0.1559
 5481TIP3    H116407   2.817   2.803   1.251 -1.0220 -1.5231 -0.3307
 5481TIP3    H216408   2.719   2.895   1.321  0.6997  0.4319 -0.3858
 5482TIP3   OH216409   2.800   1.321   1.837  0.0268  0.1086  0.6165
 5482TIP3    H116410   2.743   1.312   1.760 -0.7262  1.2751  1.0123
 5482TIP3    H216411   2.888   1.335   1.800 -0.1117 -0.5934 -0.0045
 5483TIP3   OH216412   5.599   6.640   4.726  0.1087  0.0196 -0.3453
 5483TIP3    H116413   5.645   6.566   4.766 -0.9581 -0.6513 -0.2946
 5483TIP3    H216414   5.524   6.600   4.682 -0.8283  1.1260  0.1770
 5484TIP3   OH216415   6.923   1.235   2.840  0.3891  0.2003 -0.2413
 5484TIP3    H116416   6.980   1.255   2.766 -0.0385 -0.6221 -0.8177
 5484TIP3    H216417   6.834   1.251   2.807  0.2230  0.3341  0.2634
 5485TIP3   OH216418   5.988   6.318   4.084 -0.1555  0.2882  0.0023
 5485TIP3    H116419   6.026   6.297   4.169 -0.2439  1.0529  0.2464
 5485TIP3    H216420   6.029   6.258   4.023  2.4303  1.8836  0.0223
 5486TIP3   OH216421   2.278   4.484   2.886  0.1376  0.2716  0.4895
 5486TIP3    H116422   2.205   4.439   2.844  0.8531 -1.1395  0.6846
 5486TIP3    H216423   2.294   4.434   2.966  0.2761  1.5505  1.2877
 5487TIP3   OH216424   5.634   2.866   1.635  0.4893  0.1106 -0.1529
 5487TIP3    H116425   5.625   2.773   1.652  0.7211  0.1220  0.0394
 5487TIP3    H216426   5.727   2.878   1.615  0.0667 -0.0692 -2.4700
 5488TIP3   OH216427   2.824   4.436   4.312  1.0426  0.0583 -0.1943
 5488TIP3    H116428   2.846   4.348   4.344 -2.3703 -1.2792 -1.0734
 5488TIP3    H216429   2.783   4.479   4.387  0.0386 -0.2353 -0.5564
 5489TIP3   OH216430   0.285   0.178   0.587  0.0225 -0.4520  0.6867
 5489TIP3    H116431   0.297   0.086   0.563  0.3774 -0.6083  1.4232
 5489TIP3    H216432   0.213   0.177   0.651 -0.3562 -0.1469  0.2700
 5490TIP3   OH216433   6.985   1.348   0.574  0.6398 -0.2209 -0.1051
 5490TIP3    H116434   7.065   1.296   0.585  0.7526  0.1025  0.5844
 5490TIP3    H216435   6.995   1.388   0.487  0.3039 -1.7666 -0.9063
 5491TIP3   OH216436   2.269   0.536   4.779  0.4212  0.6234  0.0624
 5491TIP3    H116437   2.309   0.576   4.856  0.1420  0.3117  0.3708
 5491TIP3    H216438   2.177   0.560   4.784 -0.3094 -2.0494  1.6053
 5492TIP3   OH216439   4.813   2.720   2.415 -0.2247 -0.0358 -0.4190
 5492TIP3    H116440   4.736   2.665   2.401  0.0275 -0.6160  0.4086
 5492TIP3    H216441   4.867   2.671   2.477 -0.0286  1.1776  0.4026
 5493TIP3   OH216442   3.019   3.122   1.257  0.3628 -0.3596 -0.5648
 5493TIP3    H116443   2.963   3.135   1.333  1.0751 -0.4744 -0.0074
 5493TIP3    H216444   3.037   3.211   1.225 -0.1124 -0.3216 -0.7367
 5494TIP3   OH216445   3.326   0.160   5.588  0.7352 -0.9550 -0.2336
 5494TIP3    H116446   3.354   0.178   5.498  0.2595  0.7004 -0.0991
 5494TIP3    H216447   3.233   0.138   5.580  0.4727  0.0254 -0.1071
 5495TIP3   OH216448   6.390   3.669   1.183 -0.1382 -0.3354  0.5604
 5495TIP3    H116449   6.296   3.658   1.197 -0.4372  0.6080 -0.5509
 5495TIP3    H216450   6.409   3.757   1.216 -0.1627  0.4753 -1.4612
 5496TIP3   OH216451   4.938   1.366   0.408  0.2236 -0.3150  0.3000
 5496TIP3    H116452   4.929   1.337   0.499 -2.2866 -0.1251  0.1863
 5496TIP3    H216453   4.955   1.460   0.415  0.0634 -0.3051  0.5908
 5497TIP3   OH216454   3.721   4.102   0.751 -0.1297  0.2851 -0.3961
 5497TIP3    H116455   3.777   4.047   0.696 -1.8500 -2.6049  0.5235
 5497TIP3    H216456   3.730   4.190   0.715  3.5600 -0.3310 -1.3610
 5498TIP3   OH216457   1.289   4.202   4.921  0.3857  0.7880  0.1689
 5498TIP3    H116458   1.308   4.164   5.007  1.0517  0.0287 -0.3026
 5498TIP3    H216459   1.229   4.274   4.940 -0.1482  0.0986  1.1791
 5499TIP3   OH216460   3.675   0.913   3.164 -0.1128 -0.1303 -0.4260
 5499TIP3    H116461   3.760   0.957   3.164 -0.0340 -0.2807 -0.1366
 5499TIP3    H216462   3.694   0.824   3.134 -0.3172  0.1156 -1.3052
 5500TIP3   OH216463   4.884   4.743   1.256 -0.1491  0.2328  0.1198
 5500TIP3    H116464   4.853   4.685   1.185  0.3115 -0.2339  0.2930
 5500TIP3    H216465   4.815   4.808   1.265  0.2816  0.9591 -1.5146
 5501TIP3   OH216466   1.008   5.662   4.029 -0.0376  0.2740  0.1856
 5501TIP3    H116467   0.965   5.684   4.112  0.7561  0.4263  0.5677
 5501TIP3    H216468   0.963   5.584   3.998 -0.1380  0.0301  0.9226
 5502TIP3   OH216469   6.157   3.658   3.295 -0.0060 -0.0070  0.3297
 5502TIP3    H116470   6.134   3.746   3.326 -0.1715 -0.1871  0.7150
 5502TIP3    H216471   6.159   3.604   3.374  1.9279  0.0437  0.3705
 5503TIP3   OH216472   2.505   1.847   2.502  0.2207 -0.0885  0.3538
 5503TIP3    H116473   2.495   1.942   2.507  0.3507 -0.1086  1.2936
 5503TIP3    H216474   2.425   1.816   2.460  0.3905  0.4685 -0.4064
 5504TIP3   OH216475   0.317   1.760   2.412 -0.2230  0.2223  0.3326
 5504TIP3    H116476   0.231   1.793   2.437 -0.6423  1.2377 -2.1039
 5504TIP3    H216477   0.299   1.700   2.339  1.1327  0.9131 -0.6191
 5505TIP3   OH216478   2.409   6.271   1.055 -0.1660 -0.0501  0.3221
 5505TIP3    H116479   2.452   6.192   1.024 -0.3973 -0.5754  1.3002
 5505TIP3    H216480   2.344   6.292   0.988 -0.5156 -1.0318  0.3468
 5506TIP3   OH216481   1.478   1.029   4.048 -0.3097  0.3536 -0.3628
 5506TIP3    H116482   1.514   1.108   4.008  1.8158 -1.4573 -2.3263
 5506TIP3    H216483   1.552   0.990   4.093 -1.9364  0.6919  2.8663
 5507TIP3   OH216484   2.613   0.261   4.822  0.5579 -0.2748 -0.2595
 5507TIP3    H116485   2.664   0.341   4.815  0.9624 -0.4660  0.4296
 5507TIP3    H216486   2.661   0.197   4.769  0.4379 -0.1694 -0.4996
 5508TIP3   OH216487   4.362   0.238   4.275  0.1783 -0.2667 -0.2562
 5508TIP3    H116488   4.426   0.184   4.320  0.2155 -0.6170 -0.7169
 5508TIP3    H216489   4.279   0.192   4.287  0.2874 -0.6961 -1.0591
 5509TIP3   OH216490   2.173   3.092   3.197  0.2805 -0.2801 -0.1532
 5509TIP3    H116491   2.139   3.161   3.255 -0.0444 -2.7846  2.8761
 5509TIP3    H216492   2.266   3.114   3.187 -0.4487  2.5195 -2.4041
 5510TIP3   OH216493   3.153   1.231   3.146  0.3717  0.0125 -0.2184
 5510TIP3    H116494   3.139   1.295   3.215  2.3612 -0.3687  0.5970
 5510TIP3    H216495   3.148   1.281   3.064 -0.6460  0.7052  0.2532
 5511TIP3   OH216496   5.010   3.190   3.610 -0.0743  0.3251 -0.1299
 5511TIP3    H116497   4.950   3.130   3.565  0.1206  0.5533 -0.7030
 5511TIP3    H216498   4.956   3.267   3.631 -0.3158 -0.0272  0.5749
 5512TIP3   OH216499   5.741   0.321   4.383 -1.0087  0.5126 -0.6678
 5512TIP3    H116500   5.774   0.287   4.466  0.4878 -0.8075 -1.7616
 5512TIP3    H216501   5.801   0.392   4.361 -0.9992  0.4127 -0.9602
 5513TIP3   OH216502   1.061   4.467   5.343 -0.1313 -0.2346  0.3247
 5513TIP3    H116503   1.075   4.374   5.326 -0.5576  0.0058 -1.5289
 5513TIP3    H216504   1.149   4.503   5.352  0.0467 -0.7303  0.6652
 5514TIP3   OH216505   4.776   4.445   0.017  0.1798  0.1544 -0.0338
 5514TIP3    H116506   4.862   4.409  -0.006  0.1248 -0.0644  0.0995
 5514TIP3    H216507   4.791   4.492   0.099  0.0888 -0.2242  0.2015
 5515TIP3   OH216508   1.177   6.402   1.572 -0.0866 -0.5510  0.3951
 5515TIP3    H116509   1.212   6.459   1.641  0.3792 -0.5688  0.1734
 5515TIP3    H216510   1.226   6.425   1.494 -0.7622 -0.3813  0.0106
 5516TIP3   OH216511   0.734   1.586   1.997 -0.1815 -0.0285  0.0543
 5516TIP3    H116512   0.749   1.493   1.977 -0.0841 -0.0741  0.3309
 5516TIP3    H216513   0.671   1.585   2.069 -0.8379  0.1447 -0.5080
 5517TIP3   OH216514   0.861   1.643   0.712  0.3829  0.4724  0.0921
 5517TIP3    H116515   0.837   1.600   0.630  1.2503  0.2485 -0.0580
 5517TIP3    H216516   0.787   1.699   0.732  0.6861  1.5398 -1.5440
 5518TIP3   OH216517   4.739   5.894   1.939  0.6848 -0.3164 -0.4345
 5518TIP3    H116518   4.804   5.883   1.870  0.3397 -0.1543 -0.7865
 5518TIP3    H216519   4.663   5.845   1.908  0.4584 -0.0736 -0.2654
 5519TIP3   OH216520   1.898   2.161   3.046  0.4180 -0.2847 -0.0756
 5519TIP3    H116521   1.872   2.190   3.134  1.2443 -0.7834  0.3500
 5519TIP3    H216522   1.929   2.072   3.059  2.5991  0.3647 -0.4621
 5520TIP3   OH216523   4.579   4.002   0.287 -0.1126  0.6066 -0.2820
 5520TIP3    H116524   4.567   4.057   0.364  1.2033  0.6169 -0.0583
 5520TIP3    H216525   4.577   4.063   0.213  2.9964  1.3157  0.0573
 5521TIP3   OH216526   5.830   4.772   4.644  0.1565 -0.4016  0.1990
 5521TIP3    H116527   5.814   4.683   4.615  1.8449 -0.9119  0.7337
 5521TIP3    H216528   5.844   4.765   4.739 -0.0461  0.4822  0.3052
 5522TIP3   OH216529   2.771   5.020   4.498 -0.1288 -0.0004 -0.7565
 5522TIP3    H116530   2.837   4.976   4.552  0.9697  2.4449  0.0113
 5522TIP3    H216531   2.810   5.105   4.477 -3.3427  1.9441  0.4891
 5523TIP3   OH216532   2.054   5.172   0.966 -0.1126  0.4060 -0.0375
 5523TIP3    H116533   2.024   5.181   0.876  1.3327 -0.3201 -0.6286
 5523TIP3    H216534   2.143   5.208   0.965 -0.8915  2.6048  1.6598
 5524TIP3   OH216535   6.172   2.418   1.846  0.6564  0.4538  0.5080
 5524TIP3    H116536   6.130   2.459   1.922 -0.7175 -0.4692  0.2916
 5524TIP3    H216537   6.130   2.460   1.771 -0.3060 -0.8498  0.2884
 5525TIP3   OH216538   4.684   3.699   0.627 -0.1632  0.3665  0.4412
 5525TIP3    H116539   4.757   3.742   0.671  1.8573 -1.4163 -0.9559
 5525TIP3    H216540   4.722   3.619   0.590 -2.9930 -1.0068  0.1991
 5526TIP3   OH216541   5.362   0.179   0.265 -0.0175 -0.4441  0.2947
 5526TIP3    H116542   5.293   0.216   0.210 -1.6806 -0.7276  2.0650
 5526TIP3    H216543   5.316   0.117   0.322  1.6657 -0.5190  1.6442
 5527TIP3   OH216544   2.336   2.138   3.142 -0.1714 -0.0428  0.3243
 5527TIP3    H116545   2.392   2.131   3.064  1.2356 -0.6904  1.3498
 5527TIP3    H216546   2.251   2.107   3.113  0.7500 -1.9280 -0.5613
 5528TIP3   OH216547   2.170   4.674   3.358 -0.0985 -0.2824 -0.3570
 5528TIP3    H116548   2.222   4.739   3.405 -0.3745  0.5584 -1.1741
 5528TIP3    H216549   2.196   4.684   3.267 -0.5575 -0.9380 -0.5662
 5529TIP3   OH216550   3.470   5.006   2.147  0.8783 -0.3220 -0.0848
 5529TIP3    H116551   3.425   4.987   2.065 -0.9783 -0.1665  0.8267
 5529TIP3    H216552   3.545   4.947   2.148  1.1606 -0.0658 -2.0361
 5530TIP3   OH216553   3.782   0.309   4.456 -0.1851  0.0486  0.6321
 5530TIP3    H116554   3.854   0.346   4.506  1.3726 -1.7253 -0.2140
 5530TIP3    H216555   3.807   0.320   4.365 -1.3996  0.1587  0.2853
 5531TIP3   OH216556   4.604   4.357   1.214 -0.6481 -0.4468  0.7116
 5531TIP3    H116557   4.547   4.360   1.291  1.9096 -0.4159  2.7559
 5531TIP3    H216558   4.685   4.318   1.246  1.7660  2.6495 -1.0907
 5532TIP3   OH216559   2.630   2.841   0.945  0.8938  0.7432 -0.0124
 5532TIP3    H116560   2.551   2.868   0.992  0.7965  1.9499 -0.8278
 5532TIP3    H216561   2.695   2.906   0.967  1.0207  0.9936 -1.0490
 5533TIP3   OH216562   5.623   1.050   0.730  0.9205 -0.2520 -0.6279
 5533TIP3    H116563   5.542   1.084   0.690  0.8804  0.1808 -0.1991
 5533TIP3    H216564   5.606   1.054   0.824  0.6342 -2.1965 -0.5574
 5534TIP3   OH216565   2.350   3.239   5.805  0.1370 -0.1747  0.2583
 5534TIP3    H116566   2.357   3.146   5.784 -1.2160 -0.0871 -0.6846
 5534TIP3    H216567   2.323   3.241   5.897 -1.4480 -0.7792 -0.1625
 5535TIP3   OH216568   3.072   3.817   0.758  0.0741  0.4149 -0.4312
 5535TIP3    H116569   3.036   3.848   0.841  2.0079  0.5689  0.4131
 5535TIP3    H216570   3.160   3.853   0.755  0.5281 -0.7006 -1.9317
 5536TIP3   OH216571   6.774   3.376   4.794 -0.6733 -0.2746  0.6344
 5536TIP3    H116572   6.729   3.366   4.878 -1.1091 -1.0654  0.3184
 5536TIP3    H216573   6.795   3.287   4.768  4.3100  0.0295  2.4334
 5537TIP3   OH216574   5.937   1.465   0.478  0.2028  0.1190 -0.6035
 5537TIP3    H116575   5.952   1.478   0.384 -0.6309 -0.2464 -0.7999
 5537TIP3    H216576   5.842   1.455   0.485  0.2658  0.1147  0.2798
 5538TIP3   OH216577   2.204   3.431   3.126 -0.0139  0.2924 -0.0755
 5538TIP3    H116578   2.271   3.433   3.057 -1.0267 -2.2939 -1.2630
 5538TIP3    H216579   2.250   3.400   3.204  0.6392  0.8148 -0.2460
 5539TIP3   OH216580   3.337   6.270   4.512 -0.4932  0.2599  0.2201
 5539TIP3    H116581   3.334   6.274   4.608 -0.1620  0.7833  0.2097
 5539TIP3    H216582   3.311   6.357   4.484  0.4336  0.4220 -0.1502
 5540TIP3   OH216583   2.553   0.994   4.615 -0.1056  0.1378 -0.0601
 5540TIP3    H116584   2.609   0.919   4.635  2.6688  1.3385 -2.4634
 5540TIP3    H216585   2.563   1.052   4.690 -0.9135 -1.0932  1.0493
 5541TIP3   OH216586   7.051   3.356   0.524  0.2320 -0.2936  0.3264
 5541TIP3    H116587   6.958   3.339   0.540  0.3505 -1.3925 -0.0594
 5541TIP3    H216588   7.096   3.313   0.596  0.5086 -1.0316 -0.2703
 5542TIP3   OH216589   2.195   2.964   2.761  0.1897  1.0824 -0.4258
 5542TIP3    H116590   2.274   2.912   2.745 -0.2615 -0.2765  1.3374
 5542TIP3    H216591   2.226   3.054   2.765  2.1825  0.4295  2.5626
 5543TIP3   OH216592   3.168   6.617   1.312  0.0311 -0.1856  0.1080
 5543TIP3    H116593   3.124   6.596   1.230 -0.8777 -1.0386  0.7764
 5543TIP3    H216594   3.145   6.708   1.329 -0.9059 -0.4005  0.0726
 5544TIP3   OH216595   5.424   5.324   1.442  0.0801 -0.7439 -0.9262
 5544TIP3    H116596   5.483   5.389   1.404  0.1280  1.1248  1.9830
 5544TIP3    H216597   5.480   5.275   1.503 -1.0856  0.4417  1.2002
 5545TIP3   OH216598   1.058   6.212   4.471  0.2671 -0.0764 -0.5537
 5545TIP3    H116599   1.083   6.120   4.483 -2.4273 -0.7573  0.5605
 5545TIP3    H216600   1.048   6.222   4.377 -2.7829 -2.0235 -0.5639
 5546TIP3   OH216601   5.724   5.676   2.660  0.1144  0.2169  0.2299
 5546TIP3    H116602   5.724   5.635   2.574  1.4171  0.1792  0.2244
 5546TIP3    H216603   5.811   5.657   2.695 -0.1912  0.7419  1.3106
 5547TIP3   OH216604   0.736   0.451   3.028  0.2361  0.5877  0.1064
 5547TIP3    H116605   0.729   0.361   3.061 -0.3383  1.1892  1.7476
 5547TIP3    H216606   0.789   0.444   2.949  1.0450 -1.0688  0.7586
 5548TIP3   OH216607   4.825   0.617   5.497 -0.1873  0.0773  0.1563
 5548TIP3    H116608   4.741   0.582   5.528  0.3793  1.1343  3.3181
 5548TIP3    H216609   4.844   0.689   5.557  0.6665  3.2022 -3.5266
 5549TIP3   OH216610   3.318   3.460   2.628  0.4885  0.3037  0.2582
 5549TIP3    H116611   3.363   3.397   2.572  1.3203 -0.9067  2.2139
 5549TIP3    H216612   3.365   3.543   2.614  0.6203  0.0551 -0.8612
 5550TIP3   OH216613   5.794   0.537   3.423  0.3426 -0.1821 -0.6538
 5550TIP3    H116614   5.849   0.523   3.346 -1.0924  0.4056 -1.8406
 5550TIP3    H216615   5.819   0.467   3.484  2.0777 -0.1695 -1.3003
 5551TIP3   OH216616   4.439   0.227   0.340  0.0464 -0.0227 -0.1272
 5551TIP3    H116617   4.506   0.257   0.401  0.7553  1.2206 -1.4788
 5551TIP3    H216618   4.356   0.251   0.381  0.3375 -1.9243  1.7488
 5552TIP3   OH216619   7.061   4.298   0.457 -0.4208 -0.2509 -0.3263
 5552TIP3    H116620   6.981   4.343   0.430  0.8514  2.3469 -0.0835
 5552TIP3    H216621   7.034   4.241   0.528 -1.8761  1.5935  0.6916
 5553TIP3   OH216622   6.599   1.851   4.533  0.2670  0.5746 -0.0857
 5553TIP3    H116623   6.668   1.897   4.582  0.7659 -0.0592 -0.1824
 5553TIP3    H216624   6.608   1.882   4.443  1.1995 -0.3697 -0.3389
 5554TIP3   OH216625   1.145   4.512   2.588  0.3474  0.4155 -0.1819
 5554TIP3    H116626   1.111   4.592   2.629 -0.0484  0.4204 -0.5141
 5554TIP3    H216627   1.220   4.488   2.642  0.3872  0.9358  0.0035
 5555TIP3   OH216628   4.452   6.000   4.164  0.1985 -0.1987 -0.2964
 5555TIP3    H116629   4.515   6.070   4.180  1.0581 -1.0632  0.2179
 5555TIP3    H216630   4.504   5.920   4.165 -0.8839 -0.9274 -0.0200
 5556TIP3   OH216631   6.029   6.023   1.324 -0.1341  0.4639  0.3937
 5556TIP3    H116632   6.016   6.005   1.231  1.0496  0.4881  0.2141
 5556TIP3    H216633   6.015   6.118   1.332 -0.6709  0.3953  0.3311
 5557TIP3   OH216634   5.002   3.717   4.896  0.6250  0.0672 -0.0333
 5557TIP3    H116635   4.984   3.628   4.926 -1.1417  0.9937  1.8913
 5557TIP3    H216636   5.030   3.707   4.804 -1.4206 -2.2924 -0.4781
 5558TIP3   OH216637   4.513   2.286   1.956  0.2886 -0.0389 -0.3434
 5558TIP3    H116638   4.537   2.369   1.916 -1.4216  0.8240  0.2792
 5558TIP3    H216639   4.417   2.282   1.947  0.1008 -0.9015  1.5391
 5559TIP3   OH216640   2.494   3.784   2.730 -0.4499  0.1644  0.0675
 5559TIP3    H116641   2.465   3.871   2.702 -1.1808  0.1588  0.7584
 5559TIP3    H216642   2.485   3.729   2.652  2.8866  1.2899 -1.2905
 5560TIP3   OH216643   7.169   3.234   0.838 -0.4124 -0.4861 -0.0151
 5560TIP3    H116644   7.256   3.269   0.815  0.3422 -1.4108  1.2978
 5560TIP3    H216645   7.121   3.310   0.872 -0.4362  0.2146 -1.5391
 5561TIP3   OH216646   2.417   0.080   0.351  0.0578  0.2892 -0.1343
 5561TIP3    H116647   2.366   0.144   0.401 -0.2628  0.2938 -0.4649
 5561TIP3    H216648   2.369  -0.002   0.361  1.6980 -0.4866  2.2613
 5562TIP3   OH216649   4.918   5.018   0.682  0.1303  0.0043  0.2367
 5562TIP3    H116650   4.892   5.103   0.648 -1.0433  0.5603  2.3617
 5562TIP3    H216651   4.845   4.960   0.658  1.2404 -0.6658 -1.8352
 5563TIP3   OH216652   3.896   2.303   0.561 -0.1504 -0.4490  0.1622
 5563TIP3    H116653   3.856   2.234   0.508  0.7671 -1.5922  0.9108
 5563TIP3    H216654   3.836   2.377   0.553 -0.3571 -0.7938 -1.9297
 5564TIP3   OH216655   6.998   5.858   0.749  0.1207  0.6005  0.5842
 5564TIP3    H116656   6.949   5.891   0.824  0.4072 -1.4686  1.7360
 5564TIP3    H216657   6.940   5.873   0.674 -1.0412  0.8350  1.5082
 5565TIP3   OH216658   3.351   2.199   0.993  0.4800 -0.2628 -0.0711
 5565TIP3    H116659   3.318   2.144   0.922  0.3370  0.5546 -0.6558
 5565TIP3    H216660   3.272   2.228   1.039  0.3752  1.2679 -1.1506
 5566TIP3   OH216661   0.565   2.961   0.219  0.0472  0.0067 -0.4528
 5566TIP3    H116662   0.657   2.971   0.243  0.1019  0.1091 -0.7067
 5566TIP3    H216663   0.554   2.866   0.207  0.3198  0.0627 -1.2099
 5567TIP3   OH216664   5.113   3.888   1.650 -0.1145 -0.9014  0.5602
 5567TIP3    H116665   5.167   3.812   1.673 -2.2928 -1.7170  3.7294
 5567TIP3    H216666   5.023   3.856   1.657 -1.1178  1.0953 -1.8003
 5568TIP3   OH216667   2.375   3.822   5.783 -0.1780 -0.4693 -0.0795
 5568TIP3    H116668   2.386   3.904   5.831 -0.4946  0.6928 -1.8701
 5568TIP3    H216669   2.462   3.782   5.784 -0.3541 -0.9474  2.1292
 5569TIP3   OH216670   2.223   3.643   3.723  0.7256  0.3449  0.2668
 5569TIP3    H116671   2.220   3.652   3.818  1.9672  2.5126  0.1653
 5569TIP3    H216672   2.315   3.629   3.703  0.6458  1.0333 -0.6599
 5570TIP3   OH216673   0.495   5.656   1.859 -0.2249 -0.1260  0.0340
 5570TIP3    H116674   0.557   5.707   1.807 -0.0551 -1.0768 -0.7088
 5570TIP3    H216675   0.507   5.690   1.948  0.7770  0.2663 -0.2258
 5571TIP3   OH216676   0.435   4.778   3.740 -0.2531  0.3581 -0.1535
 5571TIP3    H116677   0.464   4.827   3.817  1.1847  0.0191 -0.4545
 5571TIP3    H216678   0.492   4.808   3.669  0.4629 -1.4852 -0.4164
 5572TIP3   OH216679   3.458   2.692   5.728  0.0761 -0.9479  0.6012
 5572TIP3    H116680   3.487   2.696   5.637 -1.6697 -1.2250 -0.0108
 5572TIP3    H216681   3.477   2.779   5.764  1.7496 -1.1726  0.3083
 5573TIP3   OH216682   3.885   2.432   5.443  0.0096  0.2596 -0.1076
 5573TIP3    H116683   3.846   2.497   5.501 -1.7826 -0.8674 -0.0013
 5573TIP3    H216684   3.947   2.384   5.498  0.6435  1.2251  0.0472
 5574TIP3   OH216685   2.546   3.461   1.017 -0.1479 -0.0035 -0.1513
 5574TIP3    H116686   2.468   3.431   1.063 -0.4835  0.1125 -0.6338
 5574TIP3    H216687   2.612   3.471   1.085  0.8010 -4.2246 -0.2365
 5575TIP3   OH216688   5.210   5.504   5.478  0.5625 -0.6716  0.4230
 5575TIP3    H116689   5.284   5.562   5.497 -0.1081 -0.0691  1.2917
 5575TIP3    H216690   5.186   5.469   5.564 -0.8518  0.0030  0.3256
 5576TIP3   OH216691   5.182   1.690   1.037  0.4589  0.3072 -0.1377
 5576TIP3    H116692   5.115   1.661   0.976  0.9967 -0.7108 -0.2654
 5576TIP3    H216693   5.135   1.705   1.119  0.2149 -1.4031  0.0640
 5577TIP3   OH216694   6.115   4.059   4.048 -0.2129  0.0820 -0.5286
 5577TIP3    H116695   6.133   3.965   4.038 -0.5512 -0.0346 -0.0881
 5577TIP3    H216696   6.197   4.102   4.024 -0.3119 -0.2829 -1.5639
 5578TIP3   OH216697   1.262   6.166   2.823  0.0998  0.0938  0.0370
 5578TIP3    H116698   1.348   6.138   2.854 -0.6271 -1.3643  0.8633
 5578TIP3    H216699   1.276   6.255   2.791  2.0692 -0.3839 -0.5882
 5579TIP3   OH216700   6.243   5.069   1.317 -0.4456 -0.2311  0.1791
 5579TIP3    H116701   6.207   4.990   1.275  0.6528 -1.0501  0.7155
 5579TIP3    H216702   6.288   5.115   1.246  0.3615 -0.9801  0.1862
 5580TIP3   OH216703   6.127   4.374   4.377 -0.0397 -0.8768 -0.3559
 5580TIP3    H116704   6.184   4.413   4.311  1.5050  0.0750  1.4728
 5580TIP3    H216705   6.060   4.440   4.393  0.1596 -0.6998 -0.2517
 5581TIP3   OH216706   0.135   0.043   4.154  0.0117 -0.0823  0.0547
 5581TIP3    H116707   0.090   0.104   4.095  0.7672 -0.0770 -0.5279
 5581TIP3    H216708   0.064  -0.006   4.196 -0.5688  0.5012 -0.2187
 5582TIP3   OH216709   1.953   1.431   2.046  0.0620 -0.1186  0.0899
 5582TIP3    H116710   1.952   1.516   2.091  1.9141 -0.0211  0.0331
 5582TIP3    H216711   2.018   1.441   1.977  0.4262 -1.6312  0.1724
 5583TIP3   OH216712   7.212   6.313   3.322 -0.1085  0.2636 -0.0459
 5583TIP3    H116713   7.120   6.333   3.305 -0.3835  1.1176  2.0756
 5583TIP3    H216714   7.211   6.229   3.368  0.6372 -2.2017 -4.0299
 5584TIP3   OH216715   5.686   5.673   5.703 -0.2023  0.1429 -0.0530
 5584TIP3    H116716   5.658   5.741   5.764 -0.6200  0.3967 -0.5226
 5584TIP3    H216717   5.774   5.700   5.675  0.2271 -0.2708  0.8607
 5585TIP3   OH216718   6.243   0.102   1.140 -0.0012 -0.5628  0.1452
 5585TIP3    H116719   6.156   0.063   1.147  0.5095 -1.4481  2.4023
 5585TIP3    H216720   6.283   0.088   1.226  1.4568  2.0729  0.0077
 5586TIP3   OH216721   3.884   4.212   3.869  0.2577  0.0833 -0.1188
 5586TIP3    H116722   3.919   4.252   3.949  0.1640  1.3979 -0.7091
 5586TIP3    H216723   3.793   4.241   3.866 -0.6293 -2.3722  0.8046
 5587TIP3   OH216724   1.309   6.584   1.988  0.1069 -0.3733  0.0072
 5587TIP3    H116725   1.374   6.538   2.041 -1.7449 -2.7167  0.4296
 5587TIP3    H216726   1.238   6.605   2.049 -0.7518 -0.4027 -0.9386
 5588TIP3   OH216727   6.140   2.046   3.784  0.1570  0.2802  0.0123
 5588TIP3    H116728   6.075   1.976   3.780  1.5291 -1.0906  0.6813
 5588TIP3    H216729   6.160   2.066   3.692 -1.0510  0.5901 -0.1897
 5589TIP3   OH216730   0.921   3.678   1.591 -0.3072 -0.5041 -0.2140
 5589TIP3    H116731   0.928   3.758   1.643  1.3316 -1.9401  1.9542
 5589TIP3    H216732   1.011   3.655   1.570 -0.8620 -0.5241 -2.9899
 5590TIP3   OH216733   4.017   3.108   1.615 -0.1245 -0.7573 -0.5949
 5590TIP3    H116734   3.921   3.105   1.614 -0.1926 -1.0184  1.9903
 5590TIP3    H216735   4.038   3.201   1.606 -0.8829  0.0093  3.4933
 5591TIP3   OH216736   1.819   5.166   1.095 -0.1202  0.0068  0.4138
 5591TIP3    H116737   1.833   5.130   1.183 -2.5147  0.6961  1.1525
 5591TIP3    H216738   1.907   5.177   1.059  0.9394 -0.1803  2.7703
 5592TIP3   OH216739   1.304   0.637   3.881 -0.0506  0.3611  0.5036
 5592TIP3    H116740   1.232   0.581   3.909 -1.1967  1.0271 -0.9825
 5592TIP3    H216741   1.279   0.668   3.794  1.8309  0.9786  0.1245
 5593TIP3   OH216742   1.259   5.122   1.228 -0.7589  0.2105 -0.6323
 5593TIP3    H116743   1.344   5.127   1.185 -1.2149  1.5333 -1.4406
 5593TIP3    H216744   1.195   5.129   1.157 -1.5312  0.8872  0.0911
 5594TIP3   OH216745   1.919   3.617   3.273  0.4035  0.1783 -0.6540
 5594TIP3    H116746   1.986   3.570   3.323  0.0844 -0.6703 -1.0046
 5594TIP3    H216747   1.848   3.553   3.263 -0.2415  0.8931 -0.7340
 5595TIP3   OH216748   4.086   5.042   1.388 -0.3658  0.4640 -1.1514
 5595TIP3    H116749   4.097   5.074   1.478 -0.4512  0.7734 -1.2478
 5595TIP3    H216750   4.175   5.034   1.355 -0.0800 -3.0445  0.0911
 5596TIP3   OH216751   0.222   2.702   0.656  0.3989 -0.2159  0.3730
 5596TIP3    H116752   0.237   2.655   0.738  0.2683 -0.7061  0.1233
 5596TIP3    H216753   0.127   2.704   0.647  0.4234 -1.9256 -0.7372
 5597TIP3   OH216754   0.526   3.565   3.260  0.7172  0.4322  0.1135
 5597TIP3    H116755   0.489   3.650   3.285 -3.0102 -0.6977 -0.8497
 5597TIP3    H216756   0.543   3.521   3.343 -1.7804  0.4930  0.7592
 5598TIP3   OH216757   1.077   6.782   1.034 -0.3252 -0.1886  0.1709
 5598TIP3    H116758   1.045   6.706   1.083 -0.9749 -0.9108 -1.2972
 5598TIP3    H216759   1.113   6.744   0.953  0.8004  0.9478  0.1105
 5599TIP3   OH216760   1.564   1.381   0.644  0.7659  0.6262  0.4165
 5599TIP3    H116761   1.482   1.342   0.613  1.9885 -0.9803 -0.9717
 5599TIP3    H216762   1.536   1.452   0.702 -1.6161 -1.5811  2.2032
 5600TIP3   OH216763   3.799   2.403   3.868  0.0636  0.1614 -0.2093
 5600TIP3    H116764   3.877   2.450   3.897  0.0474 -1.1633  2.2812
 5600TIP3    H216765   3.833   2.330   3.816  0.3663  0.4518 -0.4253
 5601TIP3   OH216766   4.043   5.290   3.890 -0.2110  0.3552 -0.0540
 5601TIP3    H116767   3.952   5.311   3.910 -0.5552 -1.3733  0.3419
 5601TIP3    H216768   4.072   5.235   3.963  0.6306 -0.4709 -0.9825
 5602TIP3   OH216769   5.749   2.100   1.836 -0.4498  0.4192 -0.5696
 5602TIP3    H116770   5.799   2.116   1.916 -2.7050  0.6932  0.8494
 5602TIP3    H216771   5.722   2.008   1.843  0.6178 -0.0277 -1.8250
 5603TIP3   OH216772   0.880   0.079   0.754  0.5833  0.0527 -0.5909
 5603TIP3    H116773   0.930   0.161   0.750  0.3424  0.3118  0.9468
 5603TIP3    H216774   0.868   0.054   0.663 -0.2921  2.3247 -1.1799
 5604TIP3   OH216775   1.644   5.907   2.987 -0.2876  0.0576 -0.5484
 5604TIP3    H116776   1.580   5.970   2.955  0.6204  0.1038 -2.3911
 5604TIP3    H216777   1.720   5.919   2.930  0.5003 -1.5984  0.0942
 5605TIP3   OH216778   2.238   2.684   0.162 -0.1625  0.5487 -0.1073
 5605TIP3    H116779   2.275   2.758   0.210 -0.9315 -0.4279  2.1306
 5605TIP3    H216780   2.143   2.699   0.164 -0.2354  0.2929 -1.0514
 5606TIP3   OH216781   4.641   5.637   3.527  0.3568  0.1426 -0.0074
 5606TIP3    H116782   4.710   5.702   3.519  1.2917 -0.9007 -0.9204
 5606TIP3    H216783   4.669   5.581   3.599  0.6165 -0.4211 -0.5309
 5607TIP3   OH216784   5.267   1.496   1.765  0.1710  0.0944  0.5412
 5607TIP3    H116785   5.358   1.481   1.789  0.5865 -1.7159 -1.7601
 5607TIP3    H216786   5.229   1.409   1.757 -1.0738  0.7160 -0.9197
 5608TIP3   OH216787   0.121   1.388   4.031 -0.2823 -0.4257  0.3045
 5608TIP3    H116788   0.061   1.343   4.091 -0.4171  0.4822  0.8643
 5608TIP3    H216789   0.206   1.385   4.075 -0.5339  0.9196  0.9309
 5609TIP3   OH216790   3.583   1.998   2.386 -1.0121  0.0572 -0.2614
 5609TIP3    H116791   3.604   2.061   2.455  0.0003 -1.4386  0.8772
 5609TIP3    H216792   3.491   1.974   2.403 -0.9556  0.1511  0.1897
 5610TIP3   OH216793   6.357   1.917   5.380 -0.2953 -0.1000 -0.1198
 5610TIP3    H116794   6.385   1.982   5.316 -0.9514  0.4322  0.1276
 5610TIP3    H216795   6.358   1.834   5.332 -0.9766  0.3213 -0.8752
 5611TIP3   OH216796   3.381   4.342   5.635 -0.0032 -0.3901  0.0314
 5611TIP3    H116797   3.456   4.308   5.586  0.6565 -0.6569  1.2052
 5611TIP3    H216798   3.355   4.272   5.694 -2.3010 -0.9635 -1.5070
 5612TIP3   OH216799   0.027   6.400   4.383 -0.3904  0.4696 -0.5463
 5612TIP3    H116800   0.015   6.476   4.326 -2.8027  1.7541  1.5342
 5612TIP3    H216801   0.104   6.421   4.436 -0.5920  1.1054 -0.5086
 5613TIP3   OH216802   3.270   1.994   4.761 -0.9069 -0.2823 -0.2003
 5613TIP3    H116803   3.189   1.969   4.805 -0.4602 -0.7729  0.3652
 5613TIP3    H216804   3.329   1.921   4.777  0.0322  0.5727  0.4093
 5614TIP3   OH216805   2.490   2.085   4.918 -0.3422  0.1901  0.2919
 5614TIP3    H116806   2.422   2.067   4.984  0.2103  0.3073  0.8968
 5614TIP3    H216807   2.552   2.012   4.928 -0.0334  0.4409  0.2024
 5615TIP3   OH216808   0.747   3.738   0.519 -0.3833  0.0173 -0.4509
 5615TIP3    H116809   0.830   3.708   0.482 -1.0951 -1.8054 -0.6618
 5615TIP3    H216810   0.690   3.750   0.443 -1.6278 -3.0488 -0.1511
 5616TIP3   OH216811   0.928   4.690   5.323  0.5671  0.2932  0.3226
 5616TIP3    H116812   0.978   4.610   5.334 -0.8719 -0.9373 -1.4583
 5616TIP3    H216813   0.839   4.661   5.306 -0.2350  2.3233  0.7677
 5617TIP3   OH216814   4.895   1.926   0.909  0.5652 -0.5062 -0.3492
 5617TIP3    H116815   4.860   1.928   0.819 -0.8808 -0.2879  0.1881
 5617TIP3    H216816   4.837   1.867   0.956  3.0040 -2.9392 -0.1797
 5618TIP3   OH216817   1.573   6.060   4.737 -0.3065 -0.4076  0.1395
 5618TIP3    H116818   1.477   6.057   4.745 -0.3312 -1.3584 -0.3974
 5618TIP3    H216819   1.600   6.128   4.799 -1.1212 -1.9403  2.2998
 5619TIP3   OH216820   5.105   3.457   0.835  0.6023  0.3050  0.2242
 5619TIP3    H116821   5.170   3.395   0.800  1.1384  1.1542 -0.3450
 5619TIP3    H216822   5.156   3.516   0.890  0.3606  1.1106 -0.3982
 5620TIP3   OH216823   0.271   0.422   0.967 -0.4930 -0.2667 -0.3031
 5620TIP3    H116824   0.212   0.485   1.009 -0.6929 -0.7696  0.1972
 5620TIP3    H216825   0.292   0.460   0.882  0.6230  1.2075  0.5970
 5621TIP3   OH216826   7.053   2.253   3.533 -0.0333  0.4040  0.4855
 5621TIP3    H116827   7.065   2.233   3.440 -2.4281  2.1308 -0.2934
 5621TIP3    H216828   7.072   2.346   3.541  0.3921  0.2295  1.8131
 5622TIP3   OH216829   1.617   1.343   3.053 -0.4628  0.4449 -0.2465
 5622TIP3    H116830   1.620   1.292   3.134  1.2991  1.5913  0.4876
 5622TIP3    H216831   1.680   1.299   2.996  0.1223  1.0408 -0.0721
 5623TIP3   OH216832   2.633   3.262   3.184 -0.0997  0.0434 -0.3757
 5623TIP3    H116833   2.721   3.225   3.187  1.0432  2.6122  0.9995
 5623TIP3    H216834   2.618   3.284   3.092  0.4833 -0.8554 -0.6864
 5624TIP3   OH216835   2.166   0.837   5.562  0.6168  0.0923  0.1182
 5624TIP3    H116836   2.157   0.832   5.467 -0.9328 -1.1400  0.2815
 5624TIP3    H216837   2.244   0.785   5.582  1.7275  1.4341 -0.5396
 5625TIP3   OH216838   2.424   1.516   0.986 -0.3511  0.2716 -0.5461
 5625TIP3    H116839   2.493   1.582   0.985 -0.6744  0.6137 -0.3774
 5625TIP3    H216840   2.343   1.565   0.981 -0.6737  0.0183  1.2723
 5626TIP3   OH216841   1.527   6.441   4.187 -0.2760  0.2245  0.2663
 5626TIP3    H116842   1.443   6.408   4.220  0.1327  0.0844  1.1832
 5626TIP3    H216843   1.564   6.367   4.139 -1.1910  0.6469 -1.1704
 5627TIP3   OH216844   3.279   4.524   0.395  0.0405 -0.1722 -0.2762
 5627TIP3    H116845   3.190   4.501   0.369  0.3482  0.0959 -1.6503
 5627TIP3    H216846   3.322   4.440   0.411 -0.8120 -0.2698  1.7617
 5628TIP3   OH216847   3.935   3.129   2.500  0.2107  0.4534  0.2514
 5628TIP3    H116848   3.963   3.135   2.591  0.3477 -0.6966  0.3103
 5628TIP3    H216849   3.988   3.057   2.464  0.6929  1.3735 -0.9469
 5629TIP3   OH216850   0.931   2.829   5.591  0.5885 -0.5190 -0.1980
 5629TIP3    H116851   1.006   2.881   5.617 -0.3275  0.4645  0.5899
 5629TIP3    H216852   0.879   2.888   5.536  0.2211 -1.0678 -0.4512
 5630TIP3   OH216853   0.163   5.966   2.208 -0.7067 -0.3042 -0.3852
 5630TIP3    H116854   0.207   6.041   2.167 -1.2578 -0.5972 -1.5578
 5630TIP3    H216855   0.117   6.003   2.283 -1.0507  0.5528 -1.0039
 5631TIP3   OH216856   5.571   5.375   1.174  0.1143  0.8077  0.5505
 5631TIP3    H116857   5.640   5.398   1.235 -1.1346  2.4400  1.4496
 5631TIP3    H216858   5.529   5.298   1.212 -0.0931  1.2861  1.3146
 5632TIP3   OH216859   0.540   1.464   5.413  0.2804  0.1115 -0.2106
 5632TIP3    H116860   0.543   1.386   5.468 -0.1806  0.8656  0.9222
 5632TIP3    H216861   0.472   1.518   5.452  0.5789  1.0688 -0.9867
 5633TIP3   OH216862   0.631   2.904   2.975  0.1403  0.4013 -0.0771
 5633TIP3    H116863   0.715   2.948   2.967 -0.1331  0.8192 -0.7345
 5633TIP3    H216864   0.632   2.836   2.908 -0.1607  0.6020 -0.2880
 5634TIP3   OH216865   6.402   2.612   2.408 -0.3029 -0.3118 -0.1187
 5634TIP3    H116866   6.465   2.554   2.365  0.9940 -0.3668  1.6924
 5634TIP3    H216867   6.323   2.607   2.355  0.5305 -1.9412 -1.2826
 5635TIP3   OH216868   3.730   3.414   5.252 -0.2420 -0.8037 -0.0136
 5635TIP3    H116869   3.794   3.431   5.321  1.4103  0.7034 -1.7837
 5635TIP3    H216870   3.760   3.468   5.178 -2.4904 -1.5464 -1.5705
 5636TIP3   OH216871   0.798   2.768   5.301  1.0532  0.2173  0.3078
 5636TIP3    H116872   0.769   2.857   5.280  1.3987  0.1780 -0.3701
 5636TIP3    H216873   0.779   2.758   5.395  0.2994  0.7238  0.2179
 5637TIP3   OH216874   3.558   1.909   0.364  0.0205  0.3032  0.2459
 5637TIP3    H116875   3.491   1.884   0.301 -2.5130 -0.1373  2.9061
 5637TIP3    H216876   3.602   1.827   0.386  0.2703  0.3095 -0.2132
 5638TIP3   OH216877   4.407   2.944   2.859 -0.2741 -0.1847  0.0363
 5638TIP3    H116878   4.423   3.005   2.787  0.2093 -0.2137  0.1123
 5638TIP3    H216879   4.318   2.964   2.889 -0.7762 -0.7145 -1.0775
 5639TIP3   OH216880   0.394   2.896   2.452 -0.1548  0.4253  0.3262
 5639TIP3    H116881   0.341   2.876   2.530 -1.8085  1.3844 -0.4984
 5639TIP3    H216882   0.336   2.876   2.379 -0.5784  4.3771 -0.6072
 5640TIP3   OH216883   4.479   4.746   2.062 -0.3258 -0.4358  0.1407
 5640TIP3    H116884   4.540   4.818   2.049  0.0262 -0.8081 -0.3002
 5640TIP3    H216885   4.424   4.747   1.984 -0.2637 -0.6967  0.0925
 5641TIP3   OH216886   0.687   0.082   5.000  0.0420  0.7691  0.0285
 5641TIP3    H116887   0.603   0.039   4.987  0.5422  0.1335 -1.2953
 5641TIP3    H216888   0.666   0.164   5.045 -1.2820  0.6754 -0.3778
 5642TIP3   OH216889   6.084   2.062   2.637  0.0346  0.0954  0.1070
 5642TIP3    H116890   6.038   2.115   2.702 -0.1736  1.0568 -0.7924
 5642TIP3    H216891   6.050   1.973   2.650 -1.9601  0.7253 -0.3739
 5643TIP3   OH216892   1.614   3.002   5.209 -0.4726 -0.5444 -0.5792
 5643TIP3    H116893   1.679   3.018   5.140  0.8022 -0.9057  0.4806
 5643TIP3    H216894   1.560   3.081   5.210 -0.1050 -0.2669 -1.5595
 5644TIP3   OH216895   1.572   6.659   4.036  0.7306  0.0865 -0.2341
 5644TIP3    H116896   1.561   6.618   3.950 -1.8451  0.2553 -0.0750
 5644TIP3    H216897   1.562   6.586   4.098  0.9186  0.2215 -0.0448
 5645TIP3   OH216898   0.833   1.502   2.830  0.0896 -0.0733  0.5749
 5645TIP3    H116899   0.847   1.410   2.852 -0.3152 -0.0693  0.8770
 5645TIP3    H216900   0.918   1.544   2.844  0.7195 -0.6897 -1.1625
 5646TIP3   OH216901   3.585   4.765   5.139 -0.0755 -0.3885 -0.2705
 5646TIP3    H116902   3.535   4.715   5.074 -0.0233 -0.8072  0.0061
 5646TIP3    H216903   3.649   4.702   5.173 -0.5788 -0.3915  0.7124
 5647TIP3   OH216904   1.065   5.326   1.001  0.4031 -0.0424  0.1114
 5647TIP3    H116905   1.038   5.234   1.005 -1.3629  0.4154 -0.4286
 5647TIP3    H216906   1.076   5.352   1.093 -0.7590 -0.3528  0.3582
 5648TIP3   OH216907   0.175   6.512   3.818  0.2746 -0.0138  0.0054
 5648TIP3    H116908   0.168   6.495   3.912 -0.9153 -0.1465 -0.0817
 5648TIP3    H216909   0.085   6.504   3.786  0.2464  2.4935 -0.7384
 5649TIP3   OH216910   6.081   3.244   3.980 -0.0436  0.5216  0.1122
 5649TIP3    H116911   6.104   3.292   3.900  0.2076 -1.8423 -1.3314
 5649TIP3    H216912   5.998   3.284   4.008 -3.0230 -1.7136 -4.3322
 5650TIP3   OH216913   6.148   0.741   3.430  0.1165 -0.4723  0.3156
 5650TIP3    H116914   6.057   0.709   3.429  0.5830 -1.9315 -1.1114
 5650TIP3    H216915   6.186   0.705   3.349  2.9582 -2.9086  2.5082
 5651TIP3   OH216916   6.862   0.446   4.282  0.2221  0.0813 -0.4391
 5651TIP3    H116917   6.915   0.421   4.358 -0.4600 -0.0773 -0.0043
 5651TIP3    H216918   6.926   0.474   4.216  0.8631 -0.4010 -0.0397
 5652TIP3   OH216919   5.526   6.504   3.933 -0.6682 -0.3969 -0.8805
 5652TIP3    H116920   5.612   6.461   3.936 -0.7040 -0.5191 -1.4692
 5652TIP3    H216921   5.487   6.472   3.852 -0.6131  0.8993 -1.4335
 5653TIP3   OH216922   4.888   6.153   4.803  0.4847  0.0665  0.0761
 5653TIP3    H116923   4.871   6.222   4.740  0.7652  0.0358 -0.0349
 5653TIP3    H216924   4.965   6.108   4.769  0.0155 -0.6107 -0.1146
 5654TIP3   OH216925   4.620   3.417   3.609  0.0695 -0.2982  0.9718
 5654TIP3    H116926   4.617   3.512   3.619 -0.8236 -0.5262  3.8377
 5654TIP3    H216927   4.558   3.398   3.538  0.5085  1.2268  0.1313
 5655TIP3   OH216928   2.703   0.562   4.021  0.0475  0.3551  0.0908
 5655TIP3    H116929   2.634   0.608   3.974  0.8251  1.0683 -0.3935
 5655TIP3    H216930   2.657   0.506   4.084 -1.0877 -1.2847 -2.0607
 5656TIP3   OH216931   4.732   4.765   3.075 -0.1353  0.1909  0.5099
 5656TIP3    H116932   4.669   4.835   3.060 -0.0666  0.0233 -0.6278
 5656TIP3    H216933   4.679   4.690   3.103 -0.3264  0.3408  0.5516
 5657TIP3   OH216934   1.978   4.798   1.636  0.1933 -0.2558  0.2673
 5657TIP3    H116935   2.050   4.811   1.575  0.1525 -0.3967  0.1894
 5657TIP3    H216936   1.902   4.837   1.593  0.1404 -0.4580  0.1781
 5658TIP3   OH216937   6.930   5.361   1.201 -0.0463 -0.3679  0.2456
 5658TIP3    H116938   6.978   5.320   1.129  1.4889  1.2801  0.2701
 5658TIP3    H216939   6.854   5.401   1.159  0.3128 -0.2496 -0.3054
 5659TIP3   OH216940   3.594   3.874   2.567 -0.7189  0.3327  0.0003
 5659TIP3    H116941   3.631   3.953   2.607 -1.6342  0.8781 -0.2013
 5659TIP3    H216942   3.659   3.848   2.501  0.0540  0.3305  0.7461
 5660TIP3   OH216943   4.130   0.726   5.722  0.9811  0.1211  0.7029
 5660TIP3    H116944   4.083   0.748   5.802 -0.3918 -2.3065  0.6784
 5660TIP3    H216945   4.190   0.799   5.708 -0.5704  1.8576  2.4901
 5661TIP3   OH216946   5.290   4.614   4.607  0.0925  0.0696 -0.8778
 5661TIP3    H116947   5.205   4.644   4.638 -0.2807  1.4276 -2.9737
 5661TIP3    H216948   5.275   4.524   4.578 -0.8826  0.5743 -2.0202
 5662TIP3   OH216949   4.830   0.352   1.101 -0.3339 -0.1013  0.1131
 5662TIP3    H116950   4.790   0.346   1.014  1.7728 -1.2039 -0.8616
 5662TIP3    H216951   4.771   0.303   1.158 -0.7859 -1.0027 -1.0823
 5663TIP3   OH216952   6.248   2.160   5.855  0.1756 -0.1753  0.6504
 5663TIP3    H116953   6.319   2.114   5.899 -0.4614 -0.4507  1.4182
 5663TIP3    H216954   6.256   2.251   5.883  0.6353 -0.0712  0.1888
 5664TIP3   OH216955   4.979   6.555   1.003 -0.1777 -0.1226 -0.1137
 5664TIP3    H116956   4.988   6.649   1.018 -2.1440 -0.0454  0.9034
 5664TIP3    H216957   5.055   6.532   0.951  0.4182  2.0064 -0.2869
 5665TIP3   OH216958   5.637   6.705   5.522  0.3894  0.3588 -0.0421
 5665TIP3    H116959   5.675   6.630   5.568  0.7658  0.8446  0.4517
 5665TIP3    H216960   5.657   6.689   5.430  0.6832 -0.0250  0.0842
 5666TIP3   OH216961   6.321   0.558   4.445 -0.8482 -0.2355  0.7245
 5666TIP3    H116962   6.281   0.474   4.468 -1.7741  0.5516  2.1147
 5666TIP3    H216963   6.313   0.612   4.524 -0.3062  1.1869 -0.1383
 5667TIP3   OH216964   6.782   3.619   2.432 -0.2314  0.1205 -0.1220
 5667TIP3    H116965   6.778   3.712   2.452  0.8037 -0.3054  2.3985
 5667TIP3    H216966   6.853   3.611   2.368  1.1709  0.8670  1.2871
 5668TIP3   OH216967   7.230   3.516   5.134 -0.0580 -0.0554 -0.0246
 5668TIP3    H116968   7.195   3.539   5.220  1.2469 -2.2010  1.1914
 5668TIP3    H216969   7.154   3.487   5.083 -0.7759  0.7492  0.5705
 5669TIP3   OH216970   2.639   1.664   4.418  0.4078  0.5723  0.1709
 5669TIP3    H116971   2.560   1.650   4.470  0.3452  1.3805  0.3009
 5669TIP3    H216972   2.607   1.707   4.338  0.7264  0.9765  0.2613
 5670TIP3   OH216973   4.040   4.659   4.570 -0.2018 -0.2890 -0.0464
 5670TIP3    H116974   3.948   4.680   4.582 -0.4539  0.6714 -2.8096
 5670TIP3    H216975   4.086   4.713   4.633 -1.4598  0.3536  0.3430
 5671TIP3   OH216976   3.613   2.979   3.333  0.5153  0.0571  0.3533
 5671TIP3    H116977   3.573   3.066   3.324  0.6672 -0.0162 -1.3893
 5671TIP3    H216978   3.683   2.978   3.268  0.7275 -1.2621  0.5778
 5672TIP3   OH216979   0.142   6.560   5.116 -0.1621  0.3790 -0.0882
 5672TIP3    H116980   0.204   6.589   5.049 -0.9135  0.8595 -0.5939
 5672TIP3    H216981   0.070   6.624   5.112 -0.5447  0.0156  0.6974
 5673TIP3   OH216982   2.040   6.554   4.444 -0.1527 -0.1763  0.0015
 5673TIP3    H116983   1.946   6.537   4.452 -0.2041 -0.3960 -0.9528
 5673TIP3    H216984   2.052   6.580   4.353  0.4937  1.3493  0.4889
 5674TIP3   OH216985   5.534   4.441   5.000  0.0776  0.3058 -0.7791
 5674TIP3    H116986   5.487   4.372   4.953  0.4441 -0.9553  0.6300
 5674TIP3    H216987   5.521   4.420   5.092  2.7691  0.3403 -0.3273
 5675TIP3   OH216988   5.400   3.730   2.680  0.1423 -0.0981 -0.5508
 5675TIP3    H116989   5.443   3.795   2.735  2.4166 -1.2869 -0.7532
 5675TIP3    H216990   5.371   3.779   2.603 -0.6655  1.1095  0.4885
 5676TIP3   OH216991   5.658   2.354   0.099 -0.0507 -0.1145  0.2831
 5676TIP3    H116992   5.753   2.354   0.092 -0.0241  0.6626  0.5050
 5676TIP3    H216993   5.640   2.332   0.190 -0.1189 -1.1182  0.0401
 5677TIP3   OH216994   6.236   3.168   5.295 -1.0266 -0.4597 -0.0371
 5677TIP3    H116995   6.274   3.251   5.324 -0.1207 -1.3159  1.3719
 5677TIP3    H216996   6.192   3.134   5.373 -0.7751 -1.6290 -0.3961
 5678TIP3   OH216997   0.296   6.104   2.840 -0.4658  0.0097 -0.3951
 5678TIP3    H116998   0.286   6.199   2.847 -0.8878 -0.1744  2.3086
 5678TIP3    H216999   0.349   6.080   2.916 -0.8236 -1.9897 -0.7381
 5679TIP3   OH217000   2.219   2.437   2.099  0.7530  0.1900  0.4691
 5679TIP3    H117001   2.225   2.418   2.006  0.9932 -0.1210  0.5471
 5679TIP3    H217002   2.308   2.462   2.124  0.6694  0.3619  0.5947
 5680TIP3   OH217003   2.677   1.927   0.522  0.1516  0.0080 -0.3473
 5680TIP3    H117004   2.741   1.949   0.589 -1.0434 -0.4979  1.0009
 5680TIP3    H217005   2.674   2.004   0.465  1.8153  0.0953 -0.3655
 5681TIP3   OH217006   1.597   6.260   5.756  0.1765 -0.4466  0.2457
 5681TIP3    H117007   1.568   6.171   5.732 -0.6926 -0.2038  0.3429
 5681TIP3    H217008   1.525   6.295   5.808  1.7176 -0.6991  2.6745
 5682TIP3   OH217009   6.058   0.319   3.720  0.1636 -0.2743 -0.2241
 5682TIP3    H117010   6.141   0.274   3.736 -0.5196 -1.7892 -0.7619
 5682TIP3    H217011   6.081   0.412   3.717  2.1624 -0.7458 -2.2738
 5683TIP3   OH217012   4.984   1.427   4.233  0.3639  0.4240 -0.1811
 5683TIP3    H117013   4.933   1.435   4.313  0.9303 -0.8083  0.3168
 5683TIP3    H217014   4.928   1.466   4.165  0.1891  2.1713  0.9038
 5684TIP3   OH217015   0.938   6.226   4.215 -0.1233  0.8319  0.4546
 5684TIP3    H117016   0.960   6.136   4.194  1.6554  1.9234 -3.0908
 5684TIP3    H217017   0.852   6.240   4.175 -1.0117  0.4261  2.1380
 5685TIP3   OH217018   1.192   3.646   1.618 -0.2068  0.0552 -0.0133
 5685TIP3    H117019   1.253   3.584   1.659 -0.0073  0.3965  0.2094
 5685TIP3    H217020   1.246   3.696   1.557 -0.5020 -0.4536 -0.7146
 5686TIP3   OH217021   6.331   6.213   3.658 -0.1021  0.3595  0.7950
 5686TIP3    H117022   6.274   6.138   3.673 -2.3822  1.7268 -0.4830
 5686TIP3    H217023   6.311   6.240   3.568 -0.3624  3.2879  1.6578
 5687TIP3   OH217024   4.003   4.275   1.041 -0.1096  0.4476 -0.3753
 5687TIP3    H117025   4.004   4.250   0.949  0.8991  0.2794 -0.3390
 5687TIP3    H217026   4.074   4.224   1.080 -0.7983  0.1981  0.5900
 5688TIP3   OH217027   4.784   1.531   1.329 -0.2416  0.2518 -0.0082
 5688TIP3    H117028   4.796   1.552   1.236 -0.9161  0.0315 -0.1508
 5688TIP3    H217029   4.870   1.498   1.357 -0.1413 -0.0624 -0.6516
 5689TIP3   OH217030   1.221   3.889   4.827 -0.3476 -0.1531 -0.3437
 5689TIP3    H117031   1.259   3.885   4.739 -1.2372  1.4859 -0.8597
 5689TIP3    H217032   1.217   3.983   4.847  2.1588 -0.5114  2.5369
 5690TIP3   OH217033   5.157   4.083   4.122  0.4108  0.1110 -0.4602
 5690TIP3    H117034   5.231   4.138   4.095 -0.5318  2.2538  1.0159
 5690TIP3    H217035   5.139   4.109   4.212 -0.7025 -2.0371  0.0116
 5691TIP3   OH217036   3.909   5.904   2.212 -0.4314 -0.0506  0.4041
 5691TIP3    H117037   3.837   5.917   2.150 -0.3873 -1.0931  0.1127
 5691TIP3    H217038   3.874   5.935   2.296 -0.8756  0.3524  0.0754
 5692TIP3   OH217039   5.486   4.455   5.553  0.1690 -0.7500  0.0276
 5692TIP3    H117040   5.481   4.540   5.597 -0.6298  0.5214 -2.3691
 5692TIP3    H217041   5.426   4.399   5.603 -1.2366  0.8278  0.1689
 5693TIP3   OH217042   6.974   0.053   2.629 -0.2958  0.0554 -0.3143
 5693TIP3    H117043   6.981   0.080   2.537  1.6072 -2.7606 -1.1236
 5693TIP3    H217044   6.901  -0.009   2.629 -0.9105  0.7556  0.3300
 5694TIP3   OH217045   5.081   4.729   1.495  0.1688 -0.0609 -0.3311
 5694TIP3    H117046   5.069   4.822   1.516  2.5776  0.0782  0.7226
 5694TIP3    H217047   5.024   4.715   1.419 -1.6249  1.8033  0.5467
 5695TIP3   OH217048   6.724   6.775   1.532 -0.6272  0.6827  0.0714
 5695TIP3    H117049   6.677   6.854   1.504 -1.2513  0.5362  0.7039
 5695TIP3    H217050   6.673   6.703   1.496  0.4119  0.5568 -1.2510
 5696TIP3   OH217051   1.272   6.475   3.753  0.2092  0.1324 -0.4087
 5696TIP3    H117052   1.216   6.492   3.829 -1.6666 -1.8977 -1.2315
 5696TIP3    H217053   1.221   6.509   3.679  1.0339  0.1429 -0.9795
 5697TIP3   OH217054   5.461   1.346   0.697 -0.1541 -0.3411  0.0483
 5697TIP3    H117055   5.480   1.391   0.779  1.2698 -1.4366  0.3686
 5697TIP3    H217056   5.374   1.376   0.672 -0.4788  0.2609  1.7884
 5698TIP3   OH217057   0.138   3.644   2.039 -0.2273  0.0660  0.0117
 5698TIP3    H117058   0.233   3.643   2.030 -0.2041  3.9545 -2.9513
 5698TIP3    H217059   0.106   3.592   1.965 -0.4822 -1.3363  1.0718
 5699TIP3   OH217060   3.190   5.361   3.275  0.2278  0.1052 -0.0065
 5699TIP3    H117061   3.285   5.349   3.285  0.4255  1.2648 -0.2642
 5699TIP3    H217062   3.179   5.384   3.183 -0.5224 -1.6870 -0.3916
 5700TIP3   OH217063   0.733   5.303   3.493 -0.4370 -0.0226 -0.4759
 5700TIP3    H117064   0.756   5.281   3.583 -0.2304  2.4744  0.1552
 5700TIP3    H217065   0.814   5.289   3.444 -0.0976  0.1343  0.0346
 5701TIP3   OH217066   3.850   1.439   5.271  0.2761 -0.4860  0.0869
 5701TIP3    H117067   3.829   1.513   5.214  1.2854 -0.4829 -0.2887
 5701TIP3    H217068   3.776   1.435   5.333  1.1183  2.0518  1.3783
 5702TIP3   OH217069   1.391   3.772   1.447 -0.9610  0.1623 -0.1410
 5702TIP3    H117070   1.339   3.851   1.433  1.0974  1.5666 -0.3100
 5702TIP3    H217071   1.481   3.802   1.447 -0.0360 -2.3177 -1.0012
 5703TIP3   OH217072   1.780   2.720   5.173  0.3875  0.5587 -0.0620
 5703TIP3    H117073   1.853   2.781   5.187 -0.7870  1.4356  3.3412
 5703TIP3    H217074   1.815   2.635   5.198  1.0638  0.3625 -1.5414
 5704TIP3   OH217075   6.198   3.344   0.829  0.6670 -0.3889  0.0295
 5704TIP3    H117076   6.123   3.324   0.773  0.6746 -0.4021  0.0240
 5704TIP3    H217077   6.166   3.333   0.918  0.5944 -0.1626  0.0326
 5705TIP3   OH217078   2.473   1.686   4.681  0.1733 -0.2206 -0.3937
 5705TIP3    H117079   2.567   1.674   4.699  0.8671  0.1916 -3.2231
 5705TIP3    H217080   2.466   1.774   4.644 -1.3324 -0.2503 -0.2439
 5706TIP3   OH217081   2.628   0.901   1.740  0.1968  0.0049  0.0870
 5706TIP3    H117082   2.599   0.827   1.794 -1.7352  0.3121 -0.4599
 5706TIP3    H217083   2.589   0.885   1.654 -0.4392  1.7632  0.0256
 5707TIP3   OH217084   4.597   5.125   1.326  0.1742 -0.5875 -0.0617
 5707TIP3    H117085   4.655   5.075   1.382  0.1005  0.8149  1.3270
 5707TIP3    H217086   4.607   5.216   1.355 -0.3524  0.1048 -1.8977
 5708TIP3   OH217087   4.762   3.498   0.133  0.3136  0.3156 -0.2556
 5708TIP3    H117088   4.769   3.408   0.101  2.0231  0.6847 -1.0168
 5708TIP3    H217089   4.685   3.534   0.089  0.0020 -0.5665 -0.4433
 5709TIP3   OH217090   6.453   0.684   4.237 -0.1840  0.4032  0.4281
 5709TIP3    H117091   6.407   0.644   4.312 -1.9490 -1.8223 -1.6706
 5709TIP3    H217092   6.527   0.626   4.221 -1.5238 -0.9111 -1.3120
 5710TIP3   OH217093   7.127   3.884   5.417  0.3235  0.5245  0.6479
 5710TIP3    H117094   7.199   3.869   5.356 -0.0184 -1.4716  0.6782
 5710TIP3    H217095   7.126   3.979   5.429  3.2394  0.6177  1.0236
 5711TIP3   OH217096   1.049   4.135   4.571  0.2054 -0.4604 -0.5151
 5711TIP3    H117097   0.954   4.133   4.575  0.1339  0.0273 -1.6249
 5711TIP3    H217098   1.076   4.044   4.581 -0.2407 -0.3963  1.9840
 5712TIP3   OH217099   0.968   5.720   1.506  0.0310  0.6550  0.4278
 5712TIP3    H117100   1.063   5.730   1.516  0.0874  0.9146 -0.3162
 5712TIP3    H217101   0.932   5.804   1.534  0.0781  0.8394 -0.0648
 5713TIP3   OH217102   3.528   4.440   1.441 -0.6223  0.2089 -0.1056
 5713TIP3    H117103   3.622   4.458   1.451 -0.7885  0.7837  0.5713
 5713TIP3    H217104   3.500   4.497   1.369 -0.4382 -0.0052 -0.3453
 5714TIP3   OH217105   3.786   2.915   4.862  0.7829 -0.5247  0.8705
 5714TIP3    H117106   3.700   2.874   4.856  0.9217 -0.6522 -1.4195
 5714TIP3    H217107   3.787   2.958   4.947 -2.5626  1.6895 -0.0212
 5715TIP3   OH217108   2.933   2.470   1.023  0.4979 -0.1031 -0.1438
 5715TIP3    H117109   2.873   2.513   0.962 -1.1594 -0.9778  0.7997
 5715TIP3    H217110   3.011   2.452   0.970  0.6992  2.6474 -0.9577
 5716TIP3   OH217111   0.223   4.464   5.578 -0.0435 -0.3950  0.6042
 5716TIP3    H117112   0.257   4.483   5.665  1.2031  1.1508 -0.1816
 5716TIP3    H217113   0.300   4.440   5.526 -0.5068  0.4500 -0.5246
 5717TIP3   OH217114   2.626   4.950   2.264  0.2573  0.4135 -0.3348
 5717TIP3    H117115   2.565   4.916   2.199 -0.5731  1.1725  0.0225
 5717TIP3    H217116   2.637   4.877   2.326 -0.2724  0.2586 -0.4152
 5718TIP3   OH217117   0.230   2.291   0.566  0.0392 -0.6602  0.2377
 5718TIP3    H117118   0.300   2.343   0.606  0.6076 -1.6866  0.6249
 5718TIP3    H217119   0.184   2.352   0.509  0.7261  0.2435  0.6269
 5719TIP3   OH217120   0.379   6.324   4.659  0.0417 -0.3443  0.1308
 5719TIP3    H117121   0.399   6.377   4.737  0.5441  1.8427 -1.4009
 5719TIP3    H217122   0.311   6.263   4.689  1.3071 -0.6794  2.6653
 5720TIP3   OH217123   5.876   1.090   5.465  0.1889 -0.5990  0.6494
 5720TIP3    H117124   5.859   1.115   5.555  0.5776  1.3975  0.2256
 5720TIP3    H217125   5.824   1.011   5.451  1.0840 -1.6840  2.9524
 5721TIP3   OH217126   5.344   2.734   5.044  0.8228 -0.2768 -0.0773
 5721TIP3    H117127   5.342   2.651   5.091  1.5725 -0.6434 -0.6816
 5721TIP3    H217128   5.423   2.778   5.076 -0.3598  0.9194  1.4029
 5722TIP3   OH217129   0.195   3.736   1.726  0.2707 -0.9712 -0.0882
 5722TIP3    H117130   0.108   3.775   1.733  0.6566 -0.1939  0.5306
 5722TIP3    H217131   0.255   3.806   1.751  0.9973 -1.8668  0.7568
 5723TIP3   OH217132   2.022   1.112   4.094 -0.2142 -0.0987  0.5228
 5723TIP3    H117133   1.975   1.195   4.084 -0.0565 -0.1259 -0.5241
 5723TIP3    H217134   2.112   1.137   4.111 -0.2259 -0.0545  0.5211
 5724TIP3   OH217135   6.547   0.071   0.700 -0.0833  0.3920 -0.1512
 5724TIP3    H117136   6.571   0.125   0.774 -0.1680  2.5859 -1.6274
 5724TIP3    H217137   6.621   0.011   0.688  0.4386  0.7968  0.9597
 5725TIP3   OH217138   3.893   1.939   3.025  0.3899  0.3005 -0.0762
 5725TIP3    H117139   3.818   1.923   3.083 -0.7125  0.1155 -1.4764
 5725TIP3    H217140   3.942   1.857   3.027 -0.0469  0.0376  0.0321
 5726TIP3   OH217141   4.873   4.835   4.651 -0.0638 -0.1482  0.7119
 5726TIP3    H117142   4.913   4.921   4.639 -0.9811  0.0589 -1.3080
 5726TIP3    H217143   4.850   4.806   4.562 -0.3906 -2.1859  1.3924
 5727TIP3   OH217144   2.970   3.974   1.265 -0.1439  0.4243 -0.5008
 5727TIP3    H117145   2.950   3.928   1.184  0.5287  0.4711 -0.6964
 5727TIP3    H217146   3.053   4.018   1.249 -0.3176  0.9571 -0.0011
 5728TIP3   OH217147   1.544   3.457   2.566  0.5707  0.4708  0.4177
 5728TIP3    H117148   1.516   3.540   2.605 -3.3521  0.1308 -1.1801
 5728TIP3    H217149   1.594   3.483   2.488  0.2208  1.3297  0.4670
 5729TIP3   OH217150   6.219   1.885   4.408  0.0779 -0.1072 -0.1613
 5729TIP3    H117151   6.261   1.971   4.411 -1.7058  0.8096 -0.1283
 5729TIP3    H217152   6.257   1.842   4.331  2.3246 -0.0614  0.8340
 5730TIP3   OH217153   5.481   4.720   0.162 -0.4032  0.1405 -0.2898
 5730TIP3    H117154   5.455   4.801   0.119 -0.2584  0.9336  1.0368
 5730TIP3    H217155   5.447   4.729   0.252 -0.8745 -1.5176 -0.2627
 5731TIP3   OH217156   5.543   0.164   4.005 -0.1255 -0.3277 -0.2045
 5731TIP3    H117157   5.594   0.228   4.055  1.1639  2.1759 -4.2429
 5731TIP3    H217158   5.604   0.091   3.990  0.2110 -0.1112  0.0849
 5732TIP3   OH217159   3.433   4.535   3.696  0.2194 -0.2541  0.3503
 5732TIP3    H117160   3.462   4.605   3.637 -0.6038  1.2109  1.5867
 5732TIP3    H217161   3.430   4.577   3.782  1.3410 -2.2984  1.4707
 5733TIP3   OH217162   4.020   2.996   0.846  0.6728  0.0923  0.0851
 5733TIP3    H117163   3.948   3.043   0.888 -1.0914 -0.9222 -1.6112
 5733TIP3    H217164   4.071   2.960   0.918 -1.9451 -1.1991  1.4352
 5734TIP3   OH217165   5.671   1.850   0.071 -0.2917  0.3689 -0.0664
 5734TIP3    H117166   5.657   1.899   0.153  1.1368  0.7010  0.0164
 5734TIP3    H217167   5.766   1.846   0.063 -0.2818  3.0273 -3.2599
 5735TIP3   OH217168   4.411   1.968   4.074  0.1049 -0.4780  0.2463
 5735TIP3    H117169   4.336   2.027   4.082  0.1335 -0.5887  1.4958
 5735TIP3    H217170   4.436   1.949   4.165  1.9725 -0.0210 -0.1378
 5736TIP3   OH217171   1.223   1.535   3.539  0.3644  0.2006 -0.0967
 5736TIP3    H117172   1.176   1.516   3.458 -0.9812  1.0046  0.4619
 5736TIP3    H217173   1.165   1.505   3.609  1.1977  0.1549  0.6001
 5737TIP3   OH217174   6.863   3.612   0.224  0.2151  0.2121 -0.3468
 5737TIP3    H117175   6.947   3.568   0.211  0.7367  1.2170 -0.5179
 5737TIP3    H217176   6.864   3.640   0.316  0.1632  0.3981 -0.4014
 5738TIP3   OH217177   2.714   5.619   2.023  0.4996  0.5437  0.3867
 5738TIP3    H117178   2.783   5.674   1.984 -2.1300  3.0111 -1.1319
 5738TIP3    H217179   2.705   5.545   1.964  1.3042  0.5934  0.1929
 5739TIP3   OH217180   6.016   1.680   0.646  0.5434 -0.0016 -0.1051
 5739TIP3    H117181   5.931   1.721   0.665 -0.0368 -0.6286 -1.2642
 5739TIP3    H217182   5.994   1.597   0.605  1.6996 -1.4884  2.0924
 5740TIP3   OH217183   6.010   5.064   4.140  0.7976 -0.0792  0.8752
 5740TIP3    H117184   5.950   5.104   4.204 -0.2216  1.0361 -0.7109
 5740TIP3    H217185   5.968   4.980   4.119 -0.6270  0.9590 -0.6872
 5741TIP3   OH217186   5.241   6.773   5.078 -0.1674 -0.7152  0.3533
 5741TIP3    H117187   5.247   6.725   5.160 -0.6447 -2.5162 -0.6061
 5741TIP3    H217188   5.183   6.846   5.097 -1.2627 -1.7948  1.3333
 5742TIP3   OH217189   0.363   2.515   4.199 -0.1430 -0.5461  0.4199
 5742TIP3    H117190   0.355   2.527   4.105 -0.4896 -2.3903  0.1673
 5742TIP3    H217191   0.456   2.495   4.214  0.0872  0.6143  0.6023
 5743TIP3   OH217192   6.463   1.251   4.202  0.1019 -0.7192 -0.5279
 5743TIP3    H117193   6.445   1.160   4.225 -0.3807 -0.5385 -0.1625
 5743TIP3    H217194   6.392   1.300   4.243 -1.7387 -0.5189 -3.6182
 5744TIP3   OH217195   1.958   1.973   5.804  0.1367 -0.1482  0.2422
 5744TIP3    H117196   1.918   2.002   5.885 -0.6023  0.6312 -0.3827
 5744TIP3    H217197   1.972   1.879   5.816 -0.2080 -0.0880  1.1610
 5745TIP3   OH217198   6.679   2.201   3.942  0.3046 -0.2307 -0.1476
 5745TIP3    H117199   6.586   2.177   3.935  0.4991 -1.3688  0.9168
 5745TIP3    H217200   6.725   2.118   3.947  1.3756  0.3317 -0.3970
 5746TIP3   OH217201   1.836   3.296   3.519 -0.1655 -0.5203  0.0106
 5746TIP3    H117202   1.777   3.271   3.590 -0.1431 -1.6197 -0.3302
 5746TIP3    H217203   1.881   3.374   3.551 -1.3193 -0.0418  0.5422
 5747TIP3   OH217204   0.818   6.202   2.662 -0.3487 -0.5290 -0.2189
 5747TIP3    H117205   0.865   6.283   2.679 -1.6875  0.3734 -0.6690
 5747TIP3    H217206   0.882   6.133   2.680  1.0526  0.6303 -0.5867
 5748TIP3   OH217207   5.974   4.637   5.799 -0.0725  0.5248  0.4026
 5748TIP3    H117208   5.901   4.578   5.817 -0.1562 -0.0168 -1.4540
 5748TIP3    H217209   6.048   4.599   5.847 -0.6819  0.3045  1.1906
 5749TIP3   OH217210   4.551   2.593   3.464 -0.2286 -0.1683  0.0602
 5749TIP3    H117211   4.503   2.675   3.479 -0.1581 -0.3665  1.5318
 5749TIP3    H217212   4.562   2.556   3.552  0.3957 -1.3891 -0.5158
 5750TIP3   OH217213   5.899   0.072   2.701  0.0330  0.0869 -0.2456
 5750TIP3    H117214   5.955   0.008   2.656  1.3644  1.2776 -0.3546
 5750TIP3    H217215   5.958   0.144   2.722 -1.3032  1.0181  0.4268
 5751TIP3   OH217216   0.432   4.697   0.203 -0.1950  0.3158  0.4443
 5751TIP3    H117217   0.417   4.778   0.154  2.6138 -0.2050 -1.5216
 5751TIP3    H217218   0.489   4.722   0.275 -0.9759  0.3949  1.0439
 5752TIP3   OH217219   0.741   2.104   4.535  0.1256 -0.1859  0.6518
 5752TIP3    H117220   0.724   2.105   4.441  2.0244  2.3793  0.2323
 5752TIP3    H217221   0.700   2.185   4.567  0.2060 -0.6172  1.8859
 5753TIP3   OH217222   5.139   4.246   0.401 -0.3566 -0.2918 -0.2442
 5753TIP3    H117223   5.054   4.289   0.389 -0.2623 -0.0305  0.0070
 5753TIP3    H217224   5.156   4.203   0.317 -0.5074  0.0687 -0.4632
 5754TIP3   OH217225   5.362   0.717   0.290  0.0245  0.3924  0.1046
 5754TIP3    H117226   5.273   0.752   0.287  0.4756  1.5962  0.1989
 5754TIP3    H217227   5.393   0.724   0.200 -0.6409 -1.9043 -0.3615
 5755TIP3   OH217228   3.640   1.449   3.497 -0.5620 -0.7197 -0.2055
 5755TIP3    H117229   3.687   1.367   3.513 -0.8806 -0.7613  0.5140
 5755TIP3    H217230   3.685   1.514   3.550 -1.3597 -0.7741  0.5477
 5756TIP3   OH217231   6.978   3.297   4.147  0.0394  0.1429 -0.0880
 5756TIP3    H117232   7.032   3.266   4.074 -2.3697  0.6689 -2.2223
 5756TIP3    H217233   7.022   3.378   4.176  0.9437  0.0384 -1.0817
 5757TIP3   OH217234   5.780   4.916   4.193  0.0326  0.0754  0.7580
 5757TIP3    H117235   5.692   4.954   4.188  0.0141 -0.0479  0.1121
 5757TIP3    H217236   5.791   4.893   4.285 -0.6793 -0.0628  0.8133
 5758TIP3   OH217237   3.613   1.375   1.275  0.4448 -0.0568 -0.2574
 5758TIP3    H117238   3.693   1.374   1.327  0.5012 -1.3639 -0.3500
 5758TIP3    H217239   3.599   1.468   1.254  2.8183  0.0748 -1.5876
 5759TIP3   OH217240   1.628   6.255   1.569  0.8912  0.1568 -0.0164
 5759TIP3    H117241   1.623   6.204   1.488 -0.4186  1.2401 -0.6455
 5759TIP3    H217242   1.714   6.297   1.565  0.7813  0.3158 -0.9161
 5760TIP3   OH217243   5.616   4.518   2.390  0.3248 -0.0377 -0.2068
 5760TIP3    H117244   5.625   4.430   2.354  0.4200  0.1979 -0.7690
 5760TIP3    H217245   5.526   4.522   2.421  0.4988 -0.5367  0.3789
 5761TIP3   OH217246   4.161   1.987   2.081 -0.2931  0.4387 -0.0817
 5761TIP3    H117247   4.142   1.903   2.123  0.6897 -0.2868 -1.0486
 5761TIP3    H217248   4.216   2.034   2.144  2.1083 -1.0866 -0.8900
 5762TIP3   OH217249   4.695   6.647   3.476  0.6310  0.4554  0.0832
 5762TIP3    H117250   4.777   6.610   3.508  1.3644  0.5524 -1.5696
 5762TIP3    H217251   4.721   6.728   3.432 -0.2317  0.1043 -1.1256
 5763TIP3   OH217252   4.210   6.602   1.596 -0.5336  0.0470  0.3504
 5763TIP3    H117253   4.157   6.651   1.658 -2.8070 -1.9072  0.1138
 5763TIP3    H217254   4.174   6.624   1.510  0.7711  0.6433 -0.0630
 5764TIP3   OH217255   5.535   5.836   3.355  0.2641 -0.3200  0.5751
 5764TIP3    H117256   5.616   5.802   3.317  0.3385 -1.6718  1.8887
 5764TIP3    H217257   5.558   5.924   3.385  0.6777  0.0884 -0.8462
 5765TIP3   OH217258   0.803   2.652   0.422  0.1668 -0.3280  0.0466
 5765TIP3    H117259   0.815   2.568   0.377 -0.7087 -1.2670  1.4828
 5765TIP3    H217260   0.742   2.701   0.366  0.4651 -0.7480 -0.6598
 5766TIP3   OH217261   3.240   4.524   3.323 -0.4482 -0.2289 -0.6807
 5766TIP3    H117262   3.299   4.590   3.287  1.4177  0.2647  2.7718
 5766TIP3    H217263   3.271   4.441   3.289  2.1606  0.0632  0.7358
 5767TIP3   OH217264   6.529   6.420   2.515 -0.3832 -0.1639  0.1149
 5767TIP3    H117265   6.590   6.402   2.586  0.7054  0.2003 -0.6971
 5767TIP3    H217266   6.458   6.357   2.528  0.7570 -1.4424  0.3708
 5768TIP3   OH217267   4.796   5.512   0.682 -0.6895 -0.1192 -0.2506
 5768TIP3    H117268   4.709   5.487   0.652 -0.7333 -1.0174  0.5685
 5768TIP3    H217269   4.784   5.598   0.722 -1.4966 -0.7908  1.0321
 5769TIP3   OH217270   3.497   4.801   0.808  0.0958  0.2843  0.4338
 5769TIP3    H117271   3.416   4.835   0.845 -0.0035  1.5229 -0.8296
 5769TIP3    H217272   3.472   4.720   0.763  0.1303 -0.9568  2.5063
 5770TIP3   OH217273   6.311   5.752   3.851  0.2328  0.0303 -0.1943
 5770TIP3    H117274   6.284   5.802   3.928 -1.7858 -0.5078 -0.4924
 5770TIP3    H217275   6.360   5.678   3.886 -1.1780 -0.5370  0.6484
 5771TIP3   OH217276   6.877   1.138   5.618  0.5438  0.1465 -0.9080
 5771TIP3    H117277   6.793   1.184   5.614 -0.4798 -1.4668  0.7811
 5771TIP3    H217278   6.856   1.048   5.591  1.8207 -0.1871 -0.8369
 5772TIP3   OH217279   7.011   2.997   0.911  0.2204 -0.2655 -0.1729
 5772TIP3    H117280   7.101   3.023   0.929  0.1997 -0.1696 -0.2118
 5772TIP3    H217281   6.985   2.947   0.989  1.2234 -2.6724 -1.2676
 5773TIP3   OH217282   0.477   3.490   5.504 -0.3883 -0.3768  0.1596
 5773TIP3    H117283   0.525   3.571   5.488  0.1149 -0.5493  0.7533
 5773TIP3    H217284   0.388   3.509   5.477 -0.3117  0.4337  0.4562
 5774TIP3   OH217285   3.921   4.634   3.396  0.0667  0.1794  0.2387
 5774TIP3    H117286   3.870   4.603   3.471 -0.5891 -0.8108 -0.6005
 5774TIP3    H217287   3.863   4.693   3.349  0.4315  0.6937  0.4198
 5775TIP3   OH217288   3.137   3.182   4.294  0.5518  0.1974 -0.0720
 5775TIP3    H117289   3.232   3.193   4.303  0.8610 -1.6063 -0.7023
 5775TIP3    H217290   3.110   3.256   4.240  1.3648  1.4643  1.1744
 5776TIP3   OH217291   2.891   5.193   1.643  0.5366  0.4186 -0.1851
 5776TIP3    H117292   2.920   5.106   1.618 -2.0206 -0.5702 -0.0588
 5776TIP3    H217293   2.867   5.236   1.560 -2.7169 -0.8481 -0.0504
 5777TIP3   OH217294   4.713   4.893   0.256 -0.7645  0.6413  0.4201
 5777TIP3    H117295   4.664   4.942   0.191  0.1938  0.3590 -0.5386
 5777TIP3    H217296   4.722   4.805   0.220  2.1919  1.1958 -0.4646
 5778TIP3   OH217297   1.283   2.898   4.425 -0.3413 -0.1652 -0.1119
 5778TIP3    H117298   1.230   2.919   4.348 -0.9507 -0.5313  0.1965
 5778TIP3    H217299   1.273   2.804   4.436 -0.4100 -0.0912  0.5161
 5779TIP3   OH217300   4.060   2.458   4.745 -0.2888  0.2475  0.1680
 5779TIP3    H117301   4.086   2.489   4.832 -0.2965 -1.1739  0.7054
 5779TIP3    H217302   4.004   2.527   4.711  0.0616  1.0271  1.1174
 5780TIP3   OH217303   5.679   4.139   3.515  0.1516  0.4023  0.1618
 5780TIP3    H117304   5.764   4.170   3.545  0.7979  0.1027 -1.2870
 5780TIP3    H217305   5.685   4.043   3.520  0.0240  0.3700 -0.2883
 5781TIP3   OH217306   4.175   5.111   4.637  0.0134  0.0119  0.5141
 5781TIP3    H117307   4.198   5.193   4.594 -1.7321  2.2315  3.4780
 5781TIP3    H217308   4.254   5.058   4.630  0.5403  0.9962 -3.2986
 5782TIP3   OH217309   5.438   5.103   1.175  0.1675 -0.0533 -0.0002
 5782TIP3    H117310   5.364   5.164   1.178  0.9209  0.8386  1.6462
 5782TIP3    H217311   5.415   5.033   1.235 -0.1248 -0.7616 -0.9069
 5783TIP3   OH217312   0.123   2.939   0.901  0.4828  0.1431  0.0679
 5783TIP3    H117313   0.144   3.011   0.960 -1.7241 -0.0310  1.1847
 5783TIP3    H217314   0.178   2.953   0.825  1.5173  1.8862  1.0749
 5784TIP3   OH217315   0.756   1.824   5.497  0.3201  0.2788 -0.5189
 5784TIP3    H117316   0.727   1.858   5.412  1.5316  1.5638 -0.4660
 5784TIP3    H217317   0.852   1.822   5.491  0.3690 -1.8880  0.0055
 5785TIP3   OH217318   2.001   5.747   1.483  0.2300 -0.2910  0.3298
 5785TIP3    H117319   1.992   5.812   1.413  1.9213 -1.6136 -1.1935
 5785TIP3    H217320   2.080   5.698   1.461 -1.5262 -3.6321  0.7795
 5786TIP3   OH217321   2.560   4.030   1.899 -0.1632 -0.3516 -0.6987
 5786TIP3    H117322   2.483   4.087   1.906 -0.2394 -0.5924  0.6434
 5786TIP3    H217323   2.631   4.088   1.873 -0.1258  0.4809  1.1666
 5787TIP3   OH217324   4.288   3.620   3.584  0.4937  0.3331  0.4701
 5787TIP3    H117325   4.313   3.606   3.492 -0.4238 -0.8026  0.3656
 5787TIP3    H217326   4.286   3.715   3.593  2.3504  0.4811 -0.1698
 5788TIP3   OH217327   2.986   4.747   4.901 -0.4212  0.1310  0.3146
 5788TIP3    H117328   2.917   4.708   4.955 -0.3001 -0.1647  0.2621
 5788TIP3    H217329   3.061   4.688   4.913  0.6941  1.8554  2.4399
 5789TIP3   OH217330   1.099   4.434   1.419 -0.5492 -0.2780  0.3638
 5789TIP3    H117331   1.168   4.501   1.423 -1.2232  0.3716  2.5485
 5789TIP3    H217332   1.116   4.388   1.336  0.9206  1.5205 -0.4300
 5790TIP3   OH217333   6.222   5.023   0.635  1.1985  0.1594  0.4590
 5790TIP3    H117334   6.278   5.056   0.565  0.1718  0.1920 -0.3762
 5790TIP3    H217335   6.228   4.928   0.628  2.3134  0.1402  1.3543
 5791TIP3   OH217336   2.852   1.318   4.466  0.5391  0.5099 -0.2706
 5791TIP3    H117337   2.826   1.232   4.433  1.1894  0.6304 -1.1496
 5791TIP3    H217338   2.797   1.380   4.418  1.3221  0.6730 -0.9969
 5792TIP3   OH217339   0.996   2.586   0.626 -0.0647 -0.3405 -0.1518
 5792TIP3    H117340   1.036   2.516   0.678  0.7130  0.0126 -0.2581
 5792TIP3    H217341   1.068   2.624   0.577 -0.3653  0.8669  0.2851
 5793TIP3   OH217342   1.740   3.368   0.634  0.5564  0.3045 -0.7629
 5793TIP3    H117343   1.707   3.286   0.598  2.0050 -0.8077  0.3461
 5793TIP3    H217344   1.678   3.391   0.704  0.8487 -0.5532 -0.2092
 5794TIP3   OH217345   0.301   1.825   4.347 -0.4745 -0.6769  0.4144
 5794TIP3    H117346   0.210   1.796   4.356 -0.5148 -0.4908  0.6116
 5794TIP3    H217347   0.306   1.905   4.399  0.4064 -1.9625  2.4652
 5795TIP3   OH217348   5.063   2.664   5.786  0.3585 -0.5376  0.1473
 5795TIP3    H117349   5.129   2.599   5.763 -1.1410 -1.8946 -0.5192
 5795TIP3    H217350   5.023   2.631   5.867  1.8853  1.3891  1.7923
 5796TIP3   OH217351   5.008   5.682   0.501 -0.1098 -0.3078  0.1421
 5796TIP3    H117352   4.916   5.702   0.484 -1.1072 -2.7549  1.9714
 5796TIP3    H217353   5.022   5.596   0.462  1.2160 -0.2385  0.4106
 5797TIP3   OH217354   1.089   0.683   4.647  0.6009  0.1679  0.1135
 5797TIP3    H117355   1.130   0.748   4.590 -0.7970  1.0056  0.0013
 5797TIP3    H217356   1.135   0.601   4.629  0.4548  0.4884 -1.9640
 5798TIP3   OH217357   4.299   3.128   4.634  0.0602 -0.1540  0.4505
 5798TIP3    H117358   4.285   3.214   4.595 -0.7775  0.1552  1.4075
 5798TIP3    H217359   4.393   3.125   4.652  0.2930  0.0823 -0.6459
 5799TIP3   OH217360   0.694   5.541   0.126 -0.1493 -0.3361  1.2911
 5799TIP3    H117361   0.754   5.612   0.102  1.4149 -1.7104  0.9807
 5799TIP3    H217362   0.751   5.467   0.145 -1.6781 -1.1892  2.8356
 5800TIP3   OH217363   1.821   3.806   4.565 -0.5656  0.5656 -0.0739
 5800TIP3    H117364   1.886   3.876   4.577  0.3734 -0.3519  0.2900
 5800TIP3    H217365   1.825   3.756   4.646 -1.1759  0.0329 -0.3661
 5801TIP3   OH217366   2.139   5.569   2.952  0.6196 -0.2464 -0.4611
 5801TIP3    H117367   2.194   5.491   2.943  1.5859  0.3751 -0.0609
 5801TIP3    H217368   2.154   5.598   3.042  1.2744  1.1292 -0.9895
 5802TIP3   OH217369   2.788   5.057   2.902  0.6281  0.2760 -0.1762
 5802TIP3    H117370   2.803   5.033   2.994 -1.1949 -0.7614 -0.0838
 5802TIP3    H217371   2.710   5.113   2.904  1.0139  0.8694 -1.0373
 5803TIP3   OH217372   3.322   6.331   3.110  0.3604  0.4620  0.3487
 5803TIP3    H117373   3.310   6.242   3.143  1.3075 -0.1328 -0.8473
 5803TIP3    H217374   3.272   6.386   3.171 -1.0083 -0.9728  0.5813
 5804TIP3   OH217375   6.863   4.043   5.717  0.2135 -0.5275  0.2816
 5804TIP3    H117376   6.959   4.040   5.711  0.2506  0.2495  0.3333
 5804TIP3    H217377   6.845   4.028   5.810  0.4022  1.1362  0.6206
 5805TIP3   OH217378   2.245   0.960   0.937  0.2382 -0.1504  0.7219
 5805TIP3    H117379   2.221   0.897   0.869  0.1951  1.8491 -1.2024
 5805TIP3    H217380   2.340   0.966   0.931  0.1785  0.5102  0.3752
 5806TIP3   OH217381   1.924   2.931   0.802  0.0665 -0.2487  0.5122
 5806TIP3    H117382   1.890   3.019   0.817 -0.7100 -0.3357 -0.6149
 5806TIP3    H217383   1.882   2.902   0.721  0.0952 -1.7594  0.9963
 5807TIP3   OH217384   5.897   0.128   0.155 -0.3830 -0.1280 -0.1921
 5807TIP3    H117385   5.868   0.172   0.075 -2.8327  1.8897  1.6239
 5807TIP3    H217386   5.868   0.037   0.145 -0.0777 -0.0722 -1.8012
 5808TIP3   OH217387   2.070   5.827   1.742  0.1243 -0.4462 -0.2064
 5808TIP3    H117388   2.048   5.789   1.657 -0.3472 -1.4645  0.3483
 5808TIP3    H217389   2.141   5.772   1.775  0.2390 -0.1186  0.0965
 5809TIP3   OH217390   3.114   4.009   3.139 -0.3462  0.2789 -0.1592
 5809TIP3    H117391   3.025   4.041   3.127 -1.2537 -1.0680  2.3312
 5809TIP3    H217392   3.113   3.921   3.102  0.0883  0.4133 -0.4982
 5810TIP3   OH217393   6.984   5.298   4.853  1.0212  0.1332 -0.4372
 5810TIP3    H117394   6.997   5.248   4.772  0.3682 -1.9953  0.6976
 5810TIP3    H217395   6.915   5.251   4.899 -0.7055  2.9758  0.0871
 5811TIP3   OH217396   4.924   0.781   1.056  0.0992  0.1335  0.1438
 5811TIP3    H117397   4.960   0.693   1.067  1.2306  0.3227 -1.7049
 5811TIP3    H217398   4.857   0.771   0.988 -1.0092  0.4177  1.1561
 5812TIP3   OH217399   0.805   0.114   3.714  0.1666  0.7606 -0.2766
 5812TIP3    H117400   0.847   0.076   3.792  1.2695  0.4231 -1.0004
 5812TIP3    H217401   0.713   0.088   3.721  0.2605  0.6762  0.8704
 5813TIP3   OH217402   0.178   5.027   5.280  0.2078  0.8102  0.1914
 5813TIP3    H117403   0.243   5.052   5.214  2.7301 -0.2935  2.0557
 5813TIP3    H217404   0.202   5.080   5.357  0.4843 -1.3200  1.6593
 5814TIP3   OH217405   5.142   1.000   1.650 -0.0221  0.3865 -0.1181
 5814TIP3    H117406   5.132   0.911   1.682  0.9125 -0.0151 -0.9028
 5814TIP3    H217407   5.053   1.034   1.644 -0.5619 -1.1846 -1.7123
 5815TIP3   OH217408   4.421   2.687   4.263 -0.2656 -0.1527 -0.1036
 5815TIP3    H117409   4.458   2.703   4.350  0.3045  0.6501 -0.4849
 5815TIP3    H217410   4.463   2.752   4.206 -1.4518  0.0571 -0.7704
 5816TIP3   OH217411   1.512   4.353   1.016 -0.3503 -0.0029  0.1522
 5816TIP3    H117412   1.581   4.392   0.962  2.3947 -3.0256  1.1486
 5816TIP3    H217413   1.523   4.394   1.102 -0.4411  0.2141  0.0603
 5817TIP3   OH217414   2.486   4.447   3.427 -0.1188 -0.4900  0.5740
 5817TIP3    H117415   2.444   4.361   3.429 -0.1739 -0.4527  1.9487
 5817TIP3    H217416   2.552   4.439   3.359 -1.2356 -1.0746 -0.4895
 5818TIP3   OH217417   4.272   1.121   1.162  0.4236 -0.4912  0.0013
 5818TIP3    H117418   4.328   1.184   1.208 -0.5760  0.6804 -0.3431
 5818TIP3    H217419   4.192   1.170   1.143 -1.0708 -2.3589  1.1753
 5819TIP3   OH217420   4.015   4.995   4.308 -0.4315  0.2733 -0.2633
 5819TIP3    H117421   4.072   5.022   4.235  0.3632  1.6176  0.8129
 5819TIP3    H217422   3.936   4.963   4.265  0.0764  0.8921 -1.7305
 5820TIP3   OH217423   5.109   3.147   4.950  0.4259 -0.0377  0.4856
 5820TIP3    H117424   5.167   3.147   4.873 -0.8561  0.2270 -0.5159
 5820TIP3    H217425   5.153   3.088   5.012 -0.2579 -3.3140 -1.8623
 5821TIP3   OH217426   4.691   1.062   2.273  0.2351 -0.0362 -0.5405
 5821TIP3    H117427   4.657   1.054   2.362 -0.5508 -1.4567 -0.9381
 5821TIP3    H217428   4.613   1.072   2.219  0.5897 -0.8553 -1.2205
 5822TIP3   OH217429   6.207   4.715   3.087  0.1672 -0.3835  0.0635
 5822TIP3    H117430   6.211   4.694   2.994  1.0504 -0.1188  0.0350
 5822TIP3    H217431   6.173   4.635   3.128  1.3465 -1.1094 -0.3048
 5823TIP3   OH217432   5.914   3.045   1.809  0.4896 -0.4875  0.4719
 5823TIP3    H117433   5.896   2.990   1.885  0.6022  0.0745  0.9079
 5823TIP3    H217434   5.853   3.118   1.816  1.6550  0.4739  0.9778
 5824TIP3   OH217435   6.082   2.419   5.745 -0.4828  0.1460 -0.0356
 5824TIP3    H117436   6.165   2.465   5.734 -0.6963  0.7718  0.8423
 5824TIP3    H217437   6.039   2.465   5.817 -1.3563 -0.5088 -0.1261
 5825TIP3   OH217438   4.830   6.132   2.040  0.1704  0.3156  0.6272
 5825TIP3    H117439   4.786   6.070   1.983 -0.5928 -0.4229  1.9810
 5825TIP3    H217440   4.866   6.198   1.980 -2.1928  0.6128 -0.5937
 5826TIP3   OH217441   4.960   4.030   1.003  0.1722  0.0638  0.1371
 5826TIP3    H117442   5.056   4.023   1.003  0.4917  3.1402 -0.3350
 5826TIP3    H217443   4.935   4.021   1.095  0.7021 -2.3013  0.1020
 5827TIP3   OH217444   0.380   4.120   3.494  0.0982 -0.1800 -0.2875
 5827TIP3    H117445   0.386   4.031   3.528 -1.6002  0.9666  3.6234
 5827TIP3    H217446   0.468   4.156   3.505  0.0211 -0.4178  1.4013
 5828TIP3   OH217447   5.570   5.910   2.052 -0.1099  0.0483  0.7648
 5828TIP3    H117448   5.574   5.879   1.962 -2.1821  0.2315  0.5673
 5828TIP3    H217449   5.483   5.883   2.083 -0.5611  2.4496  1.7882
 5829TIP3   OH217450   6.978   0.781   5.652  0.2793 -0.1885  0.8899
 5829TIP3    H117451   6.991   0.715   5.719  1.5290 -0.0793  0.7710
 5829TIP3    H217452   6.887   0.811   5.665  0.4057 -0.3641  2.3364
 5830TIP3   OH217453   1.517   4.790   5.830 -0.0915  0.3395  0.1217
 5830TIP3    H117454   1.547   4.863   5.775  0.2331 -0.1658 -0.3834
 5830TIP3    H217455   1.508   4.828   5.917 -0.8563  1.2204 -0.3242
 5831TIP3   OH217456   3.082   1.888   5.205 -0.0227 -0.5351 -0.0880
 5831TIP3    H117457   3.112   1.851   5.288 -0.3026 -1.1160 -0.2465
 5831TIP3    H217458   3.112   1.979   5.208 -0.8548 -0.2813  1.0586
 5832TIP3   OH217459   2.099   3.691   1.635 -0.3538  0.3424 -0.4105
 5832TIP3    H117460   2.085   3.745   1.712  1.2534  0.0818  0.1028
 5832TIP3    H217461   2.060   3.742   1.563 -1.2412  0.9136  0.4529
 5833TIP3   OH217462   2.007   2.408   2.389 -0.2533 -0.1022 -0.6100
 5833TIP3    H117463   1.997   2.430   2.297 -2.2452 -0.1408 -0.4477
 5833TIP3    H217464   1.917   2.401   2.422  0.4006  0.3326  1.4315
 5834TIP3   OH217465   0.228   1.976   0.959 -0.2428  0.6889 -0.2234
 5834TIP3    H117466   0.243   1.887   0.988  0.7895  0.8355 -0.2506
 5834TIP3    H217467   0.149   2.005   1.005 -0.6245 -0.2532 -0.2757
 5835TIP3   OH217468   0.781   0.669   5.294 -0.0649 -0.0851  0.1842
 5835TIP3    H117469   0.712   0.603   5.298  0.9203 -1.1690 -0.0403
 5835TIP3    H217470   0.799   0.679   5.200  0.3127 -0.0519  0.2608
 5836TIP3   OH217471   4.685   0.101   2.831 -0.1050  0.1213  0.3339
 5836TIP3    H117472   4.736   0.145   2.764 -0.8659  2.4160  1.1745
 5836TIP3    H217473   4.748   0.081   2.900  0.2711 -0.2697 -0.1177
 5837TIP3   OH217474   4.370   0.314   4.708 -0.1705 -0.2554  0.5751
 5837TIP3    H117475   4.285   0.318   4.665 -1.0873 -2.1823  2.0253
 5837TIP3    H217476   4.375   0.394   4.760 -1.6134 -0.5851  1.2715
 5838TIP3   OH217477   1.604   3.134   0.577 -0.1562  0.4250  0.1616
 5838TIP3    H117478   1.548   3.141   0.655 -1.1653  1.8013 -0.6311
 5838TIP3    H217479   1.648   3.050   0.586 -1.2922 -0.0616  1.5350
 5839TIP3   OH217480   1.117   6.806   2.514  0.3366  0.3714 -0.0391
 5839TIP3    H117481   1.202   6.802   2.470  1.0750  0.9739  1.2823
 5839TIP3    H217482   1.111   6.723   2.561 -0.5524 -0.3701 -1.3850
 5840TIP3   OH217483   6.711   4.639   5.709  0.0158  0.0269 -0.3678
 5840TIP3    H117484   6.626   4.642   5.752  0.1605  0.0022 -0.0751
 5840TIP3    H217485   6.692   4.617   5.618 -0.3005  0.1739 -0.3354
 5841TIP3   OH217486   2.762   0.210   0.011  0.4337  0.4683 -0.0862
 5841TIP3    H117487   2.766   0.176   0.101  1.4708  0.5786 -0.0742
 5841TIP3    H217488   2.851   0.199  -0.022  0.0259  0.3091 -1.1541
 5842TIP3   OH217489   1.393   5.705   2.449  0.1274  0.3082  0.1230
 5842TIP3    H117490   1.365   5.647   2.379  1.0841  1.0139 -0.8687
 5842TIP3    H217491   1.352   5.669   2.528  0.1588 -1.3080 -0.5659
 5843TIP3   OH217492   0.286   4.734   2.021 -0.5565 -0.2839 -0.0679
 5843TIP3    H117493   0.379   4.730   1.999 -0.5419 -1.0140  0.0954
 5843TIP3    H217494   0.277   4.814   2.073  0.2089 -0.8497  0.9684
 5844TIP3   OH217495   4.057   1.517   1.442 -0.2462 -0.0395  0.1161
 5844TIP3    H117496   4.080   1.597   1.395  1.3343 -0.3870  0.2483
 5844TIP3    H217497   4.057   1.543   1.534  0.2748 -0.1796  0.1596
 5845TIP3   OH217498   3.403   0.539   1.968 -0.4395 -0.4269  0.0782
 5845TIP3    H117499   3.404   0.634   1.955  0.8651 -0.6659 -1.8184
 5845TIP3    H217500   3.327   0.509   1.917  0.0604 -0.5466 -0.6080
 5846TIP3   OH217501   2.323   2.835   3.917  0.0608  0.8714  0.2879
 5846TIP3    H117502   2.368   2.916   3.895  0.2011  0.6015 -0.4794
 5846TIP3    H217503   2.379   2.792   3.981  1.8893 -0.3029 -1.9589
 5847TIP3   OH217504   6.568   0.633   1.982 -0.3578  0.7752 -0.2092
 5847TIP3    H117505   6.607   0.610   2.067 -0.4650 -0.1283 -0.3998
 5847TIP3    H217506   6.506   0.703   2.003 -0.9219  0.0661  0.5901
 5848TIP3   OH217507   3.375   5.817   2.660  0.1207  0.5582 -0.5829
 5848TIP3    H117508   3.430   5.893   2.647 -0.7802  1.3903  0.2771
 5848TIP3    H217509   3.289   5.853   2.684 -0.3249 -0.7128 -0.1716
 5849TIP3   OH217510   0.522   2.833   1.763 -0.1634 -0.1720 -0.0079
 5849TIP3    H117511   0.433   2.863   1.783 -0.3017 -0.6900  0.1620
 5849TIP3    H217512   0.514   2.738   1.756  0.7174 -0.3991  1.7425
 5850TIP3   OH217513   4.902   3.495   0.463  0.0699  0.0446  0.2255
 5850TIP3    H117514   4.890   3.523   0.372 -0.7025  1.8477  0.8375
 5850TIP3    H217515   4.947   3.411   0.456  1.4662  0.8728 -1.7926
 5851TIP3   OH217516   3.106   1.174   4.456 -0.3131 -0.3382 -0.2717
 5851TIP3    H117517   3.021   1.209   4.482  0.4879  1.2195  0.3675
 5851TIP3    H217518   3.111   1.088   4.499 -1.2753 -0.1611  0.2207
 5852TIP3   OH217519   6.803   3.049   5.751 -0.6062 -0.2835  0.0223
 5852TIP3    H117520   6.858   3.126   5.763 -0.2211 -0.7112  1.0904
 5852TIP3    H217521   6.852   2.977   5.791  0.6373 -1.8323 -3.8195
 5853TIP3   OH217522   3.403   4.050   0.526  0.0440  0.6335 -0.2981
 5853TIP3    H117523   3.446   3.971   0.494  0.2091  0.4737  0.2970
 5853TIP3    H217524   3.310   4.036   0.509  0.1467  0.6439 -0.8844
 5854TIP3   OH217525   0.777   0.247   0.295 -0.1132  0.2126  0.3080
 5854TIP3    H117526   0.686   0.216   0.299 -0.3802  1.0101  0.5938
 5854TIP3    H217527   0.769   0.341   0.277  0.6765  0.1372 -0.4790
 5855TIP3   OH217528   5.234   6.255   5.708 -0.2009  0.0877 -0.2575
 5855TIP3    H117529   5.232   6.217   5.796  1.3324  0.5416  0.0058
 5855TIP3    H217530   5.314   6.308   5.707  0.2701 -0.5976 -2.2225
 5856TIP3   OH217531   2.391   0.531   2.931 -0.2013 -0.2538 -0.0916
 5856TIP3    H117532   2.435   0.609   2.898 -0.1723 -0.5404 -0.7509
 5856TIP3    H217533   2.305   0.532   2.889  0.4394 -1.5016 -1.5214
 5857TIP3   OH217534   7.085   5.573   3.872  0.7070  0.1612 -0.0726
 5857TIP3    H117535   7.058   5.525   3.793  1.7486 -0.5801 -0.0086
 5857TIP3    H217536   7.115   5.504   3.931 -1.2781  0.5704  1.5211
 5858TIP3   OH217537   2.359   4.910   4.467 -0.0516  0.3944  0.4117
 5858TIP3    H117538   2.293   4.979   4.479 -0.3279  0.1913  0.0634
 5858TIP3    H217539   2.418   4.921   4.542  0.1251  1.2553  0.1546
 5859TIP3   OH217540   5.561   4.931   3.845 -0.3065  0.0108 -0.5399
 5859TIP3    H117541   5.610   4.968   3.772 -1.1561  0.0302 -1.1108
 5859TIP3    H217542   5.576   4.837   3.840 -0.6197 -0.0196 -0.9376
 5860TIP3   OH217543   5.055   5.814   4.315 -0.5001  0.1636 -0.1082
 5860TIP3    H117544   5.010   5.840   4.395 -2.2465 -0.3532 -0.8756
 5860TIP3    H217545   5.023   5.726   4.296  1.6203 -0.6685 -0.1943
 5861TIP3   OH217546   1.664   3.653   1.792  0.0069  0.0961 -0.2432
 5861TIP3    H117547   1.693   3.719   1.729  0.1086  1.3342  1.0551
 5861TIP3    H217548   1.659   3.700   1.875  0.6601 -1.6864  0.8539
 5862TIP3   OH217549   2.904   5.944   2.915  0.6907  0.2990  0.1342
 5862TIP3    H117550   2.891   6.036   2.890  0.6059  0.2220 -0.1155
 5862TIP3    H217551   2.818   5.904   2.899  0.5493  0.3113  0.8542
 5863TIP3   OH217552   1.297   0.214   0.002 -0.2719 -0.3522 -0.2412
 5863TIP3    H117553   1.256   0.298   0.022  2.1023  1.0325 -0.9040
 5863TIP3    H217554   1.310   0.172   0.087  1.2995  1.3368  0.3902
 5864TIP3   OH217555   6.011   1.995   5.906  0.1313  0.2721 -0.4244
 5864TIP3    H117556   5.952   2.002   5.831  0.7319  0.2610 -0.9080
 5864TIP3    H217557   6.091   2.039   5.877  0.5068 -0.0783  0.0702
 5865TIP3   OH217558   3.735   6.608   4.941 -0.0474 -0.1060 -0.0249
 5865TIP3    H117559   3.728   6.521   4.902 -0.3484  0.2540 -0.8014
 5865TIP3    H217560   3.716   6.668   4.869 -1.1932  0.5737  0.8117
 5866TIP3   OH217561   3.141   4.781   2.154  0.3300  0.0909  0.1449
 5866TIP3    H117562   3.181   4.853   2.204 -0.7327  1.3028 -0.6728
 5866TIP3    H217563   3.047   4.792   2.167 -0.0498  0.8101 -2.4643
 5867TIP3   OH217564   5.429   2.284   2.506 -0.1174 -0.1404  0.4517
 5867TIP3    H117565   5.416   2.246   2.593 -1.1820 -0.1983  0.2757
 5867TIP3    H217566   5.413   2.378   2.518 -1.6709 -0.3244  0.0655
 5868TIP3   OH217567   3.079   6.204   1.910 -0.3246 -0.0023 -0.6455
 5868TIP3    H117568   3.163   6.168   1.882 -0.5642 -0.1979 -1.1228
 5868TIP3    H217569   3.023   6.127   1.921  0.2891 -0.1384  2.2911
 5869TIP3   OH217570   4.175   5.948   2.335  0.7165  0.2809 -0.3975
 5869TIP3    H117571   4.117   5.920   2.264  1.8452  2.2102 -2.1959
 5869TIP3    H217572   4.117   5.990   2.398 -0.0589  0.9111 -1.4855
 5870TIP3   OH217573   0.791   2.978   3.275  0.1178  0.4354 -0.0043
 5870TIP3    H117574   0.697   2.964   3.257 -0.2780  1.1215  1.3900
 5870TIP3    H217575   0.793   3.010   3.365  1.8680 -1.4729  0.6825
 5871TIP3   OH217576   2.158   0.664   2.824 -0.4215 -0.1123  0.8636
 5871TIP3    H117577   2.085   0.725   2.832  0.0620  0.4753  0.8452
 5871TIP3    H217578   2.204   0.691   2.745  0.1106 -0.1627  1.1566
 5872TIP3   OH217579   4.057   0.578   3.669 -0.3556  0.0422 -0.4891
 5872TIP3    H117580   3.995   0.643   3.702 -1.6287  0.1083 -2.8569
 5872TIP3    H217581   4.132   0.630   3.640 -1.5553  0.6019 -2.7999
 5873TIP3   OH217582   2.374   2.954   0.965 -0.2477 -0.6376 -0.8944
 5873TIP3    H117583   2.315   2.914   1.029 -0.7488  1.3891  0.0066
 5873TIP3    H217584   2.330   2.942   0.881  0.1008 -2.7648 -0.8282
 5874TIP3   OH217585   1.575   0.563   3.964 -0.0002 -0.1342 -0.1426
 5874TIP3    H117586   1.544   0.565   4.055 -0.0255  1.1311 -0.1520
 5874TIP3    H217587   1.503   0.601   3.914  0.6278  0.6755 -0.4651
 5875TIP3   OH217588   6.705   5.259   5.607  0.2114  0.0256  0.2750
 5875TIP3    H117589   6.626   5.307   5.631  1.9852  3.0080  0.6970
 5875TIP3    H217590   6.758   5.258   5.687  1.8801  0.9462 -0.7521
 5876TIP3   OH217591   7.157   4.115   1.700  0.0395  0.2512 -0.1723
 5876TIP3    H117592   7.094   4.068   1.645 -0.1299 -0.5650  0.7014
 5876TIP3    H217593   7.233   4.126   1.644 -0.4388  0.1951 -0.8535
 5877TIP3   OH217594   4.518   6.010   1.125  0.0816  1.0829 -0.6503
 5877TIP3    H117595   4.506   6.019   1.220 -3.5445  0.5157 -0.9080
 5877TIP3    H217596   4.549   6.096   1.097  0.7320  1.4191  0.9828
 5878TIP3   OH217597   2.269   5.660   4.742 -0.6653 -0.2288 -0.1409
 5878TIP3    H117598   2.327   5.714   4.689  0.8756 -0.9608  0.7178
 5878TIP3    H217599   2.315   5.649   4.825 -0.1732 -3.9336 -0.6935
 5879TIP3   OH217600   5.097   2.830   1.637  0.0761 -0.2240  0.4871
 5879TIP3    H117601   5.076   2.920   1.663 -1.3694  0.6153 -3.0323
 5879TIP3    H217602   5.190   2.832   1.618  0.1403  0.4075  0.8177
 5880TIP3   OH217603   2.523   2.596   4.725  0.7787 -0.1747 -0.5622
 5880TIP3    H117604   2.522   2.511   4.770 -0.9720 -1.9687 -3.5950
 5880TIP3    H217605   2.431   2.624   4.724  1.1309  1.0336 -0.8494
 5881TIP3   OH217606   2.616   3.315   1.715  0.1656  0.1208 -0.3906
 5881TIP3    H117607   2.610   3.323   1.810 -2.3357 -0.0294 -0.4766
 5881TIP3    H217608   2.653   3.228   1.700  1.3183  0.4403  0.4013
 5882TIP3   OH217609   5.016   3.125   3.211 -0.0777  0.2576  0.3288
 5882TIP3    H117610   5.034   3.182   3.285  1.4205 -0.9009  0.9345
 5882TIP3    H217611   5.092   3.066   3.208 -0.2195  0.0788 -1.9520
 5883TIP3   OH217612   5.557   0.247   0.483 -0.2373  0.4870 -0.0761
 5883TIP3    H117613   5.521   0.183   0.422  1.3068 -1.4254  0.9218
 5883TIP3    H217614   5.489   0.315   0.489 -1.3961 -0.4121 -2.1084
 5884TIP3   OH217615   0.434   0.479   0.522 -0.3452  0.5268 -0.0529
 5884TIP3    H117616   0.373   0.490   0.594 -0.1455 -2.4798  0.7220
 5884TIP3    H217617   0.415   0.392   0.487  1.3096  0.8343 -1.9147
 5885TIP3   OH217618   5.515   1.037   5.494  0.7353  0.1984  0.9051
 5885TIP3    H117619   5.493   1.083   5.413 -1.3074 -1.9624  0.1452
 5885TIP3    H217620   5.480   1.092   5.563  0.9887  1.2257  0.2448
 5886TIP3   OH217621   6.093   3.500   4.771 -0.1021  0.4256  0.1667
 5886TIP3    H117622   6.117   3.408   4.780  0.3740  0.7150  2.5271
 5886TIP3    H217623   6.085   3.532   4.861 -0.5337  2.6358 -0.5820
 5887TIP3   OH217624   1.131   4.051   4.248  0.1648 -0.3314 -0.2051
 5887TIP3    H117625   1.157   4.042   4.339 -0.5474 -1.7157 -0.1211
 5887TIP3    H217626   1.192   4.115   4.212 -0.4816  1.4039  1.6014
 5888TIP3   OH217627   6.904   0.045   0.234 -0.6924 -0.0550 -0.0560
 5888TIP3    H117628   6.869   0.074   0.318  0.6187  0.0907  0.4590
 5888TIP3    H217629   6.829   0.006   0.189 -1.1003 -1.6871  1.8684
 5889TIP3   OH217630   1.142   1.178   2.933 -0.1848 -0.4082  0.1118
 5889TIP3    H117631   1.175   1.099   2.889 -0.3600 -1.0683  1.1225
 5889TIP3    H217632   1.199   1.248   2.901 -0.4932 -0.7877 -1.3841
 5890TIP3   OH217633   5.068   6.479   5.155 -0.2974  0.0802  0.6698
 5890TIP3    H117634   5.139   6.470   5.219  0.4545  1.2689  0.0463
 5890TIP3    H217635   5.108   6.459   5.071 -0.3793  1.7987  0.1686
 5891TIP3   OH217636   1.290   4.272   0.878  0.7724  0.3318  0.5641
 5891TIP3    H117637   1.376   4.284   0.920  1.4781 -0.2000 -0.6764
 5891TIP3    H217638   1.278   4.352   0.827  0.6774  0.2664  0.4848
 5892TIP3   OH217639   5.759   1.415   1.090 -0.1386 -0.6773 -0.0375
 5892TIP3    H117640   5.750   1.508   1.114  0.0590 -0.8693  0.8151
 5892TIP3    H217641   5.724   1.368   1.166  1.4272 -1.3333  0.2973
 5893TIP3   OH217642   5.811   0.841   2.333 -1.1706  0.2239 -0.1205
 5893TIP3    H117643   5.809   0.841   2.237 -0.5018  0.4806 -0.1382
 5893TIP3    H217644   5.846   0.755   2.355  0.8983  1.0015 -0.1799
 5894TIP3   OH217645   2.545   4.444   4.468 -0.4218 -0.8332  0.0591
 5894TIP3    H117646   2.525   4.537   4.469 -1.1906 -0.9541 -1.4945
 5894TIP3    H217647   2.482   4.406   4.406 -0.5300 -2.4848  1.1065
 5895TIP3   OH217648   3.570   0.171   0.154  0.4145  0.1376 -0.1469
 5895TIP3    H117649   3.589   0.193   0.245 -1.7141  0.0731  0.3681
 5895TIP3    H217650   3.554   0.076   0.155 -1.2512  0.3859 -0.2269
 5896TIP3   OH217651   2.890   3.538   4.545 -0.0239  0.0089 -0.1742
 5896TIP3    H117652   2.872   3.526   4.452  0.2238  2.7648 -0.6630
 5896TIP3    H217653   2.908   3.449   4.578 -1.4630 -1.2096 -2.4125
 5897TIP3   OH217654   2.773   4.220   4.888  0.7876 -0.3107 -1.1882
 5897TIP3    H117655   2.778   4.212   4.983 -1.6655  0.6862 -0.8823
 5897TIP3    H217656   2.847   4.169   4.855  1.9940 -0.2849  1.2420
 5898TIP3   OH217657   4.234   2.357   2.914 -0.9968 -0.6393  0.8165
 5898TIP3    H117658   4.233   2.451   2.931  0.4877 -0.2602 -1.0138
 5898TIP3    H217659   4.157   2.342   2.859  0.0108 -0.0503 -0.8270
 5899TIP3   OH217660   0.759   5.038   5.782 -0.2384  0.7410  0.2288
 5899TIP3    H117661   0.771   4.967   5.846 -0.0085 -0.2410 -0.8706
 5899TIP3    H217662   0.810   5.110   5.818  0.2220  0.0796  0.9594
 5900TIP3   OH217663   6.709   3.196   2.900  0.1975  0.0769 -0.0158
 5900TIP3    H117664   6.686   3.227   2.813  0.9763 -0.1765 -0.3232
 5900TIP3    H217665   6.688   3.269   2.958 -0.5480  0.1639 -0.3770
 5901TIP3   OH217666   5.064   3.399   3.882 -0.2181 -0.2845  0.0833
 5901TIP3    H117667   4.988   3.428   3.832 -1.1306 -3.1133 -0.3311
 5901TIP3    H217668   5.138   3.441   3.838 -1.3128  0.4691 -1.1348
 5902TIP3   OH217669   4.929   6.224   0.958  0.3025 -0.0473 -0.3131
 5902TIP3    H117670   4.959   6.313   0.939 -1.7449  0.4735 -1.3948
 5902TIP3    H217671   5.000   6.185   1.010  1.7470  1.8140 -0.7905
 5903TIP3   OH217672   2.752   0.325   5.308 -0.2154 -0.0449  0.6101
 5903TIP3    H117673   2.837   0.325   5.264 -0.0812 -1.9867  0.8140
 5903TIP3    H217674   2.705   0.398   5.267  1.7154  1.4518  0.9017
 5904TIP3   OH217675   0.063   2.392   0.874 -0.3893  0.5050 -0.1425
 5904TIP3    H117676   0.091   2.453   0.942 -0.5068  0.0555  0.3223
 5904TIP3    H217677   0.133   2.395   0.809  0.9361 -0.7842  1.1242
 5905TIP3   OH217678   0.630   2.491   0.012 -0.0300  0.0957 -0.5049
 5905TIP3    H117679   0.652   2.429   0.081 -0.7282 -0.3164 -0.6419
 5905TIP3    H217680   0.710   2.542  -0.002  0.1391  0.1366  0.5542
 5906TIP3   OH217681   1.380   3.508   1.762  0.2000 -0.1682 -0.3305
 5906TIP3    H117682   1.429   3.563   1.823  0.5903 -0.0917 -0.7061
 5906TIP3    H217683   1.394   3.419   1.794 -0.1449 -0.0760  0.0761
 5907TIP3   OH217684   1.269   1.434   1.161  0.1467 -0.2476  0.0895
 5907TIP3    H117685   1.206   1.423   1.232 -1.1034  0.4378 -0.8794
 5907TIP3    H217686   1.231   1.387   1.087  1.5884 -1.2240 -0.0761
 5908TIP3   OH217687   3.187   5.583   0.294 -0.3812 -0.4084  0.5320
 5908TIP3    H117688   3.235   5.644   0.350 -0.2273  0.3633 -0.4185
 5908TIP3    H217689   3.239   5.503   0.296  0.1869 -0.0426  0.6622
 5909TIP3   OH217690   6.096   2.195   4.267 -0.7433  0.2322  0.4405
 5909TIP3    H117691   6.091   2.117   4.212 -3.7536  0.0691  0.7922
 5909TIP3    H217692   6.181   2.234   4.245  0.5050 -2.6635 -0.3221
 5910TIP3   OH217693   2.522   4.820   5.395  0.0279  0.4763 -0.0994
 5910TIP3    H117694   2.479   4.901   5.421 -0.1984  0.1866  0.4415
 5910TIP3    H217695   2.538   4.773   5.477  2.4007  1.0700 -0.1442
 5911TIP3   OH217696   1.565   5.832   3.887 -0.4947  0.3114  0.1449
 5911TIP3    H117697   1.616   5.909   3.865 -0.7291  0.5497  0.4320
 5911TIP3    H217698   1.622   5.758   3.866  0.0782  0.5822  0.7358
 5912TIP3   OH217699   0.055   0.204   0.363  0.3135  0.8063  0.3446
 5912TIP3    H117700   0.066   0.254   0.444  1.3197 -0.8791  1.3232
 5912TIP3    H217701   0.112   0.247   0.300  1.3923  0.7380  1.2433
 5913TIP3   OH217702   5.183   3.490   0.106 -0.2121  0.1758 -0.2392
 5913TIP3    H117703   5.172   3.484   0.011 -1.0238  1.0106 -0.2206
 5913TIP3    H217704   5.112   3.436   0.141  0.1849 -0.2611 -0.0994
 5914TIP3   OH217705   2.960   1.971   0.019 -0.0992  0.0802 -1.0740
 5914TIP3    H117706   2.884   2.018   0.053  0.5565  1.1233 -0.9822
 5914TIP3    H217707   2.926   1.887  -0.010 -0.9025 -0.4150  1.0817
 5915TIP3   OH217708   6.645   2.846   4.195 -0.1616  0.3199  0.1085
 5915TIP3    H117709   6.615   2.830   4.106 -0.6655  2.4869 -0.1797
 5915TIP3    H217710   6.584   2.912   4.229 -0.6190 -1.1798  2.4559
 5916TIP3   OH217711   0.459   0.565   1.118  0.1983  0.1930  0.2798
 5916TIP3    H117712   0.385   0.523   1.076  0.3470 -0.8731  1.0400
 5916TIP3    H217713   0.421   0.623   1.183  0.0254 -0.1990  0.5282
 5917TIP3   OH217714   6.623   0.032   1.178 -0.2422 -0.0019  0.0330
 5917TIP3    H117715   6.639   0.096   1.109 -1.1563  2.1450  1.7006
 5917TIP3    H217716   6.701  -0.024   1.177  1.5378  2.3341 -0.2441
 5918TIP3   OH217717   4.119   1.686   5.437 -0.1529 -0.2595  0.1463
 5918TIP3    H117718   4.049   1.747   5.413  0.5389  0.0678 -1.1618
 5918TIP3    H217719   4.112   1.615   5.374 -2.3992 -2.8520  3.0200
 5919TIP3   OH217720   4.080   2.753   5.527 -0.2374 -0.2624 -0.3604
 5919TIP3    H117721   4.080   2.663   5.559  0.0303 -0.4010 -0.7502
 5919TIP3    H217722   4.093   2.806   5.606  1.3781 -0.6451 -0.3334
 5920TIP3   OH217723   6.290   2.912   2.439  0.5148 -0.0831 -0.0422
 5920TIP3    H117724   6.214   2.955   2.479  0.5327 -1.2408  1.3247
 5920TIP3    H217725   6.262   2.821   2.426  0.7059  0.1262 -2.2372
 5921TIP3   OH217726   3.070   2.039   0.528 -0.7491  0.3636  0.3828
 5921TIP3    H117727   3.034   2.113   0.479 -1.4577 -1.0893 -1.4127
 5921TIP3    H217728   3.152   2.018   0.483 -0.1341  0.5673  1.3915
 5922TIP3   OH217729   4.405   4.514   0.169  0.0274 -0.6481 -0.2178
 5922TIP3    H117730   4.412   4.482   0.079 -1.1564 -2.0088  0.1387
 5922TIP3    H217731   4.336   4.461   0.208  0.3851  0.0497  1.4482
 5923TIP3   OH217732   7.146   6.095   3.442 -0.5626  1.0532  0.3306
 5923TIP3    H117733   7.061   6.083   3.401 -0.6386 -0.4998  0.8645
 5923TIP3    H217734   7.146   6.033   3.515  1.4511  0.1521 -0.3577
 5924TIP3   OH217735   3.524   1.133   3.918  0.1046 -0.2471 -0.3673
 5924TIP3    H117736   3.482   1.056   3.956  0.3128 -0.5120 -0.6678
 5924TIP3    H217737   3.618   1.112   3.920  0.2273  0.3251  0.2740
 5925TIP3   OH217738   1.286   4.726   2.866 -0.0658  0.7012  0.0814
 5925TIP3    H117739   1.317   4.651   2.916 -0.8382 -0.7550 -1.5051
 5925TIP3    H217740   1.282   4.798   2.929 -0.1769 -0.8185  1.8854
 5926TIP3   OH217741   4.324   4.538   5.756  0.5999 -0.0267 -0.0803
 5926TIP3    H117742   4.407   4.553   5.712  0.2795  1.0133 -0.3511
 5926TIP3    H217743   4.275   4.482   5.695 -0.1238  1.9884 -1.4459
 5927TIP3   OH217744   0.046   2.110   0.242  0.1730  0.1018 -0.0366
 5927TIP3    H117745   0.003   2.049   0.301  1.2982 -0.4784  0.2027
 5927TIP3    H217746   0.010   2.196   0.266 -1.6062 -0.4573 -0.5446
 5928TIP3   OH217747   3.875   5.852   3.833  0.0767 -0.1508 -0.0154
 5928TIP3    H117748   3.886   5.761   3.803  1.9388 -0.0772  0.3413
 5928TIP3    H217749   3.796   5.882   3.789 -0.4206 -1.8574 -0.3612
 5929TIP3   OH217750   2.886   5.629   1.132 -0.1263  0.2127 -0.6841
 5929TIP3    H117751   2.793   5.608   1.126 -0.0578 -0.3060  0.0199
 5929TIP3    H217752   2.898   5.658   1.222  0.8535 -2.0355 -0.0347
 5930TIP3   OH217753   1.873   6.437   1.876 -0.5603  0.0429  0.5401
 5930TIP3    H117754   1.813   6.364   1.886 -1.7831  0.8215 -0.6556
 5930TIP3    H217755   1.817   6.514   1.875  0.3112  0.7361 -1.5367
 5931TIP3   OH217756   0.894   4.627   2.860  0.1454  0.2245  0.0403
 5931TIP3    H117757   0.888   4.720   2.837  0.1349  0.4679  1.0062
 5931TIP3    H217758   0.856   4.620   2.947  0.1244 -0.6980 -0.0260
 5932TIP3   OH217759   3.580   6.529   2.029 -0.0886 -0.0498  0.1021
 5932TIP3    H117760   3.595   6.559   1.939  1.0920  0.1293  0.3428
 5932TIP3    H217761   3.566   6.610   2.078 -0.3468 -0.1231  0.1502
 5933TIP3   OH217762   6.927   2.611   2.267 -0.0090  0.3082 -0.5816
 5933TIP3    H117763   7.021   2.627   2.258  0.8065 -1.8429  2.2884
 5933TIP3    H217764   6.903   2.654   2.349 -0.0042 -3.7629  1.8661
 5934TIP3   OH217765   0.899   2.132   5.169  0.0727 -0.6887  0.5024
 5934TIP3    H117766   0.857   2.077   5.104  0.5155 -1.5778  0.9511
 5934TIP3    H217767   0.968   2.178   5.121 -0.8116  0.1028 -0.0429
 5935TIP3   OH217768   6.276   0.593   3.080 -0.2049  0.5227 -0.0779
 5935TIP3    H117769   6.357   0.615   3.034 -1.0472  2.2053 -0.8028
 5935TIP3    H217770   6.235   0.677   3.099 -2.4368 -0.3098 -0.8899
 5936TIP3   OH217771   2.812   5.973   3.563 -0.0446  0.2187  0.1452
 5936TIP3    H117772   2.840   5.899   3.510 -0.0298 -0.3834  0.9728
 5936TIP3    H217773   2.875   5.977   3.634 -0.8968  0.0894  0.9301
 5937TIP3   OH217774   0.019   1.094   1.436  0.4250  0.2824  0.4058
 5937TIP3    H117775   0.072   1.020   1.406 -0.8979 -0.7415  0.4691
 5937TIP3    H217776   0.069   1.130   1.509  0.5263 -1.3843  1.2278
 5938TIP3   OH217777   4.554   5.817   0.215 -0.2567  0.5841  0.3946
 5938TIP3    H117778   4.566   5.911   0.233  0.1055  0.5260  0.4566
 5938TIP3    H217779   4.490   5.814   0.144  0.8071  0.9295 -0.6070
 5939TIP3   OH217780   1.583   1.952   2.006 -0.0685  0.0116  1.0372
 5939TIP3    H117781   1.601   1.885   2.072 -0.5848  0.3686  1.5512
 5939TIP3    H217782   1.656   2.014   2.015  0.5523 -0.6021  0.3784
 5940TIP3   OH217783   0.803   6.129   4.488 -0.0134 -0.2583  0.1991
 5940TIP3    H117784   0.898   6.140   4.477  0.0369 -0.8255  0.0727
 5940TIP3    H217785   0.793   6.040   4.521 -0.4491  0.0779  1.0069
 5941TIP3   OH217786   5.928   3.870   2.744 -0.1492 -0.2499  0.3126
 5941TIP3    H117787   5.873   3.891   2.820 -1.7451  1.8095 -1.2942
 5941TIP3    H217788   5.869   3.824   2.685  1.2748 -2.5065  0.5395
 5942TIP3   OH217789   3.379   0.759   4.276 -0.2324 -0.4530  0.7443
 5942TIP3    H117790   3.331   0.836   4.307  0.8396  0.6105 -0.1469
 5942TIP3    H217791   3.311   0.701   4.241 -1.0497  0.1378  1.3033
 5943TIP3   OH217792   4.809   1.467   2.638 -0.4587 -0.0235  0.1976
 5943TIP3    H117793   4.860   1.396   2.677 -2.3494 -1.5632  0.0011
 5943TIP3    H217794   4.795   1.440   2.548 -0.7503  0.8753 -0.0369
 5944TIP3   OH217795   6.772   5.239   2.576 -0.0804  0.0053 -0.0851
 5944TIP3    H117796   6.815   5.276   2.652 -0.0764 -0.0095 -0.0802
 5944TIP3    H217797   6.692   5.291   2.566  0.0037  0.1183 -0.1731
 5945TIP3   OH217798   3.349   5.146   1.696 -0.0907 -0.1682  0.0283
 5945TIP3    H117799   3.368   5.233   1.732 -1.5927  0.2587 -0.1462
 5945TIP3    H217800   3.433   5.100   1.699  0.3444  0.6643  1.8356
 5946TIP3   OH217801   6.883   6.183   0.680  0.3116  0.1782 -0.4816
 5946TIP3    H117802   6.834   6.246   0.627 -0.9207  1.4679  2.0093
 5946TIP3    H217803   6.837   6.101   0.668 -0.6820  0.7219 -0.4769
 5947TIP3   OH217804   5.483   3.508   5.151 -0.2526 -0.3587  0.5656
 5947TIP3    H117805   5.479   3.602   5.132  0.0486 -0.4029  0.2616
 5947TIP3    H217806   5.462   3.466   5.067  0.9179 -0.5641  0.3555
 5948TIP3   OH217807   5.020   1.961   3.901  0.2656  0.7142  0.2499
 5948TIP3    H117808   5.113   1.977   3.885  0.1675  1.2671  0.2434
 5948TIP3    H217809   5.011   1.969   3.996  0.5178 -0.8967  0.4536
 5949TIP3   OH217810   3.762   2.599   4.873 -0.0989 -0.2809  0.1394
 5949TIP3    H117811   3.738   2.507   4.870  0.2549 -0.4018  0.8591
 5949TIP3    H217812   3.779   2.623   4.781  3.3844 -1.8853  0.2287
 5950TIP3   OH217813   0.936   1.787   1.578 -0.6550  0.4173 -0.0087
 5950TIP3    H117814   0.853   1.824   1.546 -1.0860 -1.4001 -1.1637
 5950TIP3    H217815   0.912   1.743   1.659 -0.8184 -0.0059 -0.2804
 5951TIP3   OH217816   3.287   0.750   3.552 -0.3647 -0.6126  0.4418
 5951TIP3    H117817   3.338   0.786   3.479 -0.6745 -0.4839  0.2885
 5951TIP3    H217818   3.277   0.657   3.531 -1.5968 -0.3253 -0.3620
 5952TIP3   OH217819   0.553   4.562   3.306 -0.2439  0.2087  0.1372
 5952TIP3    H117820   0.573   4.636   3.362  0.5103  0.9501 -1.0726
 5952TIP3    H217821   0.562   4.485   3.363  2.9901  0.7158  0.4492
 5953TIP3   OH217822   3.281   3.727   0.266  0.2295 -0.0430  0.0171
 5953TIP3    H117823   3.355   3.667   0.250  0.8234  0.5777  0.3826
 5953TIP3    H217824   3.210   3.669   0.293  0.6409 -0.6352 -0.1255
 5954TIP3   OH217825   1.375   4.066   2.484  0.5361  0.1003  0.1205
 5954TIP3    H117826   1.331   4.005   2.424  0.4244 -1.7882  1.9903
 5954TIP3    H217827   1.320   4.144   2.483 -0.7373 -0.7609 -0.4893
 5955TIP3   OH217828   0.732   5.653   1.247 -0.3478 -0.0528  0.7886
 5955TIP3    H117829   0.662   5.715   1.267 -0.0392  0.0188  1.6972
 5955TIP3    H217830   0.757   5.617   1.332 -0.2262 -1.1122  0.3229
 5956TIP3   OH217831   0.768   4.284   5.291 -0.2984  0.3691 -0.2205
 5956TIP3    H117832   0.862   4.278   5.273 -0.3055 -0.2975 -0.0667
 5956TIP3    H217833   0.745   4.374   5.270  0.0577  0.1208 -1.7677
 5957TIP3   OH217834   5.940   1.905   3.401  0.0530 -0.3222  0.0830
 5957TIP3    H117835   5.961   1.880   3.311  0.2230  1.8388 -0.5196
 5957TIP3    H217836   5.978   1.992   3.412 -1.8066  0.3862  1.5255
 5958TIP3   OH217837   6.667   0.925   2.508  0.8139 -0.3244 -0.0747
 5958TIP3    H117838   6.637   0.943   2.419  0.6317  1.2434  0.2810
 5958TIP3    H217839   6.759   0.951   2.508  0.8067 -0.3013  0.1988
 5959TIP3   OH217840   3.010   6.652   2.630  0.5645 -0.6542  0.1561
 5959TIP3    H117841   3.083   6.671   2.690  0.1096 -1.0410  0.8462
 5959TIP3    H217842   2.992   6.559   2.644  0.1117 -0.6201 -0.2107
 5960TIP3   OH217843   0.012   2.700   3.815 -0.1319 -0.1619  0.3444
 5960TIP3    H117844   0.078   2.660   3.759  0.6008  0.3429  0.8338
 5960TIP3    H217845  -0.065   2.643   3.805  0.0110 -0.1356 -1.0748
 5961TIP3   OH217846   7.006   0.864   2.716  0.6773 -0.3870 -0.4477
 5961TIP3    H117847   6.976   0.773   2.716 -1.4056  0.2347  0.2021
 5961TIP3    H217848   6.981   0.897   2.802  0.8069  0.9901 -0.9170
 5962TIP3   OH217849   4.697   2.138   1.824  0.3087 -0.0690  0.5373
 5962TIP3    H117850   4.628   2.163   1.885  0.3915  1.3585  0.0939
 5962TIP3    H217851   4.778   2.167   1.865  0.2192  2.9292 -1.0783
 5963TIP3   OH217852   0.295   6.186   5.229  0.1327  0.0975  0.4201
 5963TIP3    H117853   0.273   6.107   5.180 -1.5467  1.2864 -0.8631
 5963TIP3    H217854   0.389   6.198   5.214 -0.0644 -0.3269 -1.4614
 5964TIP3   OH217855   1.201   5.620   5.351 -0.5928  0.2670 -0.2039
 5964TIP3    H117856   1.251   5.557   5.402 -2.8704 -1.1928  0.3987
 5964TIP3    H217857   1.233   5.611   5.261 -0.3764 -1.2245  0.0104
 5965TIP3   OH217858   5.365   0.758   4.047  0.0787  0.2464  0.6701
 5965TIP3    H117859   5.283   0.730   4.088 -0.5642  2.4727  1.0382
 5965TIP3    H217860   5.348   0.752   3.953 -0.5848  0.8277  0.7438
 5966TIP3   OH217861   2.019   0.565   1.247 -0.9496  0.0436 -0.4217
 5966TIP3    H117862   1.935   0.520   1.241 -1.9065  1.5846  0.7688
 5966TIP3    H217863   1.998   0.658   1.241  0.8048  0.4214 -1.2558
 5967TIP3   OH217864   1.606   0.844   2.226 -0.0903 -0.6200  0.1785
 5967TIP3    H117865   1.608   0.751   2.201 -0.0651 -0.5738  0.0045
 5967TIP3    H217866   1.530   0.879   2.179 -0.6104 -0.7368  0.9077
 5968TIP3   OH217867   5.671   0.943   1.100 -0.0857 -0.1427 -0.1314
 5968TIP3    H117868   5.762   0.975   1.100 -0.4258  0.9223 -1.4908
 5968TIP3    H217869   5.671   0.872   1.035 -0.2793  0.0403 -0.3316
 5969TIP3   OH217870   1.388   3.393   3.904 -0.4047 -0.3783 -0.3086
 5969TIP3    H117871   1.371   3.430   3.817 -1.3323 -0.5101 -0.1926
 5969TIP3    H217872   1.470   3.433   3.931 -0.5043  0.2597 -0.9229
 5970TIP3   OH217873   1.563   4.647   1.311  0.1430  0.1754 -0.0437
 5970TIP3    H117874   1.565   4.702   1.389 -0.6029 -0.4443  0.4204
 5970TIP3    H217875   1.496   4.581   1.329  0.5061 -0.4459 -0.8883
 5971TIP3   OH217876   0.768   5.711   3.374 -0.1395  0.3319  0.2627
 5971TIP3    H117877   0.696   5.770   3.397 -2.2519 -1.7840 -0.4571
 5971TIP3    H217878   0.732   5.657   3.303  2.4098 -0.4408 -0.5323
 5972TIP3   OH217879   6.957   3.639   1.541 -0.1636 -0.3605  0.0584
 5972TIP3    H117880   7.035   3.686   1.513  0.0570 -1.7470 -1.9133
 5972TIP3    H217881   6.990   3.558   1.581 -0.5695 -0.5910 -0.0571
 5973TIP3   OH217882   4.206   6.130   0.588  0.5106 -0.2086 -0.3889
 5973TIP3    H117883   4.186   6.132   0.681 -0.5751  0.2708 -0.6180
 5973TIP3    H217884   4.131   6.171   0.546  0.4011 -1.5543 -1.5837
 5974TIP3   OH217885   6.693   6.461   4.465  0.1819 -0.4074  0.3522
 5974TIP3    H117886   6.758   6.394   4.488 -0.0305 -0.7079  0.0854
 5974TIP3    H217887   6.736   6.514   4.398  1.3288  1.3012  2.2944
 5975TIP3   OH217888   0.248   5.773   2.811 -0.0410 -0.1107  0.5109
 5975TIP3    H117889   0.200   5.766   2.893  0.8821 -2.4170  0.9197
 5975TIP3    H217890   0.287   5.860   2.813 -0.0025 -0.1388  2.5376
 5976TIP3   OH217891   6.161   3.229   4.830 -0.3660 -0.0516  0.1653
 5976TIP3    H117892   6.130   3.175   4.757 -0.2712 -0.4122  0.3876
 5976TIP3    H217893   6.234   3.179   4.867  1.8822  1.7044 -1.5927
 5977TIP3   OH217894   5.946   5.855   0.244  0.2318 -0.7484 -0.0157
 5977TIP3    H117895   5.904   5.873   0.328 -2.0281  0.4556 -1.3114
 5977TIP3    H217896   5.987   5.769   0.256 -0.7479 -0.9979  2.0254
 5978TIP3   OH217897   1.238   4.114   0.434 -0.7372 -0.0235  0.0724
 5978TIP3    H117898   1.152   4.090   0.470 -0.9534 -0.1230 -0.5005
 5978TIP3    H217899   1.221   4.130   0.342 -0.0763 -0.3427 -0.1072
 5979TIP3   OH217900   0.306   3.416   3.097 -0.2067  1.0237 -0.5190
 5979TIP3    H117901   0.360   3.341   3.124 -0.4979  0.8553 -0.4069
 5979TIP3    H217902   0.336   3.488   3.152  0.3052  1.0721 -0.8568
 5980TIP3   OH217903   5.435   2.891   2.356 -0.1065  0.6032  0.3071
 5980TIP3    H117904   5.371   2.952   2.392  0.6568  0.9234  1.1708
 5980TIP3    H217905   5.520   2.925   2.384  0.4164 -0.0975 -0.3679
 5981TIP3   OH217906   5.668   2.671   1.400  0.0127 -0.8606 -0.2791
 5981TIP3    H117907   5.616   2.719   1.334 -1.3676 -1.6456  0.1946
 5981TIP3    H217908   5.723   2.738   1.440 -1.6740  0.3324  0.1768
 5982TIP3   OH217909   0.758   0.513   4.318 -0.0458 -0.2704 -0.3523
 5982TIP3    H117910   0.821   0.539   4.385  0.3806 -1.7506 -0.1420
 5982TIP3    H217911   0.675   0.507   4.365 -0.0425  0.1449 -0.2882
 5983TIP3   OH217912   3.345   0.252   0.423 -0.4974  0.3169  0.0531
 5983TIP3    H117913   3.338   0.282   0.333 -1.2048  0.8564  0.2816
 5983TIP3    H217914   3.324   0.328   0.477 -1.6480 -0.3835  0.6479
 5984TIP3   OH217915   1.890   5.497   1.498  0.6843 -0.2219 -0.1770
 5984TIP3    H117916   1.800   5.511   1.528  0.6277 -2.1048  0.6740
 5984TIP3    H217917   1.933   5.582   1.510 -0.6760  0.3974  0.5011
 5985TIP3   OH217918   1.574   1.516   5.025 -0.5564 -0.1862  0.2344
 5985TIP3    H117919   1.625   1.481   5.098  0.1837  1.6988  0.7078
 5985TIP3    H217920   1.579   1.450   4.957 -0.0933 -1.3886  1.4036
 5986TIP3   OH217921   2.686   5.762   2.835 -0.4300  0.2735  0.6121
 5986TIP3    H117922   2.755   5.696   2.837  0.5674  1.2815  0.8251
 5986TIP3    H217923   2.621   5.727   2.774  0.3083 -0.6644  0.3331
 5987TIP3   OH217924   1.677   2.662   4.345  0.6725  0.3586  0.1744
 5987TIP3    H117925   1.697   2.598   4.277  3.4105  0.7290  0.5430
 5987TIP3    H217926   1.631   2.611   4.412  1.3408 -0.8698 -0.2691
 5988TIP3   OH217927   1.377   6.736   5.169 -0.5495 -0.1679  0.2232
 5988TIP3    H117928   1.282   6.744   5.161 -0.5075 -0.8234 -1.4996
 5988TIP3    H217929   1.402   6.676   5.099  1.1133 -0.2294  0.8174
 5989TIP3   OH217930   0.143   6.316   0.185 -0.3822  0.3946  0.1320
 5989TIP3    H117931   0.189   6.391   0.146  0.5212  0.4509  1.2572
 5989TIP3    H217932   0.135   6.339   0.277 -0.1518 -0.8782  0.4783
 5990TIP3   OH217933   0.865   0.416   2.790 -0.5679  0.0633 -0.5789
 5990TIP3    H117934   0.928   0.355   2.828  1.0134  1.5352 -0.7601
 5990TIP3    H217935   0.908   0.448   2.710 -2.2613 -0.1461 -1.6312
 5991TIP3   OH217936   2.209   6.410   0.469 -0.1492  0.0363 -0.4633
 5991TIP3    H117937   2.279   6.420   0.533 -0.5830  0.5449 -0.0571
 5991TIP3    H217938   2.130   6.399   0.522 -0.3401 -0.8268 -0.9108
 5992TIP3   OH217939   1.228   4.267   1.157  0.0306 -0.4112 -0.1737
 5992TIP3    H117940   1.261   4.275   1.067 -0.8534 -0.7058 -0.5404
 5992TIP3    H217941   1.143   4.224   1.147  0.0802 -0.7662  0.8415
 5993TIP3   OH217942   6.316   5.461   4.878  0.0068  0.4274 -0.1620
 5993TIP3    H117943   6.258   5.422   4.945  2.1008 -0.7542  1.0780
 5993TIP3    H217944   6.276   5.546   4.858 -1.1528  0.4727  2.0251
 5994TIP3   OH217945   6.519   3.068   4.254 -1.0825 -0.1009  0.4279
 5994TIP3    H117946   6.596   3.112   4.290 -0.3131 -0.3068 -0.9044
 5994TIP3    H217947   6.453   3.138   4.248 -1.4696 -0.1833  2.7322
 5995TIP3   OH217948   4.169   5.504   3.641 -0.2655 -0.0329 -0.5100
 5995TIP3    H117949   4.147   5.476   3.552  1.5242 -1.0476 -0.6812
 5995TIP3    H217950   4.242   5.565   3.629 -0.1778  0.0103  0.2485
 5996TIP3   OH217951   5.202   5.568   0.746 -0.2811 -0.0088  0.0300
 5996TIP3    H117952   5.154   5.591   0.666 -1.7101  0.6675  1.0257
 5996TIP3    H217953   5.162   5.486   0.774  0.4955 -0.4560 -0.1443
 5997TIP3   OH217954   0.286   0.653   2.916 -0.7271  0.1239 -0.3769
 5997TIP3    H117955   0.336   0.733   2.927 -0.2130 -0.3453  0.9602
 5997TIP3    H217956   0.271   0.646   2.821  1.1678  0.6163 -0.7407
 5998TIP3   OH217957   4.195   5.392   2.486  0.2673 -0.0010 -0.3079
 5998TIP3    H117958   4.211   5.486   2.490 -0.7730  0.1582  3.3300
 5998TIP3    H217959   4.283   5.353   2.489  0.6526  0.8563 -0.1960
 5999TIP3   OH217960   3.176   6.536   2.222  0.3177 -0.4785  0.0595
 5999TIP3    H117961   3.176   6.605   2.288  2.1254  0.2791 -0.6499
 5999TIP3    H217962   3.266   6.504   2.221 -0.1318 -1.8036 -0.7131
 6000TIP3   OH217963   1.979   3.152   3.795 -0.1709 -0.0532 -0.0377
 6000TIP3    H117964   1.930   3.232   3.776 -0.6123 -0.3619 -0.2271
 6000TIP3    H217965   2.059   3.160   3.743 -0.0508  0.4207  0.2145
 6001TIP3   OH217966   2.480   4.554   2.732  0.0304  0.6677  0.1133
 6001TIP3    H117967   2.473   4.649   2.737 -1.1358  0.6808 -1.1500
 6001TIP3    H217968   2.409   4.522   2.787 -0.7669  0.5734 -0.9450
 6002TIP3   OH217969   2.367   5.701   0.338  0.3896  0.4461 -0.2419
 6002TIP3    H117970   2.306   5.750   0.283  0.3363 -0.6193 -1.1624
 6002TIP3    H217971   2.312   5.650   0.397  0.3274 -0.8983 -1.4043
 6003TIP3   OH217972   0.942   3.042   2.709 -0.2115 -0.5226 -0.6675
 6003TIP3    H117973   0.989   3.031   2.626 -1.2951 -0.7993 -1.2691
 6003TIP3    H217974   0.863   3.092   2.685 -1.2796 -1.8541 -0.0938
 6004TIP3   OH217975   2.001   1.067   0.127  0.2849  0.9579  0.1439
 6004TIP3    H117976   2.046   1.088   0.045 -0.1208  1.0384 -0.0586
 6004TIP3    H217977   1.918   1.027   0.100 -0.3535  2.0187  0.5018
 6005TIP3   OH217978   1.456   0.637   5.808  0.4260 -0.0464  0.0154
 6005TIP3    H117979   1.531   0.597   5.853  1.5297  0.7050 -1.0810
 6005TIP3    H217980   1.438   0.579   5.735 -1.4719 -1.3534  1.4280
 6006TIP3   OH217981   0.682   5.383   4.987  0.8982 -0.5364 -0.0005
 6006TIP3    H117982   0.661   5.417   5.074 -1.3590 -0.0268 -0.6686
 6006TIP3    H217983   0.640   5.297   4.985 -1.4781  0.5406 -1.4194
 6007TIP3   OH217984   4.043   2.576   1.800  0.1549  0.2263  0.3257
 6007TIP3    H117985   4.066   2.491   1.763 -0.5993 -0.1901  0.7721
 6007TIP3    H217986   3.968   2.605   1.748  0.5208  0.7050  0.0595
 6008TIP3   OH217987   6.001   6.587   5.197  0.1846  0.1942 -0.0924
 6008TIP3    H117988   5.938   6.517   5.209  1.4158 -0.8329  0.7469
 6008TIP3    H217989   5.999   6.606   5.104  0.1133 -1.2696 -0.4144
 6009TIP3   OH217990   4.193   5.117   5.553 -0.4164 -0.5604  0.4063
 6009TIP3    H117991   4.173   5.113   5.647 -0.8620  3.2039  0.6120
 6009TIP3    H217992   4.273   5.169   5.548 -2.1418  2.1782 -1.3158
 6010TIP3   OH217993   4.348   3.151   2.638  0.7784 -0.6740 -0.0829
 6010TIP3    H117994   4.294   3.082   2.598 -0.8425  0.9352 -0.8374
 6010TIP3    H217995   4.384   3.199   2.564  1.5941 -0.4933  0.4241
 6011TIP3   OH217996   5.999   5.755   4.637  0.2433 -0.0658  0.0155
 6011TIP3    H117997   5.950   5.696   4.693 -0.6850  0.1004 -0.6046
 6011TIP3    H217998   5.937   5.824   4.613  1.0501  0.6829  0.0051
 6012TIP3   OH217999   2.500   2.364   1.327 -0.0562  0.3090 -0.2813
 6012TIP3    H118000   2.594   2.354   1.313 -0.3034 -1.0989 -1.0459
 6012TIP3    H218001   2.485   2.334   1.416  0.1432  0.0924 -0.3219
 6013TIP3   OH218002   1.453   4.406   2.324  0.5944 -1.0416  0.4029
 6013TIP3    H118003   1.424   4.496   2.331 -0.6522 -1.4501  0.8322
 6013TIP3    H218004   1.458   4.375   2.415  2.7539 -0.9100  0.3906
 6014TIP3   OH218005   1.587   2.571   3.099 -0.5364  0.0827  0.8043
 6014TIP3    H118006   1.658   2.534   3.047 -0.4796 -0.8077  1.4898
 6014TIP3    H218007   1.615   2.660   3.118 -0.1788  0.1456  0.0310
 6015TIP3   OH218008   0.558   1.868   4.207 -0.2963  0.4396  0.8680
 6015TIP3    H118009   0.549   1.877   4.302 -0.8539  2.5838  0.6641
 6015TIP3    H218010   0.652   1.876   4.191 -0.0754 -1.0000  1.2916
 6016TIP3   OH218011   2.982   4.964   1.534  0.2039 -0.0812 -0.0662
 6016TIP3    H118012   3.014   4.888   1.583  1.8094 -0.3721 -1.4670
 6016TIP3    H218013   3.062   5.007   1.503 -0.7032 -0.2909 -2.9560
 6017TIP3   OH218014   5.421   3.575   1.470 -0.4441  0.3302  0.0731
 6017TIP3    H118015   5.327   3.578   1.450 -0.7156  2.4707  1.3859
 6017TIP3    H218016   5.426   3.542   1.559  0.1153 -0.3529 -0.2008
 6018TIP3   OH218017   4.211   2.312   2.038 -0.1367  0.4047 -0.4707
 6018TIP3    H118018   4.137   2.301   2.099  2.1148 -1.3389  2.2541
 6018TIP3    H218019   4.178   2.280   1.954 -2.0682 -1.8981  1.0176
 6019TIP3   OH218020   4.628   2.258   3.228 -0.3283  0.2073  0.0283
 6019TIP3    H118021   4.692   2.276   3.160 -0.5041  0.2880 -0.1184
 6019TIP3    H218022   4.588   2.174   3.202 -1.6642  1.0963 -0.9625
 6020TIP3   OH218023   4.010   2.205   2.992 -0.3575  0.0003  0.3704
 6020TIP3    H118024   3.935   2.196   2.934  0.4797 -2.4551 -0.4353
 6020TIP3    H218025   4.013   2.124   3.042  0.7909  0.7523  1.6109
 6021TIP3   OH218026   6.136   1.464   1.458 -0.3093  0.0932  0.7464
 6021TIP3    H118027   6.199   1.491   1.390  0.3520 -0.3444  1.1698
 6021TIP3    H218028   6.061   1.522   1.445  0.6804  1.5035  1.0111
 6022TIP3   OH218029   1.416   5.125   3.685 -0.4611  0.5039  0.1904
 6022TIP3    H118030   1.395   5.137   3.778  2.3699  0.3392  0.9366
 6022TIP3    H218031   1.463   5.041   3.682  1.1289  1.3889 -1.0633
 6023TIP3   OH218032   2.522   3.866   5.024 -0.4938  0.1143 -0.3058
 6023TIP3    H118033   2.603   3.911   5.045 -1.0358  1.0642 -0.2096
 6023TIP3    H218034   2.542   3.773   5.038  0.3133  0.4025  0.5388
 6024TIP3   OH218035   6.570   0.479   4.592  0.2105 -0.3188  0.4291
 6024TIP3    H118036   6.542   0.436   4.673  0.4833 -0.1270  0.6284
 6024TIP3    H218037   6.488   0.509   4.552 -0.0509 -1.6567 -0.0908
 6025TIP3   OH218038   2.047   2.520   4.470 -0.4257  0.2223 -0.4383
 6025TIP3    H118039   2.104   2.471   4.410  0.2873  0.1450  0.2882
 6025TIP3    H218040   1.975   2.460   4.489 -0.4032  0.0654 -0.8345
 6026TIP3   OH218041   6.581   3.267   0.323  0.3384 -0.3647  0.2188
 6026TIP3    H118042   6.572   3.351   0.367 -2.1035 -0.5031  0.1227
 6026TIP3    H218043   6.669   3.237   0.346  0.1605  0.8006  2.7410
 6027TIP3   OH218044   0.840   0.443   2.492  0.6415  0.0417  0.2416
 6027TIP3    H118045   0.826   0.446   2.397 -0.3781  0.6410  0.3935
 6027TIP3    H218046   0.757   0.410   2.527 -0.0409  2.5164  1.1241
 6028TIP3   OH218047   5.068   3.944   2.298  0.3622 -0.1311 -0.5271
 6028TIP3    H118048   5.126   4.018   2.312  1.7913 -0.8972 -2.0349
 6028TIP3    H218049   5.092   3.911   2.211 -1.5641 -1.1784 -0.7073
 6029TIP3   OH218050   0.703   3.300   1.872  0.4903  0.7469 -0.2226
 6029TIP3    H118051   0.764   3.371   1.853  0.6189  0.5519 -0.5462
 6029TIP3    H218052   0.705   3.244   1.794 -0.7924  1.2267 -0.6275
 6030TIP3   OH218053   1.337   6.699   4.169  0.2160  0.5120 -0.4370
 6030TIP3    H118054   1.401   6.659   4.110 -1.0811  0.1009 -1.6158
 6030TIP3    H218055   1.365   6.790   4.176 -0.3510  0.9419 -2.8361
 6031TIP3   OH218056   3.346   1.939   2.521 -0.0234 -0.1872 -0.1828
 6031TIP3    H118057   3.283   1.869   2.507  1.1401 -1.7465  1.7807
 6031TIP3    H218058   3.293   2.014   2.549 -1.3653  0.0694 -3.1207
 6032TIP3   OH218059   3.181   0.994   0.344 -0.8112  0.2206 -0.2610
 6032TIP3    H118060   3.141   1.026   0.425 -0.3419 -0.7006  0.3540
 6032TIP3    H218061   3.113   1.003   0.278 -1.3246  0.6407  0.3183
 6033TIP3   OH218062   6.339   0.095   4.096 -0.2346 -0.6488  0.9529
 6033TIP3    H118063   6.286   0.019   4.073  2.3970 -2.9005  1.6998
 6033TIP3    H218064   6.418   0.086   4.042  0.7857  0.7219  2.1242
 6034TIP3   OH218065   2.641   5.793   1.569  0.5804  0.1396 -0.3314
 6034TIP3    H118066   2.587   5.722   1.603 -0.2836  0.8474 -0.1951
 6034TIP3    H218067   2.663   5.846   1.646  0.2414  0.6674 -0.5943
 6035TIP3   OH218068   3.799   5.877   5.589  0.1625  0.3233  0.4165
 6035TIP3    H118069   3.795   5.867   5.494  0.2579 -1.6991  0.5989
 6035TIP3    H218070   3.712   5.850   5.619  0.3771  0.2308  0.9590
 6036TIP3   OH218071   7.188   4.881   1.113  0.1663  0.4502  0.4755
 6036TIP3    H118072   7.272   4.910   1.078 -0.3099  1.1003 -0.1533
 6036TIP3    H218073   7.162   4.807   1.058 -0.3957  1.2241 -0.3233
 6037TIP3   OH218074   4.363   5.535   0.675  0.3046 -0.5538  0.0557
 6037TIP3    H118075   4.286   5.479   0.677  2.1444 -3.3251 -0.2394
 6037TIP3    H218076   4.367   5.575   0.762 -0.6324 -1.6044  0.5998
 6038TIP3   OH218077   4.643   4.732   1.490  0.3774  0.2267  0.8719
 6038TIP3    H118078   4.715   4.795   1.486  0.7873 -0.1699  1.8392
 6038TIP3    H218079   4.684   4.649   1.515 -0.1328 -0.4920 -0.5899
 6039TIP3   OH218080   5.362   1.785   4.957  0.6522 -0.6598  0.0399
 6039TIP3    H118081   5.407   1.762   4.876  0.3138 -1.0058 -0.0505
 6039TIP3    H218082   5.314   1.865   4.936  0.1210 -1.0522 -0.2654
 6040TIP3   OH218083   3.193   6.405   0.094  0.1850  0.8326  0.8236
 6040TIP3    H118084   3.166   6.485   0.048  0.9539  1.5196  1.5300
 6040TIP3    H218085   3.145   6.335   0.050 -2.4037  1.9176  1.7189
 6041TIP3   OH218086   3.711   5.778   0.894  0.0691  0.0078 -0.2102
 6041TIP3    H118087   3.649   5.776   0.822 -0.3790  0.7620  0.1367
 6041TIP3    H218088   3.768   5.703   0.879 -2.4439 -2.2659  0.8118
 6042TIP3   OH218089   4.494   5.822   2.744  0.0442  0.3329  0.4287
 6042TIP3    H118090   4.536   5.834   2.659  1.2157  0.6209  1.0327
 6042TIP3    H218091   4.476   5.728   2.748 -0.7794  0.4327 -0.4679
 6043TIP3   OH218092   3.364   6.170   3.904  0.2883 -0.4517 -0.1456
 6043TIP3    H118093   3.323   6.249   3.939 -1.1006 -1.0126 -0.4543
 6043TIP3    H218094   3.310   6.099   3.937  1.1688 -1.2435 -0.3743
 6044TIP3   OH218095   6.580   2.288   1.925  0.1051 -0.5363 -0.1312
 6044TIP3    H118096   6.504   2.275   1.867  0.3238  0.8284 -0.7777
 6044TIP3    H218097   6.542   2.310   2.010 -0.2291 -0.7982 -0.2106
 6045TIP3   OH218098   1.141   5.864   0.868 -0.1309  0.1866  0.1400
 6045TIP3    H118099   1.160   5.812   0.790  0.9151  0.2805  0.3174
 6045TIP3    H218100   1.105   5.800   0.930  2.3469 -0.6661  0.8132
 6046TIP3   OH218101   4.931   5.595   3.637 -0.3760  0.2535  0.0770
 6046TIP3    H118102   4.997   5.600   3.705 -3.8805 -0.6071  3.9683
 6046TIP3    H218103   4.915   5.687   3.613 -0.1957  0.7501  1.7215
 6047TIP3   OH218104   5.542   1.409   5.803  0.5787 -0.2683  0.2428
 6047TIP3    H118105   5.571   1.430   5.891 -0.6004  0.3110  0.5040
 6047TIP3    H218106   5.545   1.492   5.756  1.0195 -0.5384 -0.2220
 6048TIP3   OH218107   1.044   5.920   3.540 -0.2897 -0.2547  0.0276
 6048TIP3    H118108   1.023   5.991   3.479 -0.2300  1.5605  1.9767
 6048TIP3    H218109   0.967   5.863   3.537 -0.2946 -0.2122 -1.6838
 6049TIP3   OH218110   3.585   3.344   1.549  0.2828  0.0115  0.0284
 6049TIP3    H118111   3.565   3.414   1.610 -1.2763 -1.8608  1.8179
 6049TIP3    H218112   3.501   3.299   1.535  1.4291 -2.3292  0.0882
 6050TIP3   OH218113   1.673   2.662   5.455 -0.7481  0.0443  0.7406
 6050TIP3    H118114   1.697   2.709   5.375 -0.8193 -0.9245  0.1428
 6050TIP3    H218115   1.702   2.572   5.440 -0.7092 -0.1389  1.8343
 6051TIP3   OH218116   3.125   4.396   4.408  0.0452 -0.0307 -0.5057
 6051TIP3    H118117   3.043   4.444   4.416 -0.2780 -0.5316 -0.8028
 6051TIP3    H218118   3.133   4.377   4.314  1.4553  1.6758 -0.7754
 6052TIP3   OH218119   0.899   0.091   4.805 -0.6370 -0.3382  0.1117
 6052TIP3    H118120   0.845   0.029   4.756 -0.9012  0.6908 -0.9522
 6052TIP3    H218121   0.844   0.118   4.879 -0.0460 -2.2862  1.3483
 6053TIP3   OH218122   5.466   4.825   1.224 -0.1204 -0.0198  0.1859
 6053TIP3    H118123   5.444   4.771   1.149 -0.5480  0.6243 -0.1642
 6053TIP3    H218124   5.506   4.764   1.287  0.9948 -0.4102 -0.8695
 6054TIP3   OH218125   5.598   1.867   5.792 -0.0655  0.1169 -0.1388
 6054TIP3    H118126   5.602   1.873   5.887 -0.5412 -1.9783  0.0620
 6054TIP3    H218127   5.512   1.902   5.769 -0.1706  0.1269  0.2648
 6055TIP3   OH218128   4.609   5.183   5.040 -0.3540 -0.0245  0.1179
 6055TIP3    H118129   4.568   5.216   5.120  0.3068 -1.1792  0.9658
 6055TIP3    H218130   4.614   5.259   4.982  1.5422  1.5455  2.1438
 6056TIP3   OH218131   2.532   3.721   5.446 -0.6962 -0.3767 -0.8815
 6056TIP3    H118132   2.440   3.743   5.461 -0.8888 -0.2512 -2.1526
 6056TIP3    H218133   2.540   3.714   5.351  0.1771 -2.2790 -0.7062
 6057TIP3   OH218134   0.691   3.193   2.598  0.3082 -0.8060 -0.1997
 6057TIP3    H118135   0.724   3.270   2.553  1.6542 -2.3212 -1.9516
 6057TIP3    H218136   0.657   3.226   2.681  0.3280  1.7114 -1.1205
 6058TIP3   OH218137   0.228   6.559   2.808 -0.5040  0.0793 -0.2455
 6058TIP3    H118138   0.168   6.569   2.734  0.8121  1.9839 -1.1200
 6058TIP3    H218139   0.273   6.476   2.792 -0.3906  0.3693 -1.4675
 6059TIP3   OH218140   2.107   6.491   1.345 -0.2739 -0.6006  0.2354
 6059TIP3    H118141   2.164   6.416   1.335 -2.1026 -1.8460 -1.7596
 6059TIP3    H218142   2.151   6.562   1.298  0.3067 -1.1257 -0.0222
 6060TIP3   OH218143   2.567   5.483   4.291  0.4221  0.1061  0.8338
 6060TIP3    H118144   2.591   5.460   4.381  0.7003  2.4939  1.4411
 6060TIP3    H218145   2.634   5.443   4.237  0.5236 -0.9689  1.7250
 6061TIP3   OH218146   7.112   1.928   0.419 -0.3754 -0.1392 -0.4371
 6061TIP3    H118147   7.146   1.975   0.495  0.6901  0.0313 -0.9993
 6061TIP3    H218148   7.160   1.845   0.418  1.6912  0.9765 -2.4546
 6062TIP3   OH218149   1.269   6.200   4.000 -0.0591  0.3330 -0.1929
 6062TIP3    H118150   1.348   6.241   3.964  1.5990 -2.0029  0.5249
 6062TIP3    H218151   1.202   6.214   3.934  0.9719  2.2989 -0.8877
 6063TIP3   OH218152   5.640   2.280   4.485 -0.0204 -0.4101 -0.2998
 6063TIP3    H118153   5.567   2.222   4.464 -1.1697  0.4342  1.2091
 6063TIP3    H218154   5.638   2.347   4.417  1.0989 -1.8526 -1.8516
 6064TIP3   OH218155   0.215   3.571   5.445 -0.3659  0.4013  0.2789
 6064TIP3    H118156   0.260   3.655   5.430  0.9843 -0.3060  0.1771
 6064TIP3    H218157   0.128   3.583   5.407  0.7063  0.8983 -2.1937
 6065TIP3   OH218158   2.366   0.610   2.306 -0.0713 -0.2407  0.2981
 6065TIP3    H118159   2.315   0.606   2.225 -0.8679 -1.9325  0.8289
 6065TIP3    H218160   2.403   0.698   2.307 -4.5651  1.9068  0.8059
 6066TIP3   OH218161   5.640   1.506   4.668  0.1340 -0.4180  0.0998
 6066TIP3    H118162   5.590   1.471   4.742 -0.9413 -1.6148 -1.1568
 6066TIP3    H218163   5.593   1.476   4.591 -0.0620  2.6857 -1.1106
 6067TIP3   OH218164   4.741   2.767   4.613 -0.7834  0.0046 -0.6827
 6067TIP3    H118165   4.650   2.793   4.594 -1.4590 -0.9281  1.0694
 6067TIP3    H218166   4.774   2.734   4.529 -2.7420 -1.5598 -0.9031
 6068TIP3   OH218167   3.645   0.280   3.355  0.1575  0.3223  0.9048
 6068TIP3    H118168   3.713   0.346   3.356 -0.8386  1.3872  1.3283
 6068TIP3    H218169   3.657   0.232   3.437  0.9781 -0.1314  0.5245
 6069TIP3   OH218170   6.284   6.297   1.050 -0.1978 -0.0417  0.8963
 6069TIP3    H118171   6.324   6.267   1.132  0.9622  0.1489  0.4250
 6069TIP3    H218172   6.261   6.217   1.003  0.1332 -0.1680  0.9447
 6070TIP3   OH218173   4.403   4.799   2.318 -0.4360 -0.5903  0.1635
 6070TIP3    H118174   4.448   4.725   2.360  0.6217  0.1218  0.3261
 6070TIP3    H218175   4.385   4.769   2.229 -1.7295 -1.7236  0.7639
 6071TIP3   OH218176   2.855   2.077   1.529  0.1487 -0.2449  0.4103
 6071TIP3    H118177   2.766   2.045   1.544 -0.2399 -0.2999 -1.6961
 6071TIP3    H218178   2.854   2.168   1.556 -0.3696 -0.4242  0.9949
 6072TIP3   OH218179   3.826   5.885   5.312  0.2352  0.9191  0.0665
 6072TIP3    H118180   3.786   5.826   5.248  1.0600  0.2213  0.1590
 6072TIP3    H218181   3.851   5.962   5.262  0.7062  0.4561 -0.4305
 6073TIP3   OH218182   0.988   6.735   3.243  0.5833  0.1821 -0.5377
 6073TIP3    H118183   0.919   6.732   3.177  1.1308  0.0601 -1.1082
 6073TIP3    H218184   0.972   6.817   3.291 -0.2201 -0.0683 -0.3754
 6074TIP3   OH218185   3.193   1.931   3.581  0.1385  0.1231 -0.4315
 6074TIP3    H118186   3.185   1.892   3.493 -0.4015 -0.1941 -0.2456
 6074TIP3    H218187   3.287   1.927   3.600  0.1156 -0.9502 -0.4855
 6075TIP3   OH218188   5.341   0.025   3.045 -0.0027  0.2336 -0.1557
 6075TIP3    H118189   5.350   0.118   3.026  1.1842  0.3168  0.7292
 6075TIP3    H218190   5.418  -0.015   3.005 -0.0835 -0.2594  0.1770
 6076TIP3   OH218191   5.347   0.664   3.502 -0.0400 -0.1929  0.0764
 6076TIP3    H118192   5.390   0.733   3.452 -0.3729  0.9480  1.3093
 6076TIP3    H218193   5.275   0.634   3.445  0.9828 -0.5550 -1.0564
 6077TIP3   OH218194   6.418   5.220   1.152  0.5135  0.2561  0.3555
 6077TIP3    H118195   6.510   5.203   1.170  0.9658  2.6906  0.7688
 6077TIP3    H218196   6.415   5.243   1.059  0.1693 -0.6211  0.1417
 6078TIP3   OH218197   2.083   1.239   0.561 -0.8288 -0.3745 -0.2529
 6078TIP3    H118198   2.133   1.320   0.577  0.1857 -1.3481  1.9445
 6078TIP3    H218199   1.992   1.263   0.581 -0.3826  0.0004  1.5476
 6079TIP3   OH218200   2.347   0.284   0.145  0.5485  0.1674  0.6286
 6079TIP3    H118201   2.347   0.212   0.208 -0.5502 -0.2900  0.1111
 6079TIP3    H218202   2.264   0.329   0.159 -0.1827 -0.5479 -1.1759
 6080TIP3   OH218203   3.590   6.266   1.173  0.0288  0.1602 -0.3372
 6080TIP3    H118204   3.585   6.358   1.201 -0.4579 -0.4924  1.8925
 6080TIP3    H218205   3.498   6.237   1.171  0.2773 -0.7473  0.7437
 6081TIP3   OH218206   5.784   2.570   0.335  0.5267 -0.3673  0.2133
 6081TIP3    H118207   5.744   2.656   0.332 -1.0506 -1.0934 -0.5114
 6081TIP3    H218208   5.854   2.579   0.400 -0.6780  1.0016  1.4081
 6082TIP3   OH218209   0.741   6.335   4.654 -0.2856 -0.3240 -0.3832
 6082TIP3    H118210   0.763   6.266   4.591 -1.0889 -2.2154  1.3114
 6082TIP3    H218211   0.818   6.393   4.654 -0.9957  1.0016 -4.5235
 6083TIP3   OH218212   0.133   0.679   0.068 -0.0070  0.5385 -0.0058
 6083TIP3    H118213   0.158   0.739   0.139 -0.4876  1.4364 -0.5837
 6083TIP3    H218214   0.216   0.657   0.025  0.2279  0.3946  0.5149
 6084TIP3   OH218215   5.793   6.522   4.268 -0.0245  0.0760 -0.1357
 6084TIP3    H118216   5.698   6.516   4.275 -0.0748  0.6806 -0.1821
 6084TIP3    H218217   5.826   6.502   4.355 -0.0728 -1.9906 -0.5382
 6085TIP3   OH218218   4.393   0.133   2.747 -0.1423 -0.3801  0.8652
 6085TIP3    H118219   4.433   0.121   2.833 -0.8028 -1.0788  1.0930
 6085TIP3    H218220   4.427   0.060   2.695  1.0730  0.6218  0.1972
 6086TIP3   OH218221   2.910   5.406   1.440  0.4714  0.3316 -0.0366
 6086TIP3    H118222   2.882   5.497   1.441 -1.6360 -0.2533  0.6547
 6086TIP3    H218223   3.005   5.409   1.429  0.4447  2.5871  0.0309
 6087TIP3   OH218224   6.774   2.632   3.452 -0.8227 -0.5302  0.3102
 6087TIP3    H118225   6.764   2.609   3.544  0.3275  1.1109  0.8912
 6087TIP3    H218226   6.797   2.549   3.409 -0.9612 -1.2318  1.5618
 6088TIP3   OH218227   5.744   3.316   5.570 -0.6951 -0.2924  0.0184
 6088TIP3    H118228   5.798   3.368   5.511 -1.5572  0.2846 -0.2790
 6088TIP3    H218229   5.658   3.313   5.528 -1.0358 -0.7721  0.7233
 6089TIP3   OH218230   2.034   4.206   0.239  0.3361 -0.1218  0.3792
 6089TIP3    H118231   2.088   4.257   0.178  0.0424  0.5368  0.6652
 6089TIP3    H218232   2.059   4.238   0.326 -0.3334  0.0167  0.5253
 6090TIP3   OH218233   0.157   2.254   1.169 -0.2646 -0.3841 -0.1509
 6090TIP3    H118234   0.102   2.304   1.229  0.9036  0.4890  0.2381
 6090TIP3    H218235   0.124   2.277   1.082 -0.3177  0.3828  0.0629
 6091TIP3   OH218236   4.813   3.435   1.970  0.2631  0.9079 -0.2752
 6091TIP3    H118237   4.774   3.449   1.884 -0.9037 -0.9567 -0.1143
 6091TIP3    H218238   4.739   3.441   2.031  0.3056 -1.6707  0.1475
 6092TIP3   OH218239   3.485   4.290   0.633 -0.0908 -0.2087 -0.0307
 6092TIP3    H118240   3.580   4.293   0.622 -0.1712 -1.7033 -1.4525
 6092TIP3    H218241   3.464   4.197   0.636 -1.4309  0.1057  1.2465
 6093TIP3   OH218242   0.211   5.889   1.933  0.0137 -0.5959 -0.9920
 6093TIP3    H118243   0.306   5.897   1.938  0.0011 -0.4515 -0.9637
 6093TIP3    H218244   0.180   5.921   2.018 -0.1622  1.2121 -1.6779
 6094TIP3   OH218245   6.114   2.379   0.103  0.4934  0.3352  0.1228
 6094TIP3    H118246   6.059   2.302   0.086 -0.4662  0.8163  0.9079
 6094TIP3    H218247   6.203   2.349   0.088  0.1613 -1.0378  0.7356
 6095TIP3   OH218248   4.136   4.785   4.843 -0.9632  0.3483 -0.2142
 6095TIP3    H118249   4.091   4.749   4.919  0.1307  0.5413  0.5570
 6095TIP3    H218250   4.147   4.878   4.863  1.1717  0.0275  0.3950
 6096TIP3   OH218251   5.266   2.467   2.802  0.2828 -0.0164  0.0705
 6096TIP3    H118252   5.320   2.503   2.872  1.3480  0.6715 -1.0709
 6096TIP3    H218253   5.308   2.385   2.779  0.0586 -0.1378  0.0932
 6097TIP3   OH218254   1.313   3.562   5.609 -0.4708 -0.2495 -0.4557
 6097TIP3    H118255   1.270   3.479   5.626  1.4040 -0.8860  1.6537
 6097TIP3    H218256   1.378   3.542   5.541 -1.6369  0.1239 -1.7396
 6098TIP3   OH218257   3.848   1.624   1.807  0.1573 -0.1117  0.4630
 6098TIP3    H118258   3.916   1.582   1.755 -0.6819  1.1311 -1.7823
 6098TIP3    H218259   3.815   1.554   1.864  0.6426 -1.7990 -1.1985
 6099TIP3   OH218260   3.072   0.603   5.531 -0.4375  0.4815  0.3042
 6099TIP3    H118261   3.137   0.585   5.598  0.8828  2.0107 -0.5057
 6099TIP3    H218262   3.001   0.541   5.549  0.6331 -0.3073  2.0274
 6100TIP3   OH218263   1.709   5.497   1.837 -0.1055  0.4390 -0.1965
 6100TIP3    H118264   1.636   5.441   1.862 -0.7885  0.8394 -1.2181
 6100TIP3    H218265   1.762   5.504   1.916  0.9994 -3.0492 -0.4512
 6101TIP3   OH218266   4.622   4.925   5.053  0.6450  0.2492 -0.0660
 6101TIP3    H118267   4.539   4.880   5.067  0.2406  1.4382  1.7140
 6101TIP3    H218268   4.598   5.008   5.012  1.2112 -0.3447 -1.6682
 6102TIP3   OH218269   3.980   3.875   3.347  0.4357 -0.4271  0.2110
 6102TIP3    H118270   3.952   3.849   3.259 -0.3389  0.6475  0.1265
 6102TIP3    H218271   4.040   3.948   3.332 -0.3839  0.3440  0.5893
 6103TIP3   OH218272   7.188   6.528   2.980  0.3382 -0.3553 -0.3743
 6103TIP3    H118273   7.126   6.575   2.925  0.4139 -1.0923 -1.1165
 6103TIP3    H218274   7.274   6.558   2.950  0.3859  1.4995  1.3911
 6104TIP3   OH218275   1.756   2.515   2.560 -0.3961 -0.0333 -0.3807
 6104TIP3    H118276   1.671   2.513   2.606 -0.6260 -2.7063 -0.7998
 6104TIP3    H218277   1.762   2.605   2.527 -2.7329  0.4401  0.2461
 6105TIP3   OH218278   1.246   3.293   5.698  0.6466  0.4852 -0.4905
 6105TIP3    H118279   1.298   3.246   5.763 -0.6390  0.3821  0.4869
 6105TIP3    H218280   1.280   3.261   5.614  2.5145  0.8259  0.0864
 6106TIP3   OH218281   0.414   4.200   4.494 -0.1160 -0.8126 -0.5186
 6106TIP3    H118282   0.325   4.229   4.511 -0.4219 -0.5515 -2.4213
 6106TIP3    H218283   0.469   4.274   4.523 -0.5112 -0.8512  0.3620
 6107TIP3   OH218284   1.194   6.555   4.870 -0.1063  0.4058  0.3146
 6107TIP3    H118285   1.185   6.490   4.939  0.1942 -0.2466 -0.2472
 6107TIP3    H218286   1.128   6.532   4.805  0.4969  0.1940 -0.2399
 6108TIP3   OH218287   1.130   0.793   5.820  0.5083  0.4263  0.1326
 6108TIP3    H118288   1.135   0.884   5.790 -0.1003  0.4473  0.0776
 6108TIP3    H218289   1.162   0.741   5.746  0.2165  0.5572 -0.0880
 6109TIP3   OH218290   5.419   6.211   1.783 -0.1463 -0.3679 -0.3122
 6109TIP3    H118291   5.332   6.208   1.743 -0.3183 -0.7159  0.0825
 6109TIP3    H218292   5.403   6.218   1.877  0.2210 -1.9329 -0.1024
 6110TIP3   OH218293   5.076   2.269   4.000 -0.4535  0.3397  0.4057
 6110TIP3    H118294   5.152   2.309   3.957 -2.1490  1.9803 -1.2560
 6110TIP3    H218295   5.114   2.218   4.071  2.1480  1.8858  0.2904
 6111TIP3   OH218296   5.162   2.826   3.996 -0.7072 -0.3110 -0.1690
 6111TIP3    H118297   5.138   2.734   3.984  1.8410 -1.0849  0.2257
 6111TIP3    H218298   5.130   2.847   4.084 -0.1336 -1.2616  0.2936
 6112TIP3   OH218299   3.992   0.256   2.601 -0.0079 -0.2603 -1.0241
 6112TIP3    H118300   4.042   0.328   2.641  0.1218 -0.1130 -1.4470
 6112TIP3    H218301   3.904   0.264   2.639 -0.4015  1.0020 -2.1147
 6113TIP3   OH218302   6.078   1.284   5.741 -0.5345  0.3412 -0.5239
 6113TIP3    H118303   6.017   1.352   5.713 -1.0059 -0.8470 -2.5399
 6113TIP3    H218304   6.115   1.318   5.823 -0.4372  3.1879 -1.6346
 6114TIP3   OH218305   4.162   1.766   0.073 -0.2595  0.1478 -0.2123
 6114TIP3    H118306   4.207   1.725  -0.001 -0.0878 -1.6325  0.7969
 6114TIP3    H218307   4.226   1.826   0.111 -0.3624  1.0995 -1.4896
 6115TIP3   OH218308   5.946   4.174   2.386 -0.3213 -0.3041  0.7954
 6115TIP3    H118309   5.982   4.255   2.422 -1.2741  0.6449 -0.2783
 6115TIP3    H218310   5.935   4.193   2.292 -1.8875 -1.1565  0.7757
 6116TIP3   OH218311   7.073   2.843   4.070 -0.0537  0.3562 -0.0746
 6116TIP3    H118312   6.992   2.891   4.089 -0.3773 -0.2996  0.2404
 6116TIP3    H218313   7.139   2.884   4.126 -0.4770 -0.0037  0.7089
 6117TIP3   OH218314   1.028   1.579   0.916 -0.4708 -0.3755  0.3263
 6117TIP3    H118315   1.098   1.513   0.908  0.7493  0.9214 -0.0354
 6117TIP3    H218316   0.978   1.571   0.835  0.2759 -0.1962 -0.1581
 6118TIP3   OH218317   0.585   5.234   5.674  0.1242  0.1479 -0.1611
 6118TIP3    H118318   0.619   5.145   5.683  2.0259  0.7254 -1.0178
 6118TIP3    H218319   0.567   5.263   5.763  1.9446 -0.2250  0.3667
 6119TIP3   OH218320   5.655   2.503   2.462 -0.6730 -0.3324 -0.3300
 6119TIP3    H118321   5.571   2.524   2.502 -1.1201  1.3460 -2.0271
 6119TIP3    H218322   5.636   2.490   2.369  0.9424  0.2003 -0.7815
 6120TIP3   OH218323   2.438   4.165   5.695  0.0855 -0.2051  0.6171
 6120TIP3    H118324   2.486   4.140   5.774  0.9127  0.1702  0.2463
 6120TIP3    H218325   2.429   4.260   5.702  0.5975 -0.1049  0.0364
 6121TIP3   OH218326   5.473   4.047   3.871  0.2930  0.1097  0.4427
 6121TIP3    H118327   5.447   3.965   3.830 -1.1893  0.4304  0.6955
 6121TIP3    H218328   5.560   4.066   3.834 -0.4889 -0.1759 -1.6906
 6122TIP3   OH218329   4.688   2.551   4.149 -0.0112  0.7518  0.4338
 6122TIP3    H118330   4.725   2.471   4.113  1.3495  0.6241  2.0292
 6122TIP3    H218331   4.595   2.531   4.164  0.7050 -1.2801  2.7301
 6123TIP3   OH218332   6.873   3.916   2.860 -0.2495 -0.0012  0.5706
 6123TIP3    H118333   6.864   4.006   2.892  0.4854  0.2856  0.0012
 6123TIP3    H218334   6.849   3.922   2.767  1.2486 -0.0894  0.1535
 6124TIP3   OH218335   4.650   0.914   1.653 -0.0631 -0.0984 -0.2495
 6124TIP3    H118336   4.561   0.880   1.643  0.1891 -1.4748  1.5224
 6124TIP3    H218337   4.706   0.837   1.642  0.9681  0.8158 -1.7266
 6125TIP3   OH218338   0.091   5.187   4.909  0.0423 -0.2006 -0.2932
 6125TIP3    H118339   0.112   5.223   4.995  2.7009 -0.7855 -0.6052
 6125TIP3    H218340   0.039   5.109   4.929  0.8274 -0.4779  0.8517
 6126TIP3   OH218341   4.237   5.038   1.681 -0.4617  0.7532  0.1190
 6126TIP3    H118342   4.310   5.099   1.668  0.0501  0.3124  0.8453
 6126TIP3    H218343   4.275   4.951   1.663  0.3002  0.0689  4.0455
 6127TIP3   OH218344   1.250   4.171   2.826 -0.3111  0.3083 -0.4274
 6127TIP3    H118345   1.242   4.150   2.919  0.5748  0.2807 -0.3437
 6127TIP3    H218346   1.318   4.239   2.824 -1.3043  1.3057 -0.9297
 6128TIP3   OH218347   4.096   5.493   2.045  0.2482 -0.6146  0.4396
 6128TIP3    H118348   4.025   5.527   2.100  0.1972 -1.0416  0.6420
 6128TIP3    H218349   4.051   5.437   1.982  0.0546  1.4896 -1.3961
 6129TIP3   OH218350   3.329   6.032   1.827 -0.1245 -0.4468 -0.0729
 6129TIP3    H118351   3.350   6.021   1.919  1.4714  0.2219 -0.3268
 6129TIP3    H218352   3.381   6.108   1.800 -1.2755 -0.0608 -1.3005
 6130TIP3   OH218353   6.195   2.324   0.376  0.0998 -0.0038 -0.6430
 6130TIP3    H118354   6.163   2.313   0.465 -0.4606 -3.6860 -1.1457
 6130TIP3    H218355   6.129   2.379   0.333  0.2980  1.6833  1.0840
 6131TIP3   OH218356   2.338   1.795   4.323 -0.0311  0.1999 -0.0091
 6131TIP3    H118357   2.319   1.713   4.368  0.2630  0.1745  0.0729
 6131TIP3    H218358   2.357   1.857   4.394  1.7255 -0.1642 -0.1090
 6132TIP3   OH218359   5.862   6.702   4.943 -0.0332 -0.4701 -0.6365
 6132TIP3    H118360   5.828   6.770   4.885  1.9138 -0.3428 -1.7084
 6132TIP3    H218361   5.814   6.623   4.918 -2.3164  0.4385  0.6164
 6133TIP3   OH218362   1.042   1.341   0.629 -0.5849  0.0907 -0.0393
 6133TIP3    H118363   1.122   1.380   0.664  2.3848 -3.4002 -2.1401
 6133TIP3    H218364   1.029   1.386   0.545 -0.6540  0.5142  0.2001
 6134TIP3   OH218365   5.069   3.290   0.477 -0.0499 -0.6819 -0.3689
 6134TIP3    H118366   5.153   3.302   0.522  0.1589 -1.3094 -0.5790
 6134TIP3    H218367   5.041   3.202   0.502 -1.5517  0.1519  1.1598
 6135TIP3   OH218368   4.643   5.402   5.515  0.7787 -0.3981 -1.1058
 6135TIP3    H118369   4.564   5.363   5.552  1.7051 -0.8700  0.4633
 6135TIP3    H218370   4.633   5.496   5.528  0.5756 -0.4760 -0.6826
 6136TIP3   OH218371   0.086   5.651   1.754 -0.4083 -0.0166  0.1013
 6136TIP3    H118372   0.172   5.647   1.712  0.3413 -1.5898  1.6683
 6136TIP3    H218373   0.105   5.655   1.847 -2.0421  2.5489  0.3941
 6137TIP3   OH218374   1.710   4.426   0.819 -0.5038  0.1150 -0.5873
 6137TIP3    H118375   1.745   4.509   0.787  1.6750 -0.5897 -0.1920
 6137TIP3    H218376   1.639   4.405   0.758 -0.6002  1.8771 -1.1294
 6138TIP3   OH218377   7.131   3.713   3.110  0.5352  0.5881 -0.0921
 6138TIP3    H118378   7.113   3.704   3.016  4.3582  3.5622 -1.3849
 6138TIP3    H218379   7.058   3.765   3.144 -0.4033  0.3403 -1.6469
 6139TIP3   OH218380   3.649   3.010   2.492 -0.4233 -0.0133  0.5106
 6139TIP3    H118381   3.640   2.951   2.417 -0.7478  0.5187  0.1199
 6139TIP3    H218382   3.698   3.085   2.458 -0.8424  0.3732  0.7449
 6140TIP3   OH218383   6.891   6.282   4.938  0.4166  0.6700  0.2064
 6140TIP3    H118384   6.965   6.278   4.998  0.9168 -0.3447 -0.4420
 6140TIP3    H218385   6.870   6.190   4.920 -0.7725  0.9407  0.0945
 6141TIP3   OH218386   5.319   0.694   1.926 -0.3691  0.3490  0.1329
 6141TIP3    H118387   5.387   0.648   1.876  3.5530  3.9072  1.5970
 6141TIP3    H218388   5.299   0.635   1.999 -2.2631 -2.6082 -2.5151
 6142TIP3   OH218389   6.228   6.634   0.258  0.0109  0.0720  0.0197
 6142TIP3    H118390   6.212   6.541   0.271  0.8024 -0.0550  0.1185
 6142TIP3    H218391   6.142   6.670   0.234 -0.8143 -0.2986  2.1706
 6143TIP3   OH218392   5.403   2.045   0.573  0.2211  0.3536  0.2472
 6143TIP3    H118393   5.402   2.084   0.661  1.4917  0.2465  0.3322
 6143TIP3    H218394   5.312   2.043   0.546 -0.1525  0.6874  1.4419
 6144TIP3   OH218395   3.865   4.978   4.016 -0.3777  0.0026  0.7077
 6144TIP3    H118396   3.851   4.959   3.924  0.2405  0.5617  0.4941
 6144TIP3    H218397   3.959   4.997   4.023 -0.4142 -0.0354  1.4509
 6145TIP3   OH218398   6.115   5.760   2.145  0.4076  0.2591 -0.4044
 6145TIP3    H118399   6.062   5.795   2.073 -1.3298 -0.7527  0.3268
 6145TIP3    H218400   6.151   5.679   2.111 -1.3991 -0.8557  0.1748
 6146TIP3   OH218401   3.915   6.604   3.914  0.2048 -0.2022  0.1476
 6146TIP3    H118402   3.848   6.609   3.982 -0.2344 -0.7179 -0.2385
 6146TIP3    H218403   3.983   6.547   3.951  0.7076  0.7622  0.7577
 6147TIP3   OH218404   0.965   1.949   4.558 -0.3202 -0.3062  0.5152
 6147TIP3    H118405   0.885   2.002   4.561 -0.9526 -1.2024 -0.0222
 6147TIP3    H218406   1.022   1.995   4.497  0.0927  1.0161  1.8387
 6148TIP3   OH218407   3.146   3.658   3.548 -0.3537  0.5467  1.0295
 6148TIP3    H118408   3.186   3.687   3.466 -0.6858  3.0081  1.6519
 6148TIP3    H218409   3.075   3.600   3.521  0.6315 -0.0817 -0.3047
 6149TIP3   OH218410   5.142   2.714   3.111  0.2048  0.2145  0.3012
 6149TIP3    H118411   5.229   2.710   3.152 -0.3272 -0.8014  1.4021
 6149TIP3    H218412   5.083   2.678   3.178 -1.0180  0.6071 -0.5489
 6150TIP3   OH218413   6.095   3.989   3.019 -0.0241 -0.6816 -0.1717
 6150TIP3    H118414   6.070   3.897   3.011  2.7957 -1.6417  0.7042
 6150TIP3    H218415   6.191   3.987   3.023  0.0789  2.1190  1.7396
 6151TIP3   OH218416   0.114   6.602   1.696  0.2860  0.9767  0.5299
 6151TIP3    H118417   0.172   6.526   1.702  0.0280  0.7201 -0.1892
 6151TIP3    H218418   0.028   6.568   1.718 -0.2773  0.5056 -2.1044
 6152TIP3   OH218419   0.618  -0.011   4.218  0.1698  0.2634  0.2607
 6152TIP3    H118420   0.675  -0.014   4.141 -0.6067 -0.2497 -0.3202
 6152TIP3    H218421   0.557   0.060   4.200 -1.1369 -0.9847 -0.4548
 6153TIP3   OH218422   5.961   1.575   3.172  0.2252  0.1808  0.6780
 6153TIP3    H118423   6.056   1.593   3.171  0.2518  0.0356  0.6007
 6153TIP3    H218424   5.925   1.637   3.108 -0.0472  1.9835  2.4733
 6154TIP3   OH218425   1.025   3.917   0.711 -0.3464  0.4919 -0.3763
 6154TIP3    H118426   0.981   3.971   0.645  1.8147  2.2516 -0.5173
 6154TIP3    H218427   1.051   3.838   0.664 -0.0293  1.1312 -1.3179
 6155TIP3   OH218428   4.378   3.051   5.040  0.1367 -0.2879 -0.3460
 6155TIP3    H118429   4.395   3.141   5.011 -0.9942  0.4330  1.1232
 6155TIP3    H218430   4.309   3.020   4.982 -0.7231  0.4456  0.2547
 6156TIP3   OH218431   6.749   4.590   2.068  0.4997 -0.4419 -0.7479
 6156TIP3    H118432   6.730   4.623   2.156 -0.1248  1.5614 -1.5704
 6156TIP3    H218433   6.733   4.496   2.074 -1.8943 -0.0348  0.7015
 6157TIP3   OH218434   6.678   1.914   1.116  0.2200  0.0232 -0.5920
 6157TIP3    H118435   6.666   1.849   1.047 -0.0577 -0.0907 -0.4354
 6157TIP3    H218436   6.590   1.935   1.147  0.4079 -1.2028  0.9039
 6158TIP3   OH218437   6.972   2.389   3.808  0.5679  0.1914  0.4142
 6158TIP3    H118438   6.944   2.476   3.838 -0.0337  0.7096 -1.4985
 6158TIP3    H218439   7.031   2.407   3.735 -0.1959 -0.9965 -0.5347
 6159TIP3   OH218440   6.458   3.946   3.252  0.0704  0.0100  0.7241
 6159TIP3    H118441   6.472   3.868   3.306  1.9932 -0.5844 -0.5384
 6159TIP3    H218442   6.533   3.949   3.193 -0.7724  1.9379 -0.3663
 6160TIP3   OH218443   4.173   1.030   1.442  0.1778  0.1528 -0.9380
 6160TIP3    H118444   4.201   1.019   1.351  0.3368 -0.1071 -0.8588
 6160TIP3    H218445   4.147   0.942   1.470  0.2093  0.2178 -0.7054
 6161TIP3   OH218446   4.961   1.898   1.915  0.1958  0.3339  0.5060
 6161TIP3    H118447   4.955   1.954   1.993  0.6304  2.5775 -0.9841
 6161TIP3    H218448   5.041   1.928   1.871  1.4622 -2.6994  0.4885
 6162TIP3   OH218449   1.997   4.819   2.690 -0.4567  0.5949  0.1096
 6162TIP3    H118450   2.057   4.876   2.739 -1.6581  0.9418  1.2269
 6162TIP3    H218451   2.030   4.730   2.707  1.8076  0.8826 -2.1545
 6163TIP3   OH218452   4.833   0.071   1.003  0.3197  1.0387  0.4200
 6163TIP3    H118453   4.783   0.010   1.057  1.7335 -1.1261 -0.5864
 6163TIP3    H218454   4.898   0.109   1.064  0.4101  0.3687  0.7538
 6164TIP3   OH218455   3.982   4.092   5.787  0.1484  0.1378  0.3197
 6164TIP3    H118456   3.901   4.143   5.791 -0.7396 -1.2492  1.3565
 6164TIP3    H218457   3.962   4.019   5.729  2.2903  2.2538 -3.4891
 6165TIP3   OH218458   1.598   6.119   4.233 -0.7571  0.0438  0.3507
 6165TIP3    H118459   1.621   6.037   4.278 -1.8824  0.0739  1.0246
 6165TIP3    H218460   1.507   6.107   4.207 -0.4482  0.4562 -1.0246
 6166TIP3   OH218461   0.692   4.804   2.258  0.3578  0.0430  0.1730
 6166TIP3    H118462   0.780   4.831   2.286  0.3852 -1.2007  1.3715
 6166TIP3    H218463   0.635   4.829   2.331 -0.4609  1.5084 -0.8832
 6167TIP3   OH218464   0.304   5.906   3.318 -0.4504  0.1324 -0.2950
 6167TIP3    H118465   0.278   5.953   3.397 -3.4078 -0.8645 -0.5568
 6167TIP3    H218466   0.380   5.854   3.345  0.0765  1.6048  1.1992
 6168TIP3   OH218467   1.057   2.752   5.177  1.1125 -0.1433 -0.0204
 6168TIP3    H118468   1.100   2.667   5.170  0.1326 -0.5388 -1.8658
 6168TIP3    H218469   1.011   2.748   5.261 -0.6404 -2.3413 -0.9840
 6169TIP3   OH218470   6.151   4.856   3.830 -0.1656 -0.5786  0.0479
 6169TIP3    H118471   6.116   4.829   3.915  0.6255 -1.1306  0.2091
 6169TIP3    H218472   6.168   4.774   3.784 -0.4103 -0.2874 -0.5732
 6170TIP3   OH218473   6.921   2.654   3.860 -0.7022  0.0580 -0.2230
 6170TIP3    H118474   6.922   2.733   3.807  2.3266  0.2789 -0.0165
 6170TIP3    H218475   6.972   2.676   3.938  2.1594 -2.5705 -1.1165
 6171TIP3   OH218476   0.424   5.953   0.374 -0.2278  1.1306  0.1863
 6171TIP3    H118477   0.424   6.031   0.318  0.8056  0.8960 -0.1629
 6171TIP3    H218478   0.514   5.947   0.406 -0.3374  0.1697  0.3351
 6172TIP3   OH218479   4.362   2.050   4.431  0.6659 -0.2752  0.5234
 6172TIP3    H118480   4.336   1.960   4.411 -0.0727 -0.0136  0.2830
 6172TIP3    H218481   4.451   2.042   4.467  0.1846 -1.2084  1.5539
 6173TIP3   OH218482   3.176   6.206   1.607  0.2350  0.4105 -0.6018
 6173TIP3    H118483   3.255   6.152   1.602  0.8063  1.2536 -0.9548
 6173TIP3    H218484   3.168   6.227   1.700  0.9541  1.0602 -0.6740
 6174TIP3   OH218485   2.505   2.355   4.856  0.4238 -0.3221 -0.0881
 6174TIP3    H118486   2.478   2.263   4.858  2.5960 -1.0183  0.3264
 6174TIP3    H218487   2.490   2.386   4.945  0.4667 -0.5362 -0.0046
 6175TIP3   OH218488   6.915   3.402   2.719  0.1108 -0.1802  0.0610
 6175TIP3    H118489   6.913   3.484   2.767  0.7733 -0.2301  0.1883
 6175TIP3    H218490   6.860   3.342   2.770 -1.8682  0.6608 -0.9772
 6176TIP3   OH218491   4.445   1.806   1.951 -0.0526 -0.3836 -0.0500
 6176TIP3    H118492   4.392   1.850   1.885 -0.0085 -1.0847 -0.5628
 6176TIP3    H218493   4.527   1.854   1.952 -0.2357 -0.0631 -0.1420
 6177TIP3   OH218494   1.304   3.194   4.891 -0.9890  0.6267 -0.1262
 6177TIP3    H118495   1.226   3.184   4.836  0.3192 -1.1654 -1.8150
 6177TIP3    H218496   1.371   3.143   4.846  0.6515  0.5013  2.2870
 6178TIP3   OH218497   5.963   2.151   4.689  0.2057  0.2014  0.1244
 6178TIP3    H118498   5.982   2.115   4.602  0.0254 -0.5128  0.3689
 6178TIP3    H218499   6.012   2.094   4.748 -0.3366  0.1725  0.5467
 6179TIP3   OH218500   4.596   6.732   1.629  0.2099  0.7010 -0.5911
 6179TIP3    H118501   4.553   6.818   1.628 -1.1378  0.0572 -1.1412
 6179TIP3    H218502   4.535   6.675   1.677  0.1415 -0.3702 -1.8670
 6180TIP3   OH218503   2.227   6.240   4.611 -0.3627 -0.0685  0.0844
 6180TIP3    H118504   2.265   6.282   4.688 -1.7468  0.1406  0.6918
 6180TIP3    H218505   2.272   6.280   4.537  0.9348 -0.2164  0.7688
 6181TIP3   OH218506   0.447   6.512   0.253 -0.3885  0.0477 -0.0428
 6181TIP3    H118507   0.442   6.572   0.328 -0.8919  0.7437 -0.6100
 6181TIP3    H218508   0.512   6.447   0.278 -0.7857  0.0862  1.1235
 6182TIP3   OH218509   6.527   6.378   3.827 -0.7098  0.4719 -0.1578
 6182TIP3    H118510   6.454   6.332   3.784 -1.4674  2.0024 -0.5815
 6182TIP3    H218511   6.587   6.398   3.755  0.0677 -0.6231  0.1650
 6183TIP3   OH218512   6.057   2.574   2.033  0.2239 -0.4137 -0.6327
 6183TIP3    H118513   6.057   2.662   1.997 -0.7297 -0.4555 -0.7458
 6183TIP3    H218514   5.976   2.535   2.002  0.0678 -0.9366  0.3944
 6184TIP3   OH218515   3.078   2.019   1.375  0.3104 -0.4912  0.5921
 6184TIP3    H118516   3.051   1.930   1.400 -1.0811  0.0536  1.0957
 6184TIP3    H218517   3.004   2.074   1.399  0.7644  0.6861 -0.6135
 6185TIP3   OH218518   4.295   2.986   0.953  0.3800 -0.6373  0.3022
 6185TIP3    H118519   4.369   2.982   0.892  0.9851 -1.1736  1.0552
 6185TIP3    H218520   4.265   3.077   0.947  0.1124 -0.7971 -1.1479
 6186TIP3   OH218521   3.482   5.012   3.258 -0.0667  0.7314  0.0919
 6186TIP3    H118522   3.509   5.065   3.183 -1.7096 -0.5236 -1.4920
 6186TIP3    H218523   3.387   5.006   3.250 -0.1146 -0.8542  1.2802
 6187TIP3   OH218524   4.147   3.121   1.839  0.0161  0.8125  0.3537
 6187TIP3    H118525   4.128   3.106   1.747  1.2368 -1.4094  0.3887
 6187TIP3    H218526   4.061   3.130   1.880 -0.6260 -0.1565 -0.7268
 6188TIP3   OH218527   4.347   2.644   5.859  0.3658  0.4612  0.0016
 6188TIP3    H118528   4.274   2.634   5.798 -0.2258 -0.2100  0.7923
 6188TIP3    H218529   4.401   2.567   5.844  0.0629  0.1404  0.5119
 6189TIP3   OH218530   1.832   2.548   3.291 -0.3713 -0.1079  0.3525
 6189TIP3    H118531   1.904   2.579   3.345 -0.2222  0.4892 -0.1747
 6189TIP3    H218532   1.838   2.600   3.211  0.2799 -1.9148 -0.8436
 6190TIP3   OH218533   7.139   4.956   5.485  0.0571  0.1798  0.1036
 6190TIP3    H118534   7.207   4.972   5.420  0.1744 -0.7576 -0.0150
 6190TIP3    H218535   7.151   4.865   5.511 -1.5435 -0.2081 -0.3816
 6191TIP3   OH218536   4.245   4.995   3.552 -0.2134  0.3669  0.0271
 6191TIP3    H118537   4.173   5.051   3.579 -0.3475  0.8196 -1.2163
 6191TIP3    H218538   4.282   5.039   3.475 -0.6278 -1.4728 -1.2815
 6192TIP3   OH218539   6.450   5.562   0.987 -0.3659 -0.2715  0.2204
 6192TIP3    H118540   6.405   5.642   0.958 -0.7780  0.0263  1.6042
 6192TIP3    H218541   6.391   5.491   0.962 -1.4512  0.0898  1.6519
 6193TIP3   OH218542   1.173   1.837   0.943  0.3422 -0.2262  0.7223
 6193TIP3    H118543   1.087   1.875   0.924  0.7516  0.4106  0.0758
 6193TIP3    H218544   1.169   1.813   1.035 -0.4344  0.0584  0.7721
 6194TIP3   OH218545   1.903   3.599   5.442 -0.3060 -0.0653 -0.0418
 6194TIP3    H118546   1.822   3.643   5.465 -0.1255  1.3137 -1.8052
 6194TIP3    H218547   1.926   3.634   5.356  2.0359 -0.5970  0.2913
 6195TIP3   OH218548   0.135   2.515   2.316  0.6129  0.0694  0.3462
 6195TIP3    H118549   0.127   2.610   2.331  2.0958  0.3254 -0.3158
 6195TIP3    H218550   0.072   2.476   2.377  0.0967  1.4680  0.7540
 6196TIP3   OH218551   0.358   2.480   3.910 -0.4317 -0.4104 -0.1072
 6196TIP3    H118552   0.443   2.524   3.901  0.1749 -1.5610 -0.1852
 6196TIP3    H218553   0.310   2.505   3.831 -0.4653  0.8360  0.2791
 6197TIP3   OH218554   5.234   3.099   4.706  0.2694 -0.4905 -0.0792
 6197TIP3    H118555   5.298   3.095   4.777  0.1076 -1.2780  0.0287
 6197TIP3    H218556   5.226   3.008   4.676 -0.4111 -0.3147 -0.4409
 6198TIP3   OH218557   0.444   3.743   4.969  0.4387  0.2476  0.4807
 6198TIP3    H118558   0.496   3.664   4.981  1.7747  1.1856  1.0794
 6198TIP3    H218559   0.508   3.813   4.959 -0.7133  1.1998 -0.5636
 6199TIP3   OH218560   0.775   0.053   1.380  0.3816 -0.5403  0.4335
 6199TIP3    H118561   0.786  -0.042   1.383 -0.1551 -0.6394 -0.3658
 6199TIP3    H218562   0.682   0.066   1.362  0.7653  0.0910 -1.2493
 6200TIP3   OH218563   5.563   0.869   4.741 -0.4169  0.0068  0.2694
 6200TIP3    H118564   5.565   0.893   4.649  1.1594  0.4066  0.3911
 6200TIP3    H218565   5.537   0.950   4.786 -0.9461 -0.1250  0.2134
 6201TIP3   OH218566   3.289   1.158   0.676 -0.1718  0.0775 -0.5992
 6201TIP3    H118567   3.259   1.209   0.751  0.8042 -2.5213  1.7458
 6201TIP3    H218568   3.216   1.159   0.615 -1.0070  2.2997  0.3552
 6202TIP3   OH218569   3.577   6.089   4.864 -0.2506 -0.2798 -0.4428
 6202TIP3    H118570   3.516   6.016   4.858  0.4880 -0.8550 -1.1597
 6202TIP3    H218571   3.663   6.051   4.844  0.4861  0.3508  1.2762
 6203TIP3   OH218572   0.167   3.765   3.962 -0.1250  0.2451  0.4112
 6203TIP3    H118573   0.089   3.712   3.946  0.2324  0.4346 -2.4831
 6203TIP3    H218574   0.133   3.850   3.989 -0.8909  0.0879 -0.0362
 6204TIP3   OH218575   5.267   2.939   3.721  0.1726 -0.1028  0.2820
 6204TIP3    H118576   5.248   3.028   3.750 -0.8724  0.1093 -0.9612
 6204TIP3    H218577   5.325   2.950   3.645  0.8955 -0.5340  0.7613
 6205TIP3   OH218578   1.882   4.302   2.890  0.2064 -0.6636  0.2653
 6205TIP3    H118579   1.803   4.346   2.919  0.8139  0.6089  0.0714
 6205TIP3    H218580   1.853   4.217   2.858 -1.0203 -0.3621  0.5586
 6206TIP3   OH218581   5.411   3.419   1.776  0.0858 -0.2221  0.2311
 6206TIP3    H118582   5.338   3.384   1.827 -0.1241 -0.5591 -0.2977
 6206TIP3    H218583   5.483   3.425   1.839 -0.8985  1.9470  1.2741
 6207TIP3   OH218584   6.406   6.213   2.892 -0.9870  0.1455  0.1866
 6207TIP3    H118585   6.364   6.204   2.806  0.9239  0.0634 -0.8022
 6207TIP3    H218586   6.360   6.286   2.934 -1.2609  0.9103 -1.3691
 6208TIP3   OH218587   3.126   6.449   4.914  0.3221 -0.0572  0.3249
 6208TIP3    H118588   3.120   6.524   4.855 -0.4382  0.0056  0.4675
 6208TIP3    H218589   3.166   6.380   4.861  0.4089  0.2477 -0.0098
 6209TIP3   OH218590   3.321   2.900   0.900 -0.2174 -0.2547 -0.3443
 6209TIP3    H118591   3.403   2.886   0.854  1.1522  1.8043  1.2899
 6209TIP3    H218592   3.342   2.962   0.969 -3.2398  0.6802 -0.0924
 6210TIP3   OH218593   4.185   1.324   5.758 -0.0321 -0.0828 -0.4399
 6210TIP3    H118594   4.199   1.418   5.745 -0.6560 -0.1670 -1.9155
 6210TIP3    H218595   4.153   1.292   5.674 -2.0280 -1.2150  0.6621
 6211TIP3   OH218596   3.584   4.304   1.157 -0.0226  0.1187  0.4198
 6211TIP3    H118597   3.621   4.228   1.112  2.6752  1.0002  0.9747
 6211TIP3    H218598   3.545   4.268   1.237 -0.1064 -0.8408 -0.0377
 6212TIP3   OH218599   2.131   5.488   1.038 -0.3371 -0.4364  0.5671
 6212TIP3    H118600   2.075   5.413   1.058  0.0478 -0.5733  1.1668
 6212TIP3    H218601   2.166   5.515   1.123  0.3245 -0.2162  0.2325
 6213TIP3   OH218602   5.568   4.997   3.399 -0.3584  0.1834 -0.0736
 6213TIP3    H118603   5.486   5.027   3.359 -0.5931  0.9882  0.9590
 6213TIP3    H218604   5.637   5.034   3.343 -0.6818 -0.5002 -0.9496
 6214TIP3   OH218605   0.081   1.773   5.021  0.5404 -0.4944 -0.6674
 6214TIP3    H118606   0.041   1.718   4.953 -1.9572  0.1664  0.1536
 6214TIP3    H218607   0.053   1.862   4.999 -0.9081 -0.3348  1.5359
 6215TIP3   OH218608   3.449   0.838   5.191 -0.1736 -0.4266 -0.5581
 6215TIP3    H118609   3.526   0.781   5.194  0.5667  0.5148 -1.1423
 6215TIP3    H218610   3.444   0.866   5.099 -0.1997  0.8775 -0.1668
 6216TIP3   OH218611   0.355   0.274   1.333 -0.0892  0.2209  0.2520
 6216TIP3    H118612   0.366   0.257   1.239  1.2957  0.3155  0.3788
 6216TIP3    H218613   0.340   0.368   1.339  0.5987  0.3388  0.1777
 6217TIP3   OH218614   2.439   2.604   5.117  0.1444  0.0021 -0.2020
 6217TIP3    H118615   2.355   2.634   5.081  0.1096  0.5151  0.2974
 6217TIP3    H218616   2.417   2.526   5.168 -0.1129  0.4465  0.3711
 6218TIP3   OH218617   1.179   5.356   5.144 -0.3654 -0.2073  0.2245
 6218TIP3    H118618   1.198   5.444   5.112 -2.9436  0.9532  1.5935
 6218TIP3    H218619   1.151   5.308   5.066  0.2968  0.4136 -0.4107
 6219TIP3   OH218620   2.215   4.147   3.903 -0.5384 -0.1765  0.0532
 6219TIP3    H118621   2.302   4.154   3.864 -0.8794 -2.8037 -1.3908
 6219TIP3    H218622   2.229   4.170   3.995  1.4298  0.6596 -0.4049
 6220TIP3   OH218623   6.217   0.950   1.238  0.5474  0.0343 -0.8272
 6220TIP3    H118624   6.144   0.921   1.293  2.0031  0.3819  1.4293
 6220TIP3    H218625   6.267   0.870   1.221  0.3445  0.0019 -1.2879
 6221TIP3   OH218626   5.645   0.251   2.243 -0.3809  0.0780  0.0461
 6221TIP3    H118627   5.603   0.336   2.229 -2.0161  0.1040  3.8489
 6221TIP3    H218628   5.698   0.263   2.323  3.5402 -1.2165 -2.0904
 6222TIP3   OH218629   3.059   6.057   0.615 -0.0312 -0.7363 -0.1199
 6222TIP3    H118630   3.058   5.986   0.552  2.9852 -0.8805 -0.1502
 6222TIP3    H218631   3.066   6.137   0.562  0.4038 -0.7011 -0.0106
 6223TIP3   OH218632   2.645   3.502   0.195  0.1863  0.2602 -0.0888
 6223TIP3    H118633   2.694   3.535   0.271 -0.4883  1.0717  0.0134
 6223TIP3    H218634   2.558   3.542   0.204  0.3444  1.0048 -1.7312
 6224TIP3   OH218635   2.592   4.199   2.186 -0.0678 -0.1220 -0.3400
 6224TIP3    H118636   2.506   4.173   2.154 -0.2550 -1.1999  0.9373
 6224TIP3    H218637   2.578   4.283   2.230 -1.1170 -1.5260  2.2661
 6225TIP3   OH218638   2.097   0.785   1.797 -0.7850 -0.4930 -0.1892
 6225TIP3    H118639   2.011   0.755   1.826 -0.6414 -1.4707 -0.7048
 6225TIP3    H218640   2.146   0.704   1.781  0.8183 -0.0011  1.7346
 6226TIP3   OH218641   1.409   2.393   1.182 -0.3684  0.2901 -0.5885
 6226TIP3    H118642   1.387   2.436   1.100  0.8451  0.5792 -0.7802
 6226TIP3    H218643   1.478   2.331   1.159  0.1074  0.4942  0.2305
 6227TIP3   OH218644   6.082   5.997   1.036 -0.7395 -0.0750  0.4812
 6227TIP3    H118645   6.046   5.928   0.980  1.8448 -0.7553 -0.5012
 6227TIP3    H218646   6.123   6.059   0.975 -2.7743  2.3019  1.3495
 6228TIP3   OH218647   4.365   0.661   5.353 -0.6184  0.5102  0.5143
 6228TIP3    H118648   4.420   0.623   5.284 -0.4594 -0.9067  1.3860
 6228TIP3    H218649   4.280   0.675   5.312 -0.3707  0.1890 -0.1147
 6229TIP3   OH218650   3.259   6.689   3.570 -0.5920 -0.0299 -0.1793
 6229TIP3    H118651   3.269   6.606   3.525 -1.7674  1.6292 -3.8767
 6229TIP3    H218652   3.206   6.668   3.647  1.8524 -3.1091  0.8848
 6230TIP3   OH218653   5.959   2.960   0.068 -0.1394  0.4842  0.8754
 6230TIP3    H118654   6.049   2.944   0.038 -0.5159  0.7758 -0.4655
 6230TIP3    H218655   5.943   3.052   0.047 -1.0798  0.1746  0.1759
 6231TIP3   OH218656   6.731   6.673   3.225 -0.2602 -0.2763  0.0576
 6231TIP3    H118657   6.773   6.724   3.295  0.0573 -0.1277 -0.2363
 6231TIP3    H218658   6.791   6.681   3.151  0.3870 -2.0570  0.3495
 6232TIP3   OH218659   4.636   2.949   0.110 -0.3483  0.5120  0.9764
 6232TIP3    H118660   4.687   2.891   0.053  1.1794  2.0456  0.6655
 6232TIP3    H218661   4.638   2.907   0.195 -0.8082 -0.7603  0.3798
 6233TIP3   OH218662   2.453   2.912   1.714 -0.0380 -0.1264 -0.5240
 6233TIP3    H118663   2.390   2.849   1.678 -0.4496 -0.4893  0.7814
 6233TIP3    H218664   2.409   2.997   1.706 -0.7038 -0.3728  0.3521
 6234TIP3   OH218665   2.975   5.554   4.931  0.1442 -0.5653 -0.2483
 6234TIP3    H118666   2.953   5.617   4.999  0.6912  1.2855 -1.7074
 6234TIP3    H218667   3.019   5.483   4.978 -0.1843  0.2688  1.4095
 6235TIP3   OH218668   7.155   6.135   4.010  0.2719 -0.2494  0.3791
 6235TIP3    H118669   7.181   6.177   4.092 -2.0321  0.6029  0.7234
 6235TIP3    H218670   7.136   6.045   4.034  3.1370 -1.0519  0.0308
 6236TIP3   OH218671   5.052   3.535   5.581 -0.2678 -0.1369 -0.2560
 6236TIP3    H118672   5.094   3.469   5.635 -0.9827  0.4769  1.1104
 6236TIP3    H218673   5.123   3.574   5.531  0.3507 -1.0253 -0.0925
 6237TIP3   OH218674   2.075   4.400   2.057  0.0527  0.3043  0.2131
 6237TIP3    H118675   2.122   4.383   2.139 -0.3624 -0.1068  0.3649
 6237TIP3    H218676   2.091   4.322   2.004  0.4098  0.6157 -0.1449
 6238TIP3   OH218677   6.405   5.131   5.439  0.1292 -0.1963  0.4479
 6238TIP3    H118678   6.351   5.150   5.515  1.5950 -0.4547  1.5909
 6238TIP3    H218679   6.387   5.039   5.418  0.0227 -0.2366  0.7238
 6239TIP3   OH218680   3.687   1.248   5.702  0.0923 -0.1015 -0.4347
 6239TIP3    H118681   3.699   1.274   5.793 -1.8072  1.1352 -0.4811
 6239TIP3    H218682   3.776   1.240   5.667  0.9058 -1.8637  1.8077
 6240TIP3   OH218683   0.616   3.506   1.345 -0.2350 -0.2705  0.2336
 6240TIP3    H118684   0.568   3.568   1.290  0.4774  0.2397  0.1694
 6240TIP3    H218685   0.593   3.530   1.434 -0.4277 -0.2945  0.1894
 6241TIP3   OH218686   3.871   3.523   5.038  0.2268 -0.5314 -0.5660
 6241TIP3    H118687   3.829   3.501   4.955 -0.8190 -0.8014  0.0258
 6241TIP3    H218688   3.965   3.518   5.018  0.0066  0.1519 -1.9155
 6242TIP3   OH218689   4.113   2.561   4.983  0.0007  0.3777 -0.2093
 6242TIP3    H118690   4.077   2.545   5.071  2.4496  0.7926  0.9592
 6242TIP3    H218691   4.089   2.652   4.964  2.3051  1.5313  1.6674
 6243TIP3   OH218692   5.403   2.896   0.091  0.1606  0.0871 -0.5659
 6243TIP3    H118693   5.398   2.895  -0.004 -1.0758 -1.0861 -0.5115
 6243TIP3    H218694   5.485   2.942   0.110  1.0781 -0.7844 -2.2236
 6244TIP3   OH218695   3.230   2.710   0.251 -0.1424 -0.5487 -0.4298
 6244TIP3    H118696   3.188   2.761   0.320 -1.2768 -1.6249 -0.2970
 6244TIP3    H218697   3.187   2.738   0.171  1.2722  0.8042 -0.7737
 6245TIP3   OH218698   5.284   5.994   3.629  0.0643  0.1523 -0.4370
 6245TIP3    H118699   5.318   6.012   3.717 -1.0327 -0.6807  0.1822
 6245TIP3    H218700   5.243   6.076   3.603  0.0981  0.3024 -0.0295
 6246TIP3   OH218701   3.440   1.769   0.164  0.3016  0.0659  0.3395
 6246TIP3    H118702   3.490   1.692   0.136 -0.5117 -0.4167  0.1612
 6246TIP3    H218703   3.423   1.816   0.082 -0.4660 -0.3538  0.2489
 6247TIP3   OH218704   6.321   5.297   2.293  0.4175  0.6267  0.1248
 6247TIP3    H118705   6.291   5.381   2.258 -1.3192 -0.1874 -0.4672
 6247TIP3    H218706   6.366   5.255   2.220  0.8823  0.8587  0.2801
 6248TIP3   OH218707   3.917   2.789   2.963 -0.1398 -0.2843 -0.0806
 6248TIP3    H118708   3.911   2.795   2.868  0.3635  0.3482 -0.0789
 6248TIP3    H218709   3.887   2.700   2.984 -2.4335  0.3013 -0.6317
 6249TIP3   OH218710   7.027   3.954   3.376 -0.3430 -0.8603  0.0737
 6249TIP3    H118711   6.987   3.903   3.305  2.1396 -1.0452 -1.2972
 6249TIP3    H218712   7.044   3.890   3.445 -2.0055 -0.8321  0.5653
 6250TIP3   OH218713   0.366   0.955   1.032  0.6075 -0.3423  1.0745
 6250TIP3    H118714   0.312   1.033   1.044  0.3072 -0.1293 -1.2038
 6250TIP3    H218715   0.312   0.898   0.977  2.3688 -0.4160 -0.6649
 6251TIP3   OH218716   2.578   0.405   0.069 -0.2850 -0.1247 -0.4249
 6251TIP3    H118717   2.501   0.374   0.117 -0.1032 -1.5339 -1.0175
 6251TIP3    H218718   2.622   0.326   0.040  0.8059  0.6847 -1.0448
 6252TIP3   OH218719   5.628   0.929   2.022 -0.2580 -0.3939 -0.3332
 6252TIP3    H118720   5.711   0.950   1.978 -0.0052  0.0644  0.3440
 6252TIP3    H218721   5.572   1.004   2.003 -0.1718 -0.2282  0.0590
 6253TIP3   OH218722   1.897   6.324   2.184  0.0701 -0.3964  1.1279
 6253TIP3    H118723   1.884   6.233   2.212 -0.5829 -0.3137  1.1214
 6253TIP3    H218724   1.939   6.317   2.098 -3.9578 -0.8789 -1.0775
 6254TIP3   OH218725   4.254   5.292   1.431  0.0578 -0.2736 -0.0435
 6254TIP3    H118726   4.313   5.268   1.503 -0.7000  0.3947  0.8331
 6254TIP3    H218727   4.258   5.388   1.429  2.8820 -0.2704 -3.3128
 6255TIP3   OH218728   5.710   5.917   2.353 -0.1711  0.8020 -0.0917
 6255TIP3    H118729   5.706   5.999   2.304 -0.9607  1.0177  0.3149
 6255TIP3    H218730   5.749   5.941   2.437  0.5445  0.5634 -0.3528
 6256TIP3   OH218731   5.140   0.902   4.255  0.0392  0.2743  0.2250
 6256TIP3    H118732   5.231   0.928   4.268 -0.6193  2.8708  0.1993
 6256TIP3    H218733   5.110   0.873   4.341  0.3507  1.2824  0.6774
 6257TIP3   OH218734   3.205   5.609   2.044 -0.1586  0.2931  0.1770
 6257TIP3    H118735   3.289   5.653   2.058  0.2765 -0.6387  0.5869
 6257TIP3    H218736   3.168   5.653   1.967 -0.2121  2.0131  1.1272
 6258TIP3   OH218737   1.970   6.418   5.316 -0.7897  0.6091  0.4695
 6258TIP3    H118738   2.047   6.409   5.261 -0.0890  0.1925  1.4783
 6258TIP3    H218739   2.005   6.426   5.405 -1.9087  0.0653  0.9841
 6259TIP3   OH218740   4.473   6.654   4.776  0.2544 -0.3236  0.0018
 6259TIP3    H118741   4.486   6.673   4.683  1.2779  1.1760  0.4202
 6259TIP3    H218742   4.379   6.637   4.784  0.1079 -0.1698 -1.2470
 6260TIP3   OH218743   5.082   3.231   4.516 -0.5364  0.1533 -0.0680
 6260TIP3    H118744   5.120   3.193   4.594 -0.3057  0.7782  0.1244
 6260TIP3    H218745   5.138   3.201   4.444  1.0503  1.9883  0.3201
 6261TIP3   OH218746   5.826   3.278   0.214  0.3378 -0.0001 -0.3424
 6261TIP3    H118747   5.839   3.369   0.239 -0.6907  0.0400  0.0895
 6261TIP3    H218748   5.903   3.256   0.162  0.3569  1.2587 -0.8709
 6262TIP3   OH218749   4.925   5.368   5.391 -0.0896  0.3330 -0.0420
 6262TIP3    H118750   4.976   5.439   5.432 -0.3077  0.2752  0.3373
 6262TIP3    H218751   4.841   5.370   5.436 -0.5028  0.5670 -0.8185
 6263TIP3   OH218752   6.566   2.353   0.468 -0.0356 -0.4785 -0.0461
 6263TIP3    H118753   6.590   2.446   0.464  1.8778 -0.9502 -0.8735
 6263TIP3    H218754   6.593   2.325   0.555  1.7317 -0.7862 -0.6508
 6264TIP3   OH218755   4.765   0.510   5.248 -0.1956 -0.0971  0.0267
 6264TIP3    H118756   4.816   0.561   5.311 -1.3463  0.3633  0.6278
 6264TIP3    H218757   4.783   0.419   5.269 -0.6440  0.0525  1.1178
 6265TIP3   OH218758   1.012   5.314   2.547 -0.3781  0.7342 -0.6288
 6265TIP3    H118759   1.054   5.349   2.626 -1.0553  0.2473 -0.0392
 6265TIP3    H218760   1.084   5.274   2.498  0.3501  2.5965 -1.1582
 6266TIP3   OH218761   3.101   0.905   3.687  0.3203 -0.0710  0.0238
 6266TIP3    H118762   3.020   0.856   3.673 -0.4756  1.4254 -0.7680
 6266TIP3    H218763   3.166   0.859   3.633 -0.6674  0.3377 -1.5805
 6267TIP3   OH218764   5.643   0.644   0.063  0.0823  0.2339  0.0088
 6267TIP3    H118765   5.719   0.637   0.005 -0.3424 -0.5867 -0.4755
 6267TIP3    H218766   5.590   0.714   0.025 -0.4586 -0.6600 -0.9395
 6268TIP3   OH218767   6.254   3.549   1.922  0.6641  0.1696  0.3166
 6268TIP3    H118768   6.226   3.630   1.880 -0.8531 -0.3919  0.1867
 6268TIP3    H218769   6.207   3.547   2.005  0.1796 -0.8655  0.0396
 6269TIP3   OH218770   2.960   0.239   0.328 -0.6239 -0.3795  0.0976
 6269TIP3    H118771   2.916   0.320   0.302 -2.2417 -1.0247  0.7308
 6269TIP3    H218772   2.916   0.212   0.408  0.6082 -1.3369  0.4776
 6270TIP3   OH218773   3.789   3.976   2.768  0.2171  0.0588 -0.2128
 6270TIP3    H118774   3.779   3.882   2.783  0.2922 -0.0078 -0.5798
 6270TIP3    H218775   3.810   4.011   2.854  0.9154 -0.3622 -0.1995
 6271TIP3   OH218776   4.490   5.268   3.574 -0.0695  0.0045 -0.1291
 6271TIP3    H118777   4.575   5.229   3.556 -0.1272 -0.2002  0.0442
 6271TIP3    H218778   4.434   5.237   3.502  0.1645  0.6603 -0.6008
 6272TIP3   OH218779   3.021   0.552   0.206  0.3813  0.5255 -0.4512
 6272TIP3    H118780   2.937   0.579   0.243 -0.3582 -1.9534 -0.1867
 6272TIP3    H218781   3.084   0.565   0.277 -0.2819 -0.1770  0.2872
 6273TIP3   OH218782   4.429   5.458   3.769 -0.3808 -0.5002  0.5559
 6273TIP3    H118783   4.393   5.523   3.709 -0.1866  0.0131  0.9841
 6273TIP3    H218784   4.444   5.380   3.715  0.4751  0.1808 -0.2304
 6274TIP3   OH218785   3.959   0.620   2.520  0.7666  0.1979  0.2044
 6274TIP3    H118786   4.033   0.668   2.557  0.7604  1.1683 -0.9678
 6274TIP3    H218787   3.946   0.547   2.580  2.3966  0.2384  0.6719
 6275TIP3   OH218788   4.476   4.483   2.111  0.1192 -0.3106 -0.3001
 6275TIP3    H118789   4.486   4.452   2.201  0.3578 -0.7182 -0.4645
 6275TIP3    H218790   4.508   4.573   2.112 -0.3972 -0.1283  0.1411
 6276TIP3   OH218791   0.828   1.161   2.242  0.0210  0.2358  0.4610
 6276TIP3    H118792   0.801   1.127   2.327 -0.0908 -1.2126 -0.1223
 6276TIP3    H218793   0.746   1.182   2.198  0.0068 -0.3351  0.2039
 6277TIP3   OH218794   4.580   0.223   5.500  0.0939  0.5606  0.2223
 6277TIP3    H118795   4.580   0.306   5.547 -0.1340  0.4217  0.4737
 6277TIP3    H218796   4.531   0.163   5.557 -1.2071  0.6844 -0.7084
 6278TIP3   OH218797   3.486   3.236   3.337 -0.2782  0.4069 -0.1654
 6278TIP3    H118798   3.397   3.205   3.350  0.3322 -0.5763  2.1835
 6278TIP3    H218799   3.486   3.324   3.375 -0.4023  0.6979 -0.8250
 6279TIP3   OH218800   6.151   5.240   5.592  0.0659  0.6371 -0.3973
 6279TIP3    H118801   6.178   5.328   5.567 -0.0983  0.2630 -1.9852
 6279TIP3    H218802   6.057   5.237   5.574 -0.2809  0.6379  1.2326
 6280TIP3   OH218803   1.348   4.808   0.266  0.4130  0.4004 -0.4842
 6280TIP3    H118804   1.371   4.827   0.175 -0.9866  1.1050 -0.7247
 6280TIP3    H218805   1.314   4.718   0.264 -0.6845  0.8023 -0.8982
 6281TIP3   OH218806   5.564   6.252   4.125  0.6741 -0.1643 -0.1637
 6281TIP3    H118807   5.602   6.338   4.109  0.6877  0.0258  0.8511
 6281TIP3    H218808   5.471   6.263   4.103  0.5638  0.2673  0.4837
 6282TIP3   OH218809   0.117   0.609   1.151  0.2016 -0.0499  0.0983
 6282TIP3    H118810   0.028   0.640   1.166 -0.3271 -1.5915  0.4140
 6282TIP3    H218811   0.146   0.578   1.237  0.1652 -1.6055 -0.4065
 6283TIP3   OH218812   4.742   3.141   4.992 -0.0881  0.1111 -0.6716
 6283TIP3    H118813   4.798   3.114   4.919 -1.3712 -0.9739 -1.2853
 6283TIP3    H218814   4.755   3.072   5.058 -0.5194 -0.0303 -0.7318
 6284TIP3   OH218815   1.956   1.850   5.514  0.3735 -0.4860 -0.1130
 6284TIP3    H118816   1.986   1.901   5.439  1.4620 -1.1084 -0.1104
 6284TIP3    H218817   1.997   1.892   5.589 -0.4255 -0.0892  0.1176
 6285TIP3   OH218818   3.263   2.639   2.386  0.3072 -0.1945  0.5007
 6285TIP3    H118819   3.188   2.582   2.368  0.1499  0.4639 -1.0843
 6285TIP3    H218820   3.303   2.653   2.301  0.9194  1.2836  1.0067
 6286TIP3   OH218821   1.293   6.007   4.718  0.0464 -0.2980  0.5690
 6286TIP3    H118822   1.309   6.064   4.643 -0.2405 -1.0582 -0.0816
 6286TIP3    H218823   1.233   6.057   4.773 -0.2200  0.0324 -0.0067
 6287TIP3   OH218824   2.689   5.141   4.107  0.2729  0.3417 -0.1186
 6287TIP3    H118825   2.639   5.083   4.164 -0.3346  1.5534  0.5959
 6287TIP3    H218826   2.646   5.134   4.022  0.6303 -0.7638 -0.2364
 6288TIP3   OH218827   4.872   5.052   0.987  0.0895  0.2601 -0.0999
 6288TIP3    H118828   4.966   5.034   0.981  0.1409 -0.7557  2.4824
 6288TIP3    H218829   4.839   5.037   0.898  2.1452 -0.6654 -0.7735
 6289TIP3   OH218830   6.805   5.620   3.095  0.0353  0.3951  0.2072
 6289TIP3    H118831   6.734   5.655   3.149 -0.2326 -0.4893  0.4469
 6289TIP3    H218832   6.767   5.542   3.054  0.7685  0.0952  0.0939
 6290TIP3   OH218833   6.585   3.765   0.241  0.3190  0.0443  0.1176
 6290TIP3    H118834   6.660   3.722   0.201 -0.1391 -0.7021  0.0554
 6290TIP3    H218835   6.591   3.856   0.211  0.7747 -0.1840 -0.4996
 6291TIP3   OH218836   5.721   6.177   3.841 -0.1005  0.1652  0.4574
 6291TIP3    H118837   5.743   6.255   3.892 -1.3156 -0.3873  1.8780
 6291TIP3    H218838   5.782   6.110   3.872 -0.0706  0.1343  0.3341
 6292TIP3   OH218839   1.576   1.527   5.422 -0.8126  0.4714 -0.2930
 6292TIP3    H118840   1.578   1.449   5.478  1.1256 -0.4964 -1.6180
 6292TIP3    H218841   1.639   1.587   5.462 -0.5982  0.4240 -0.5602
 6293TIP3   OH218842   0.563   6.448   1.224  0.2002 -0.2441 -0.6060
 6293TIP3    H118843   0.541   6.481   1.311  0.5879 -1.8449  0.1377
 6293TIP3    H218844   0.634   6.385   1.239  0.9608  0.1693 -2.2054
 6294TIP3   OH218845   3.382   4.323   2.555 -0.5610 -0.0176  1.2726
 6294TIP3    H118846   3.472   4.302   2.580 -0.7799 -1.0129  1.2571
 6294TIP3    H218847   3.383   4.417   2.539  0.3182  0.1013  1.9489
 6295TIP3   OH218848   1.748   3.725   2.506  0.2369  0.6603 -0.2407
 6295TIP3    H118849   1.826   3.701   2.456 -0.1169 -0.3823 -0.3335
 6295TIP3    H218850   1.782   3.756   2.590  0.7442 -1.0665  0.2419
 6296TIP3   OH218851   6.316   1.843   3.248 -0.1942  0.3429  0.2132
 6296TIP3    H118852   6.226   1.825   3.275  0.0598 -2.3249 -0.4549
 6296TIP3    H218853   6.308   1.908   3.178 -1.5640  0.1924  0.2034
 6297TIP3   OH218854   4.772   6.380   4.679 -0.2468  0.1810  0.2156
 6297TIP3    H118855   4.754   6.450   4.742  0.3270 -0.2287  0.8455
 6297TIP3    H218856   4.828   6.421   4.613  0.9126  0.0900  1.1004
 6298TIP3   OH218857   6.303   3.791   5.802  0.3279  0.6798 -0.8459
 6298TIP3    H118858   6.292   3.816   5.710 -1.7655 -0.9336 -1.1002
 6298TIP3    H218859   6.243   3.847   5.850  0.3812  0.5657 -0.6440
 6299TIP3   OH218860   3.640   0.626   4.245 -0.2537  0.2962  0.1604
 6299TIP3    H118861   3.551   0.644   4.275 -1.0653 -3.8407  0.8963
 6299TIP3    H218862   3.696   0.673   4.306 -1.7945  3.2450 -0.4885
 6300TIP3   OH218863   3.181   2.022   5.614  0.0249 -0.2607  0.1120
 6300TIP3    H118864   3.248   2.090   5.618  1.0909 -1.3305  1.0018
 6300TIP3    H218865   3.099   2.070   5.601  1.1004  0.9994 -3.1268
 6301TIP3   OH218866   6.020   1.223   1.521 -0.4221  0.1672 -0.2877
 6301TIP3    H118867   5.996   1.193   1.433 -1.0220 -0.2862  0.0243
 6301TIP3    H218868   6.039   1.316   1.510  1.2254 -0.2440 -1.2276
 6302TIP3   OH218869   0.397   2.187   0.867  0.1867 -0.2340  0.5012
 6302TIP3    H118870   0.487   2.154   0.870 -0.1188 -1.3595 -1.2878
 6302TIP3    H218871   0.343   2.109   0.885 -0.5034 -0.4588 -2.1891
 6303TIP3   OH218872   0.107   3.335   4.547  0.3942 -0.3385 -0.0110
 6303TIP3    H118873   0.153   3.379   4.618 -0.5852 -1.4556  1.3840
 6303TIP3    H218874   0.075   3.405   4.491 -0.8831  0.7417  1.9732
 6304TIP3   OH218875   3.040   4.033   3.970  0.7019  0.2653 -0.6030
 6304TIP3    H118876   3.113   3.990   3.924  0.5236 -0.5586 -0.1437
 6304TIP3    H218877   3.069   4.123   3.982  2.5323 -0.4901  1.3131
 6305TIP3   OH218878   4.113   1.178   0.651 -0.0562  0.4738 -0.8603
 6305TIP3    H118879   4.052   1.233   0.701  1.6110  2.1325 -0.5480
 6305TIP3    H218880   4.111   1.093   0.695 -1.0515  0.9216  0.0097
 6306TIP3   OH218881   1.290   5.710   2.749 -0.1637  0.0145  0.0170
 6306TIP3    H118882   1.198   5.708   2.724 -0.1586 -1.0007  0.0095
 6306TIP3    H218883   1.303   5.796   2.788 -0.8749  0.5366 -0.8465
 6307TIP3   OH218884   1.240   4.744   4.313  0.6127 -0.6775 -0.5487
 6307TIP3    H118885   1.161   4.764   4.263 -1.0174 -1.9700  1.3655
 6307TIP3    H218886   1.233   4.798   4.392  2.4112  0.2574 -0.9596
 6308TIP3   OH218887   6.271   5.768   0.992 -0.2277 -0.8322 -0.3397
 6308TIP3    H118888   6.194   5.714   1.007 -0.5591 -0.0738  0.8076
 6308TIP3    H218889   6.262   5.840   1.054  0.5440  0.1818 -1.3712
 6309TIP3   OH218890   2.486   4.542   3.920 -0.3620  0.1939  0.1249
 6309TIP3    H118891   2.533   4.474   3.968  0.9454  1.6647  1.0478
 6309TIP3    H218892   2.471   4.506   3.833  1.1860 -0.8938  0.2820
 6310TIP3   OH218893   5.958   6.481   0.472  0.0270  0.8065  0.0980
 6310TIP3    H118894   6.024   6.471   0.540 -1.8859 -0.3222  1.9183
 6310TIP3    H218895   5.876   6.490   0.520 -1.4319 -0.2217 -2.0545
 6311TIP3   OH218896   4.973   0.819   4.505  0.0967 -0.4127 -0.2653
 6311TIP3    H118897   4.995   0.822   4.598  1.4052 -4.3594 -0.2608
 6311TIP3    H218898   4.880   0.842   4.501 -0.5912 -2.2636  2.3809
 6312TIP3   OH218899   6.327   1.306   1.657 -0.4969  0.2255  0.0230
 6312TIP3    H118900   6.247   1.346   1.622 -2.0253 -0.8204  2.0866
 6312TIP3    H218901   6.369   1.267   1.581 -0.7199  2.7090 -1.5008
 6313TIP3   OH218902   0.376   6.421   2.538 -0.6260 -0.0656 -0.1613
 6313TIP3    H118903   0.447   6.359   2.524 -1.0626 -0.6374  0.1182
 6313TIP3    H218904   0.304   6.390   2.482 -1.8924 -1.5722  2.1509
 6314TIP3   OH218905   4.611   3.233   1.739 -0.0270  0.4771  0.2416
 6314TIP3    H118906   4.529   3.216   1.786  0.9936  0.6063  2.1931
 6314TIP3    H218907   4.671   3.166   1.771  1.1627  1.5628  0.3440
 6315TIP3   OH218908   1.867   2.611   4.863 -0.4145 -0.4614 -0.7820
 6315TIP3    H118909   1.942   2.613   4.922 -0.5981 -0.3984 -0.5508
 6315TIP3    H218910   1.879   2.688   4.807 -1.6747  1.0832  0.9504
 6316TIP3   OH218911   2.159   6.145   2.452  0.5317 -0.2884  0.0073
 6316TIP3    H118912   2.179   6.119   2.362  0.1885  1.1770 -0.5283
 6316TIP3    H218913   2.084   6.205   2.443  1.2741  0.8589  1.1248
 6317TIP3   OH218914   3.297   2.644   1.460 -0.4955 -0.1333  0.3882
 6317TIP3    H118915   3.359   2.578   1.428 -2.0967 -2.5874  1.9284
 6317TIP3    H218916   3.326   2.663   1.549 -0.7115  0.3678  0.3553
 6318TIP3   OH218917   0.864   2.398   0.284 -0.0288  0.0068  0.2828
 6318TIP3    H118918   0.810   2.340   0.231  0.1631 -0.1965  0.3081
 6318TIP3    H218919   0.921   2.340   0.334  1.6592  0.2272 -1.2775
 6319TIP3   OH218920   4.108   0.471   2.741 -0.0450  0.0916  0.3992
 6319TIP3    H118921   4.146   0.548   2.698  1.9802 -1.0415  0.0835
 6319TIP3    H218922   4.065   0.507   2.819 -1.7122  1.8873 -1.1946
 6320TIP3   OH218923   5.330   4.657   3.561 -0.0694  0.0759  0.0665
 6320TIP3    H118924   5.312   4.709   3.640 -0.8423 -0.2143  0.0911
 6320TIP3    H218925   5.275   4.696   3.494  0.2759  0.0546 -0.2323
 6321TIP3   OH218926   5.726   5.739   3.606 -0.2508  0.1063 -0.0446
 6321TIP3    H118927   5.686   5.795   3.673  3.3253  0.4878  2.0543
 6321TIP3    H218928   5.716   5.650   3.639  1.1400  0.2599  0.8493
 6322TIP3   OH218929   1.817   6.412   5.830  0.5942  0.1420  0.0607
 6322TIP3    H118930   1.738   6.366   5.800  1.3989 -0.4564 -1.1873
 6322TIP3    H218931   1.786   6.500   5.850 -0.6321 -0.4211  0.7960
 6323TIP3   OH218932   3.268   3.157   2.828 -0.4452  0.4463 -0.0053
 6323TIP3    H118933   3.205   3.213   2.782 -0.8499  0.4130  0.4835
 6323TIP3    H218934   3.328   3.127   2.761 -1.8489 -0.7482 -0.7866
 6324TIP3   OH218935   6.578   4.939   4.797  0.3313 -0.8378 -0.2892
 6324TIP3    H118936   6.541   4.967   4.880 -2.0533 -1.6383 -1.0101
 6324TIP3    H218937   6.603   5.020   4.753  0.9871 -0.3785  0.8958
 6325TIP3   OH218938   4.083   3.436   3.037  0.3445 -0.1069 -0.3045
 6325TIP3    H118939   3.996   3.401   3.056 -0.1323  0.1213 -1.9141
 6325TIP3    H218940   4.072   3.531   3.036  0.8105 -0.0454  0.3805
 6326TIP3   OH218941   6.892   5.486   3.690 -0.7107  0.2150 -0.0639
 6326TIP3    H118942   6.889   5.559   3.630 -0.1307  1.6164  1.5387
 6326TIP3    H218943   6.823   5.426   3.658 -0.3890  0.8533 -2.0846
 6327TIP3   OH218944   1.976   4.171   4.390 -0.0824 -0.0598  0.3452
 6327TIP3    H118945   1.997   4.112   4.462  1.2877  0.1747  0.1768
 6327TIP3    H218946   1.982   4.117   4.312  1.3024  0.2854  0.1796
 6328TIP3   OH218947   6.126   3.347   3.338 -0.1449 -0.2102 -0.2547
 6328TIP3    H118948   6.074   3.380   3.411 -1.7937 -0.8337 -1.1027
 6328TIP3    H218949   6.063   3.332   3.268  1.3808  0.3124 -1.8134
 6329TIP3   OH218950   4.980   5.218   5.725  0.2594 -0.2074 -0.6248
 6329TIP3    H118951   4.903   5.208   5.782 -0.5673 -1.5418 -1.9163
 6329TIP3    H218952   4.963   5.159   5.652  1.3752  1.3368 -2.1900
 6330TIP3   OH218953   6.501   6.777   0.771  0.2893  0.3837 -0.0685
 6330TIP3    H118954   6.447   6.773   0.692  3.1082  1.6990 -2.2408
 6330TIP3    H218955   6.492   6.690   0.810 -2.6620  0.2903 -0.7050
 6331TIP3   OH218956   0.593   1.818   4.508 -0.0343 -0.1451 -0.1513
 6331TIP3    H118957   0.670   1.777   4.468  0.1865 -1.1289  1.2341
 6331TIP3    H218958   0.623   1.847   4.594 -1.6377 -2.1981  1.1800
 6332TIP3   OH218959   7.097   3.406   2.091 -0.2111  0.2851  0.1475
 6332TIP3    H118960   7.072   3.473   2.027 -1.0880 -0.2153 -0.0619
 6332TIP3    H218961   7.138   3.337   2.038 -3.8307 -1.6335 -0.4743
 6333TIP3   OH218962   6.993   4.363   3.064  0.4102 -0.2469  0.5333
 6333TIP3    H118963   6.965   4.303   3.133  1.8925 -0.0578  1.3351
 6333TIP3    H218964   7.075   4.400   3.096  1.4328 -0.5545 -1.5691
 6334TIP3   OH218965   3.458   5.650   1.047 -0.2316 -0.2851  0.3011
 6334TIP3    H118966   3.531   5.696   1.007 -2.0174  1.9301 -0.6471
 6334TIP3    H218967   3.498   5.586   1.105  2.4254  0.7785 -0.2441
 6335TIP3   OH218968   6.353   5.986   3.460 -0.1260  0.0898 -0.4212
 6335TIP3    H118969   6.288   5.979   3.391 -0.1738 -0.4401 -0.3266
 6335TIP3    H218970   6.307   5.960   3.540  0.4931 -1.4596 -0.5336
 6336TIP3   OH218971   5.239   2.995   0.602 -0.7341  0.1424  0.7921
 6336TIP3    H118972   5.187   2.995   0.521  0.6643 -0.7400 -0.1424
 6336TIP3    H218973   5.316   2.943   0.581  0.0179  0.5137  2.4895
 6337TIP3   OH218974   3.970   5.551   0.173 -0.2732  0.3298  0.2208
 6337TIP3    H118975   4.028   5.507   0.110 -1.5454 -1.0222 -0.0710
 6337TIP3    H218976   3.887   5.561   0.125 -1.6920 -1.9000  2.0265
 6338TIP3   OH218977   2.432   0.866   2.409 -0.1846 -0.2955 -0.9583
 6338TIP3    H118978   2.422   0.953   2.370 -1.0866  0.6649  1.2564
 6338TIP3    H218979   2.527   0.855   2.419  0.0409 -0.3366 -2.7860
 6339TIP3   OH218980   2.458   2.178   0.657 -0.6171  0.1563 -0.1033
 6339TIP3    H118981   2.436   2.090   0.690 -0.6523  0.0143 -0.5055
 6339TIP3    H218982   2.545   2.195   0.693 -0.0112 -0.6203 -1.1487
 6340TIP3   OH218983   2.126   5.579   5.622 -0.3334 -0.1457  0.1516
 6340TIP3    H118984   2.215   5.545   5.624 -0.2700 -0.0929 -0.9902
 6340TIP3    H218985   2.136   5.672   5.603 -0.5925  0.1021  1.1904
 6341TIP3   OH218986   1.711   3.051   4.726  0.2426  0.0676  0.2449
 6341TIP3    H118987   1.666   2.982   4.677  1.5857 -0.4464 -0.3366
 6341TIP3    H218988   1.723   3.122   4.662  0.1937  0.2316  0.4152
 6342TIP3   OH218989   3.736   3.284   5.850  0.2314 -0.6582  0.3910
 6342TIP3    H118990   3.673   3.240   5.906 -0.5833 -1.4272 -1.0627
 6342TIP3    H218991   3.700   3.372   5.838 -0.8323 -1.2286 -0.7785
 6343TIP3   OH218992   2.530   2.089   2.878 -0.1406  0.2991  0.3792
 6343TIP3    H118993   2.581   2.022   2.832  0.7709  0.0981  1.6433
 6343TIP3    H218994   2.560   2.172   2.840 -0.7474  0.0511 -0.6753
 6344TIP3   OH218995   3.338   4.577   1.243 -0.4844  0.3116  0.5820
 6344TIP3    H118996   3.243   4.586   1.239 -0.6448 -1.2336  0.0888
 6344TIP3    H218997   3.368   4.598   1.155 -0.4632 -0.0346  0.5054
 6345TIP3   OH218998   1.073   3.448   2.024 -0.0401  0.5430 -0.4044
 6345TIP3    H118999   1.026   3.482   1.948 -1.1837  3.0965  1.2964
 6345TIP3    H219000   1.045   3.505   2.096  2.4359 -0.5635  1.5533
 6346TIP3   OH219001   5.526   1.737   4.738 -0.3473  0.2049 -0.1242
 6346TIP3    H119002   5.578   1.659   4.719  1.4017  0.9290  1.3651
 6346TIP3    H219003   5.587   1.810   4.729 -2.0387  1.5029 -1.8578
 6347TIP3   OH219004   3.622   0.041   4.842  0.0514  0.8205 -0.0688
 6347TIP3    H119005   3.631   0.067   4.750 -0.1667 -0.7786 -0.5728
 6347TIP3    H219006   3.648  -0.051   4.843  0.4592  0.9300  1.5637
 6348TIP3   OH219007   4.998   2.966   3.827 -0.5312  0.0188 -0.3531
 6348TIP3    H119008   5.080   2.920   3.845 -1.2306 -1.0861  0.1660
 6348TIP3    H219009   5.019   3.028   3.757  0.9988  0.5546  0.5441
 6349TIP3   OH219010   5.464   3.318   0.119 -0.0051 -1.0394  0.0429
 6349TIP3    H119011   5.369   3.312   0.108  0.1105 -1.0226 -1.1244
 6349TIP3    H219012   5.500   3.271   0.044  0.9150 -1.1985  0.5648
 6350TIP3   OH219013   1.886   4.778   1.127 -0.1215 -0.0726 -0.1380
 6350TIP3    H119014   1.965   4.819   1.092 -0.5003  1.2895  0.5158
 6350TIP3    H219015   1.870   4.824   1.210 -2.9370  1.4429 -1.3817
 6351TIP3   OH219016   4.508   3.792   1.500  0.6409  0.6443 -0.3676
 6351TIP3    H119017   4.589   3.774   1.548 -0.2810  0.2037  1.0894
 6351TIP3    H219018   4.446   3.820   1.567 -1.0237 -1.0234 -1.1115
 6352TIP3   OH219019   1.575   6.757   0.332  0.7693  0.4690  0.0761
 6352TIP3    H119020   1.532   6.821   0.274  3.0658  1.8294 -0.2375
 6352TIP3    H219021   1.622   6.699   0.272 -1.3011 -1.6758  0.3582
 6353TIP3   OH219022   4.546   1.418   1.022 -0.0307  0.3503 -0.0799
 6353TIP3    H119023   4.597   1.483   1.070  0.6125 -0.3346  0.1999
 6353TIP3    H219024   4.455   1.446   1.031  0.3163  1.7830 -0.8692
 6354TIP3   OH219025   3.730   0.444   5.001 -0.0483 -0.1677 -0.3435
 6354TIP3    H119026   3.814   0.405   4.980 -0.1552  0.2293 -1.5772
 6354TIP3    H219027   3.729   0.527   4.954 -1.3457 -0.4148 -0.8168
 6355TIP3   OH219028   0.966   3.405   2.317 -0.2260  0.1674 -0.3537
 6355TIP3    H119029   0.909   3.372   2.247  0.7388 -1.2738 -0.5160
 6355TIP3    H219030   1.033   3.337   2.325 -0.5131  0.1220  2.2341
 6356TIP3   OH219031   1.503   6.541   0.624 -0.2553  0.2931 -0.3231
 6356TIP3    H119032   1.516   6.520   0.531  0.9558 -0.7471  0.0527
 6356TIP3    H219033   1.451   6.468   0.658  0.6981 -0.1777  0.1581
 6357TIP3   OH219034   2.885   1.425   4.052 -0.4660 -0.3136 -0.0647
 6357TIP3    H119035   2.797   1.433   4.089 -1.0650  0.1237 -1.4954
 6357TIP3    H219036   2.942   1.413   4.127 -1.3264  2.6629  1.2358
 6358TIP3   OH219037   2.092   0.466   3.931 -0.6492 -0.4761  0.2676
 6358TIP3    H119038   2.118   0.554   3.960 -0.4376 -0.8322  1.1917
 6358TIP3    H219039   1.996   0.467   3.935 -0.6478 -0.2826  0.2691
 6359TIP3   OH219040   4.436   6.574   1.798  0.6313  0.0416 -0.3789
 6359TIP3    H119041   4.345   6.555   1.774  1.4988 -1.6640 -2.6623
 6359TIP3    H219042   4.446   6.534   1.884 -0.0184 -2.5747 -1.4039
 6360TIP3   OH219043   1.852   4.494   3.470  0.8715  0.7859  0.4371
 6360TIP3    H119044   1.772   4.545   3.486  0.0492 -0.7606  1.5947
 6360TIP3    H219045   1.856   4.484   3.375 -1.4846 -0.7776  0.4024
 6361TIP3   OH219046   5.968   3.881   5.738  0.3042 -0.5904 -0.2803
 6361TIP3    H119047   6.011   3.795   5.730  1.3560 -0.2158  0.9043
 6361TIP3    H219048   6.040   3.941   5.758 -0.3843  0.6293 -1.3467
 6362TIP3   OH219049  -0.012   3.722   1.419 -0.7841 -0.1704 -0.1487
 6362TIP3    H119050   0.044   3.647   1.438  0.9055  1.1687  0.3782
 6362TIP3    H219051  -0.008   3.731   1.324 -0.4601 -0.3484 -0.1533
 6363TIP3   OH219052   6.072   2.704   3.942  0.6339  0.6107 -1.5234
 6363TIP3    H119053   6.097   2.686   3.851  0.1060  0.5336 -1.6542
 6363TIP3    H219054   6.006   2.773   3.935  0.9265  0.9291 -1.1659
 6364TIP3   OH219055   5.415   6.780   4.500 -0.0116  0.0001  0.4155
 6364TIP3    H119056   5.506   6.752   4.510  0.4491  1.5683  0.9315
 6364TIP3    H219057   5.410   6.811   4.409 -0.1543 -0.4778  0.2577
 6365TIP3   OH219058   5.509   4.646   4.789  0.3694 -0.2479  0.5419
 6365TIP3    H119059   5.427   4.656   4.740  0.2347  0.3165  0.8591
 6365TIP3    H219060   5.578   4.646   4.723  0.0668 -1.6594  0.1952
 6366TIP3   OH219061   0.127   3.511   2.778 -0.1684  0.3959  0.0678
 6366TIP3    H119062   0.086   3.569   2.714  1.4923  2.2075  0.5359
 6366TIP3    H219063   0.193   3.565   2.820  0.0145 -1.2557  2.0806
 6367TIP3   OH219064   3.686   5.768   5.121 -0.1424  0.4433  0.0997
 6367TIP3    H119065   3.762   5.712   5.104 -0.2426 -0.0890  1.3174
 6367TIP3    H219066   3.628   5.753   5.046 -0.2785 -1.3050  0.5075
 6368TIP3   OH219067   6.969   2.860   5.866  0.1438  0.0928  0.0112
 6368TIP3    H119068   7.051   2.887   5.824 -0.2668 -1.0819 -1.6856
 6368TIP3    H219069   6.983   2.876   5.959  2.1662  0.2337 -0.2654
 6369TIP3   OH219070   1.338   6.247   4.533 -0.5652 -0.0197 -0.3006
 6369TIP3    H119071   1.246   6.251   4.507 -0.7181 -1.6583 -0.0629
 6369TIP3    H219072   1.386   6.254   4.450 -1.0339 -4.3314 -1.1456
 6370TIP3   OH219073   6.576   5.351   0.692  0.2752 -0.1112 -0.3336
 6370TIP3    H119074   6.484   5.350   0.720  0.4007 -1.0608  0.0753
 6370TIP3    H219075   6.626   5.346   0.773  0.6466 -2.2154 -0.6275
 6371TIP3   OH219076   4.330   2.073   2.964 -0.0242  0.4655  0.0091
 6371TIP3    H119077   4.266   2.142   2.946  0.9745  0.7426 -3.0490
 6371TIP3    H219078   4.315   2.007   2.896  2.2268  0.0649 -0.1926
 6372TIP3   OH219079   2.451   3.055   2.650  0.6089  0.4793  0.1743
 6372TIP3    H119080   2.437   3.146   2.623  2.0374  0.6269 -0.1366
 6372TIP3    H219081   2.412   3.003   2.580 -0.5092  0.8437  0.5141
 6373TIP3   OH219082   2.207   1.521   3.773  0.6331  0.3521 -0.0891
 6373TIP3    H119083   2.151   1.535   3.849  0.8845  0.1003  0.1414
 6373TIP3    H219084   2.237   1.609   3.750  0.4464  0.4445  0.0160
 6374TIP3   OH219085   4.993   2.590   4.670 -0.0217  1.1367 -0.2189
 6374TIP3    H119086   4.920   2.652   4.671 -1.9412 -1.0018  0.5979
 6374TIP3    H219087   5.052   2.622   4.738  0.3924  3.4411 -1.5261
 6375TIP3   OH219088   6.509   4.017   0.137  0.0844 -0.2723 -0.0176
 6375TIP3    H119089   6.449   3.980   0.072 -0.5370  2.5147 -1.1652
 6375TIP3    H219090   6.478   4.107   0.150  0.7372 -0.4099  3.5234
 6376TIP3   OH219091   3.099   3.337   2.706  0.4520 -0.0446  0.0640
 6376TIP3    H119092   3.167   3.402   2.724 -0.3025  0.8542 -0.2227
 6376TIP3    H219093   3.018   3.379   2.735 -0.2663 -0.1656 -1.6636
 6377TIP3   OH219094   1.594   2.658   4.920  0.2489 -0.6163 -0.3853
 6377TIP3    H119095   1.601   2.684   5.012 -2.5728 -0.5741 -0.0927
 6377TIP3    H219096   1.684   2.648   4.891  1.2345 -0.3165  2.2929
 6378TIP3   OH219097   3.130   0.854   5.447 -0.0688 -0.3266  0.3283
 6378TIP3    H119098   3.161   0.891   5.530 -0.3810 -0.4078  0.4835
 6378TIP3    H219099   3.117   0.761   5.465 -1.5297 -0.0920  0.6099
 6379TIP3   OH219100   4.563   4.322   0.302  0.6495 -0.1609 -0.5281
 6379TIP3    H119101   4.512   4.403   0.294  2.1036  0.7173 -1.3191
 6379TIP3    H219102   4.595   4.305   0.213  0.9046 -1.2522 -0.2442
 6380TIP3   OH219103   4.766   5.194   2.550  0.1150  0.3708  0.0845
 6380TIP3    H119104   4.703   5.133   2.512  1.3806 -2.3119  1.9556
 6380TIP3    H219105   4.836   5.138   2.585  1.7784  2.9695  1.2639
 6381TIP3   OH219106   1.971   5.304   4.755  0.5237 -0.0609  0.7613
 6381TIP3    H119107   1.910   5.332   4.823 -1.5287 -0.5921 -0.7451
 6381TIP3    H219108   1.988   5.383   4.704 -2.2111 -0.5716 -1.1880
 6382TIP3   OH219109   4.150   3.463   4.201 -0.1339 -0.2907 -0.2015
 6382TIP3    H119110   4.092   3.539   4.204 -0.6150 -0.6834  1.1508
 6382TIP3    H219111   4.096   3.392   4.165 -0.4582 -0.6087  0.8808
 6383TIP3   OH219112   1.906   5.696   4.410 -0.2576  0.0586  0.0615
 6383TIP3    H119113   1.968   5.639   4.364  0.0707 -1.0698  1.7988
 6383TIP3    H219114   1.908   5.778   4.361 -0.7408 -1.3646 -2.5629
 6384TIP3   OH219115   0.777   0.943   4.241 -0.4979 -0.2144 -0.6400
 6384TIP3    H119116   0.823   0.996   4.175  0.2950 -0.2452 -0.1281
 6384TIP3    H219117   0.839   0.937   4.314 -1.1492 -0.6432 -0.1121
 6385TIP3   OH219118   6.459   5.438   3.417  0.1990  0.1804 -0.0450
 6385TIP3    H119119   6.454   5.414   3.510  2.0450  2.0586  0.6096
 6385TIP3    H219120   6.379   5.488   3.401  0.3175  0.6685  0.8183
 6386TIP3   OH219121   6.693   6.501   5.584  0.6738 -0.0158  0.5001
 6386TIP3    H119122   6.692   6.586   5.627  3.4883  0.9807 -1.1966
 6386TIP3    H219123   6.753   6.448   5.637  1.3442  0.0747 -0.1533
 6387TIP3   OH219124   2.369   4.444   5.735  0.4263  0.1346 -0.4442
 6387TIP3    H119125   2.313   4.509   5.692 -0.2809 -0.4996 -0.4972
 6387TIP3    H219126   2.441   4.495   5.772 -0.4500  1.0315  0.0709
 6388TIP3   OH219127   3.008   2.826   2.084  0.0086 -0.2058 -0.4220
 6388TIP3    H119128   3.066   2.794   2.153 -0.4881 -0.1079  0.0482
 6388TIP3    H219129   3.049   2.908   2.055 -0.8053  0.8182  1.1502
 6389TIP3   OH219130   0.146   0.280   1.694  0.0608  0.1400 -0.4630
 6389TIP3    H119131   0.078   0.305   1.757  0.1849  1.2212 -0.7515
 6389TIP3    H219132   0.105   0.212   1.640 -0.8710  0.9249 -0.7687
 6390TIP3   OH219133   6.387   5.096   1.741  0.0878 -0.2537 -0.4164
 6390TIP3    H119134   6.295   5.072   1.733 -0.1054  0.4950 -0.6067
 6390TIP3    H219135   6.433   5.036   1.683 -0.1676 -1.2091  0.3490
 6391TIP3   OH219136   3.072   0.040   1.713  0.3550 -0.6480 -0.2324
 6391TIP3    H119137   3.163   0.038   1.681  0.2678 -1.3114 -0.4445
 6391TIP3    H219138   3.066   0.123   1.761  0.7808 -0.1029 -1.0833
 6392TIP3   OH219139   4.471   4.302   2.923 -0.0154 -0.1590  0.0727
 6392TIP3    H119140   4.435   4.351   2.997 -0.9339  0.7775 -0.9499
 6392TIP3    H219141   4.438   4.213   2.935 -0.1933 -0.0097  0.7480
 6393TIP3   OH219142   0.887   3.342   0.427  0.0384  0.7203  0.3380
 6393TIP3    H119143   0.885   3.410   0.494  1.2021  1.5181 -0.3805
 6393TIP3    H219144   0.816   3.364   0.367 -0.2347  0.7128  0.6622
 6394TIP3   OH219145   1.626   5.359   1.002 -0.0972  0.0199 -0.5638
 6394TIP3    H119146   1.670   5.278   1.029 -1.2424 -0.1955  0.7339
 6394TIP3    H219147   1.533   5.337   1.001 -0.3164  0.8644 -1.8925
 6395TIP3   OH219148   3.750   1.798   1.449  0.3258  0.4810 -0.2743
 6395TIP3    H119149   3.690   1.840   1.388  0.7147 -0.6267 -1.4671
 6395TIP3    H219150   3.836   1.809   1.410  0.6143  0.0033  0.2110
 6396TIP3   OH219151   5.613   2.471   5.276 -0.2098 -0.6618  0.1053
 6396TIP3    H119152   5.584   2.478   5.366 -0.0460 -1.3946  0.2214
 6396TIP3    H219153   5.676   2.399   5.276 -0.4530 -0.8900 -0.6480
 6397TIP3   OH219154   2.643   0.679   0.075 -0.5400 -0.3335 -0.5419
 6397TIP3    H119155   2.621   0.587   0.088  0.9043 -0.6928 -0.4180
 6397TIP3    H219156   2.560   0.722   0.057 -1.2567 -1.6331 -0.4273
 6398TIP3   OH219157   4.944   5.811   2.170  0.1293 -0.2510  0.1151
 6398TIP3    H119158   5.035   5.811   2.201  0.4530  3.2350 -0.4027
 6398TIP3    H219159   4.951   5.818   2.075 -0.6989 -0.0622  0.0610
 6399TIP3   OH219160   7.009   6.685   0.080  0.1361 -0.0549 -0.1171
 6399TIP3    H119161   7.015   6.609   0.138 -2.0644  0.3671  0.7886
 6399TIP3    H219162   7.063   6.662   0.005 -0.1063 -2.3620  0.3252
 6400TIP3   OH219163   5.902   4.914   0.163  0.6245 -0.4192 -0.3220
 6400TIP3    H119164   5.993   4.891   0.146  0.2932 -0.9673 -1.4464
 6400TIP3    H219165   5.852   4.838   0.132 -0.2035 -0.2321  0.5147
 6401TIP3   OH219166   0.920   4.106   4.007  0.3086  0.3480  0.3995
 6401TIP3    H119167   0.845   4.048   4.019  1.2689 -1.0769 -0.1825
 6401TIP3    H219168   0.932   4.149   4.091 -1.6744  1.2766  0.2601
 6402TIP3   OH219169   0.067   2.685   0.979  0.4443 -0.6087 -0.3093
 6402TIP3    H119170   0.020   2.708   0.899 -1.0916 -0.2631  0.6597
 6402TIP3    H219171   0.120   2.762   0.998  0.6036 -0.5835 -0.8258
 6403TIP3   OH219172   3.318   2.115   3.334  0.1688 -0.4303 -0.1578
 6403TIP3    H119173   3.228   2.113   3.302  0.2223 -0.1161 -0.3273
 6403TIP3    H219174   3.332   2.206   3.362  0.3014 -0.5707  0.2401
 6404TIP3   OH219175   6.047   4.413   3.673  0.2428 -0.8542 -0.1867
 6404TIP3    H119176   6.007   4.491   3.636 -0.3540 -0.2524  1.6009
 6404TIP3    H219177   5.992   4.341   3.643  0.0438 -0.4529 -0.8082
 6405TIP3   OH219178   2.279   2.833   2.104 -0.3370 -0.0061  0.3900
 6405TIP3    H119179   2.247   2.922   2.093 -1.7413 -0.5940 -0.6313
 6405TIP3    H219180   2.352   2.826   2.042  0.8432  0.8816  1.6263
 6406TIP3   OH219181   6.989   4.636   2.220  0.7528  0.3916 -0.2746
 6406TIP3    H119182   6.984   4.731   2.206  0.5887  0.1882 -1.7655
 6406TIP3    H219183   6.922   4.600   2.161 -0.5736 -0.5627  1.6930
 6407TIP3   OH219184   4.907   0.391   0.008 -0.1852  0.1061 -0.0078
 6407TIP3    H119185   4.835   0.369  -0.052  0.6446  1.1350 -1.4237
 6407TIP3    H219186   4.863   0.425   0.086 -1.2563  0.0650 -0.5729
 6408TIP3   OH219187   6.727   1.290   0.671  0.2936  0.1373 -0.0417
 6408TIP3    H119188   6.770   1.319   0.590 -0.6967  0.9373 -0.2980
 6408TIP3    H219189   6.709   1.197   0.656  3.9759 -0.8991  0.9860
 6409TIP3   OH219190   7.106   6.701   5.066 -0.1078  0.3393  0.1758
 6409TIP3    H119191   7.036   6.649   5.028  0.6490 -0.0747 -0.6810
 6409TIP3    H219192   7.079   6.715   5.157 -0.6067 -1.0257  0.2582
 6410TIP3   OH219193   6.963   0.954   5.915  0.3523 -0.4991 -0.1755
 6410TIP3    H119194   6.904   0.996   5.853 -3.3017 -1.3486  2.3662
 6410TIP3    H219195   7.051   0.972   5.881 -1.0318  4.6596 -2.0151
 6411TIP3   OH219196   0.208   0.342   0.181 -0.2894 -0.1977 -0.1903
 6411TIP3    H119197   0.275   0.403   0.214 -2.4217  2.0599  0.3070
 6411TIP3    H219198   0.227   0.335   0.088 -0.1982  1.6407 -0.3613
 6412TIP3   OH219199   6.582   6.523   1.436 -0.4056 -0.3311 -0.3203
 6412TIP3    H119200   6.621   6.438   1.455 -1.7436 -1.2049 -1.2626
 6412TIP3    H219201   6.608   6.543   1.346  1.1350  1.0169  0.3702
 6413TIP3   OH219202   1.959   2.041   3.458  0.2071  0.2831 -0.2327
 6413TIP3    H119203   1.930   2.126   3.491  1.3084  0.0482  1.4470
 6413TIP3    H219204   2.045   2.027   3.498  0.5738 -1.0979 -1.4180
 6414TIP3   OH219205   0.463   3.211   1.915 -0.0029 -0.0261  0.1250
 6414TIP3    H119206   0.552   3.246   1.905  0.4115 -1.1586 -0.2831
 6414TIP3    H219207   0.465   3.163   1.997  0.4605 -2.0036 -0.9859
 6415TIP3   OH219208   1.162   3.404   0.407  0.1135 -0.6824 -0.2877
 6415TIP3    H119209   1.067   3.394   0.415  0.2103 -0.5264  1.5791
 6415TIP3    H219210   1.180   3.491   0.443  1.1658 -1.6120  1.5726
 6416TIP3   OH219211   0.592   2.613   3.903  0.4348 -0.0414 -0.4054
 6416TIP3    H119212   0.616   2.703   3.880 -1.1961  0.5109 -0.0544
 6416TIP3    H219213   0.674   2.574   3.933  1.1348  1.3952 -0.3231
 6417TIP3   OH219214   6.378   3.990   4.960 -0.4867 -0.2166  0.2443
 6417TIP3    H119215   6.363   3.900   4.988  1.4590 -0.9061 -0.7955
 6417TIP3    H219216   6.340   3.995   4.872  0.1041 -0.2489 -0.0135
 6418TIP3   OH219217   0.346   5.482   3.131 -0.0002  0.0588 -0.0199
 6418TIP3    H119218   0.317   5.493   3.222  0.9863 -2.4251  0.6840
 6418TIP3    H219219   0.282   5.531   3.079 -0.7057  1.3782  1.9861
 6419TIP3   OH219220   1.466   5.023   4.936 -0.3700  0.4456 -0.2878
 6419TIP3    H119221   1.413   5.053   5.010  0.1114  2.0059 -0.5456
 6419TIP3    H219222   1.556   5.046   4.960  0.1008 -1.2199 -0.3206
 6420TIP3   OH219223   3.775   5.593   4.134 -0.9461  0.3365  0.1286
 6420TIP3    H119224   3.795   5.568   4.224 -0.6473  1.0819  0.2767
 6420TIP3    H219225   3.853   5.640   4.104  0.1969 -2.4140 -1.5240
 6421TIP3   OH219226   7.089   1.087   4.510  0.1567 -0.2501 -0.7781
 6421TIP3    H119227   7.151   1.093   4.437  1.4366 -1.7014  0.1205
 6421TIP3    H219228   7.137   1.120   4.586  0.0185 -1.7382  0.0069
 6422TIP3   OH219229   5.653   2.306   0.854  0.2288  0.2779  0.0173
 6422TIP3    H119230   5.658   2.333   0.946 -0.6400 -1.6260  0.6741
 6422TIP3    H219231   5.560   2.305   0.834  0.4498  1.7300 -1.2608
 6423TIP3   OH219232   5.780   4.882   2.666 -0.5685 -0.6618  0.4619
 6423TIP3    H119233   5.698   4.882   2.615 -0.9646  0.4053  1.0647
 6423TIP3    H219234   5.828   4.958   2.634  0.3687 -1.4912 -0.1415
 6424TIP3   OH219235   4.103   0.262   3.325 -0.4781 -0.1171  0.1544
 6424TIP3    H119236   4.191   0.228   3.306 -0.5494  0.4071 -1.2138
 6424TIP3    H219237   4.117   0.353   3.349 -0.6196 -0.1233  0.2597
 6425TIP3   OH219238   3.459   6.333   0.083  0.1435 -0.4447  0.7140
 6425TIP3    H119239   3.477   6.297   0.170 -0.2967  1.3068  1.5892
 6425TIP3    H219240   3.371   6.370   0.090  0.3462  0.2756 -0.2857
 6426TIP3   OH219241   3.513   1.690   1.260  0.2473  0.0699  0.1981
 6426TIP3    H119242   3.466   1.757   1.209  2.0296  0.7073 -0.6765
 6426TIP3    H219243   3.507   1.721   1.351  0.7793  1.2632 -0.1571
 6427TIP3   OH219244   3.934   0.182   0.122  0.0539  0.2943 -0.1797
 6427TIP3    H119245   3.877   0.246   0.080 -2.1175 -0.7742  0.9531
 6427TIP3    H219246   3.932   0.207   0.215 -2.4969 -2.4369  0.6432
 6428TIP3   OH219247   6.981   4.631   4.260 -0.6791 -0.3767  0.7466
 6428TIP3    H119248   6.986   4.651   4.166  2.1416  1.7477  1.1851
 6428TIP3    H219249   6.970   4.716   4.302  1.2708 -0.8689  2.4236
 6429TIP3   OH219250   2.903   2.651   0.274 -0.2884 -0.8466 -0.5147
 6429TIP3    H119251   2.946   2.701   0.343 -2.9408  1.5333 -0.4219
 6429TIP3    H219252   2.949   2.567   0.273  0.8419 -0.4231  3.0614
 6430TIP3   OH219253   5.078   1.349   4.903 -0.3153  0.2420 -0.5578
 6430TIP3    H119254   4.992   1.390   4.915 -0.2442  0.1000  0.5324
 6430TIP3    H219255   5.101   1.315   4.989  0.9959  0.5752 -0.7539
 6431TIP3   OH219256   2.119   1.060   1.856 -0.2039  0.1487  0.1123
 6431TIP3    H119257   2.077   0.983   1.895  0.5381  0.1381  0.9349
 6431TIP3    H219258   2.209   1.032   1.841  0.0966  0.8852  0.5134
 6432TIP3   OH219259   1.096   0.324   3.535  0.5480 -0.2760 -0.1962
 6432TIP3    H119260   1.065   0.402   3.489  1.7590  0.9714  0.9807
 6432TIP3    H219261   1.041   0.320   3.613  0.6577 -0.4323 -0.1276
 6433TIP3   OH219262   3.820   0.438   1.858  0.1068  0.0996  0.1551
 6433TIP3    H119263   3.897   0.464   1.909  1.0751 -1.1038 -0.6237
 6433TIP3    H219264   3.757   0.508   1.873  1.2567  1.0019  1.0289
 6434TIP3   OH219265   1.106   4.750   5.123 -0.6157  0.0970 -0.0699
 6434TIP3    H119266   1.069   4.814   5.063 -0.6791  0.2959  0.1827
 6434TIP3    H219267   1.032   4.721   5.177 -0.4629  0.2804  0.2397
 6435TIP3   OH219268   2.782   0.347   5.834  0.4008  0.4694  0.1698
 6435TIP3    H119269   2.789   0.267   5.782 -1.2548  0.2561  0.2157
 6435TIP3    H219270   2.821   0.415   5.779  0.2269 -0.0543 -0.6185
 6436TIP3   OH219271   4.554   4.335   4.248 -0.2870 -0.3634 -0.2683
 6436TIP3    H119272   4.588   4.314   4.334  0.7027  0.9289 -0.3149
 6436TIP3    H219273   4.627   4.379   4.203 -1.4828  1.0129 -0.9491
 6437TIP3   OH219274   5.486   0.526   1.755  0.0912  0.1602 -0.2831
 6437TIP3    H119275   5.470   0.447   1.703  1.3887 -0.1443 -0.2796
 6437TIP3    H219276   5.537   0.583   1.697  0.8628  0.1491  0.3540
 6438TIP3   OH219277   2.550   5.944   3.475  0.3312 -0.4702  0.5909
 6438TIP3    H119278   2.635   5.971   3.509 -0.6111  2.9272  0.6899
 6438TIP3    H219279   2.568   5.908   3.389  1.8311  1.5640 -0.0221
 6439TIP3   OH219280   3.944   1.296   0.893  0.0807  0.1179  0.2170
 6439TIP3    H119281   3.864   1.346   0.912 -0.1992 -0.4553  0.5854
 6439TIP3    H219282   3.954   1.238   0.968  0.3092 -0.4957 -0.2805
 6440TIP3   OH219283   4.448   1.134   0.936  0.2565 -0.3804 -0.6786
 6440TIP3    H119284   4.481   1.208   0.885  1.8480  0.6424  1.6651
 6440TIP3    H219285   4.394   1.173   1.004  0.9167 -1.3811  0.4452
 6441TIP3   OH219286   3.121   3.767   1.672  0.1235  0.0493 -0.4077
 6441TIP3    H119287   3.158   3.846   1.634  0.5193  1.2779  2.2817
 6441TIP3    H219288   3.052   3.740   1.611 -0.0669  2.5037 -1.3719
 6442TIP3   OH219289   1.700   3.754   5.769 -0.1910 -0.0975  0.1134
 6442TIP3    H119290   1.699   3.813   5.694  3.2668  0.9213  0.6649
 6442TIP3    H219291   1.705   3.811   5.845 -0.4202 -1.1133  0.9147
 6443TIP3   OH219292   6.591   0.326   2.890  0.5136  0.1174  0.0739
 6443TIP3    H119293   6.584   0.263   2.962 -1.7959  1.8648  1.5039
 6443TIP3    H219294   6.680   0.315   2.857  0.8006 -2.5311  1.4986
 6444TIP3   OH219295   1.910   6.081   2.323  0.4101 -0.3798 -0.4063
 6444TIP3    H119296   1.950   5.996   2.305  0.0478 -0.5640 -0.3596
 6444TIP3    H219297   1.816   6.064   2.323  0.3553 -0.1278  0.3445
 6445TIP3   OH219298   1.623   0.725   0.191  0.1268  0.3420 -0.3027
 6445TIP3    H119299   1.658   0.670   0.121  0.1525 -0.3394  0.2304
 6445TIP3    H219300   1.528   0.713   0.186  0.1578 -0.0816  0.0744
 6446TIP3   OH219301   3.097   5.656   3.213 -0.2344  0.0814  0.7280
 6446TIP3    H119302   3.132   5.621   3.130 -0.6560  1.8990 -0.2741
 6446TIP3    H219303   3.009   5.621   3.219  0.1067 -0.7643  0.8608
 6447TIP3   OH219304   1.689   2.417   1.598  0.5718 -0.1886  0.4684
 6447TIP3    H119305   1.749   2.479   1.640  0.6064 -1.1064  1.8494
 6447TIP3    H219306   1.605   2.464   1.596  0.9950  0.5517 -0.1193
 6448TIP3   OH219307   3.237   4.775   3.733 -0.0177  0.1660 -0.2505
 6448TIP3    H119308   3.308   4.791   3.670  1.5878 -0.0100  1.4396
 6448TIP3    H219309   3.187   4.703   3.695  1.6509 -0.7611 -0.7574
 6449TIP3   OH219310   2.714   2.695   5.093 -0.0258  0.2373  0.8204
 6449TIP3    H119311   2.638   2.644   5.124 -0.0293 -1.8181 -2.0964
 6449TIP3    H219312   2.683   2.736   5.013  1.2870  1.3663  0.8699
 6450TIP3   OH219313   0.527   2.873   4.062 -0.1857 -0.0422 -0.0791
 6450TIP3    H119314   0.455   2.916   4.109 -0.4464  0.0558 -0.5553
 6450TIP3    H219315   0.496   2.783   4.048  0.3653 -0.4050  0.9298
 6451TIP3   OH219316   4.104   1.752   2.210  0.1840  0.1396 -0.3069
 6451TIP3    H119317   4.113   1.659   2.234  2.8426  0.8922  2.1685
 6451TIP3    H219318   4.011   1.771   2.224  0.0082 -1.6297  1.4806
 6452TIP3   OH219319   1.863   1.794   3.511  0.0566 -0.1216 -0.2563
 6452TIP3    H119320   1.958   1.782   3.512  0.3020  1.5822  0.2070
 6452TIP3    H219321   1.852   1.889   3.503 -1.6165 -0.3786 -1.2685
 6453TIP3   OH219322   3.905   6.070   0.302  0.1107  0.5341  0.1319
 6453TIP3    H119323   3.934   5.979   0.305  0.8380  0.7805  1.5259
 6453TIP3    H219324   3.983   6.119   0.276  0.3759  0.9594  1.6002
 6454TIP3   OH219325   0.823   6.556   2.504 -0.0343  0.0606  0.0118
 6454TIP3    H119326   0.796   6.468   2.530  3.6770 -0.8883  1.3441
 6454TIP3    H219327   0.834   6.602   2.587 -0.6473  1.3982 -0.6240
 6455TIP3   OH219328   2.248   2.146   4.113  0.0690 -0.1891 -0.0843
 6455TIP3    H119329   2.163   2.162   4.071 -0.0167 -0.9906 -0.2260
 6455TIP3    H219330   2.262   2.052   4.103  0.3925 -0.2668  1.0308
 6456TIP3   OH219331   5.882   4.518   4.372 -0.2407 -0.0329  0.3522
 6456TIP3    H119332   5.928   4.601   4.387  0.6052 -0.4839  0.3138
 6456TIP3    H219333   5.822   4.537   4.300  0.2890  0.4193  0.0195
 6457TIP3   OH219334   0.684   2.136   4.279 -0.1640  0.3213  0.0434
 6457TIP3    H119335   0.774   2.126   4.248  0.2405  1.5225  0.7529
 6457TIP3    H219336   0.631   2.087   4.215  1.0118 -0.7939 -0.1247
 6458TIP3   OH219337   0.217   5.565   1.985 -0.0076 -0.7280 -0.4332
 6458TIP3    H119338   0.230   5.470   1.994  2.4734 -0.2634  2.0100
 6458TIP3    H219339   0.294   5.595   1.936 -0.0208  0.1763  0.0808
 6459TIP3   OH219340   1.831   1.191   2.929  0.2573 -0.4402  0.3148
 6459TIP3    H119341   1.772   1.119   2.909  1.6431 -1.6306  0.3468
 6459TIP3    H219342   1.907   1.150   2.971  1.3338  0.9470 -0.1763
 6460TIP3   OH219343   5.896   4.165   3.676  0.1230  0.2469 -0.1117
 6460TIP3    H119344   5.967   4.105   3.654  0.9827  0.8669  0.8398
 6460TIP3    H219345   5.876   4.146   3.768 -2.2664 -1.1992 -0.8555
 6461TIP3   OH219346   6.066   2.710   3.648  0.0677  0.2319 -0.7499
 6461TIP3    H119347   5.974   2.700   3.673  0.4525 -0.4441  0.4538
 6461TIP3    H219348   6.062   2.739   3.557 -1.3265 -0.5505 -0.9730
 6462TIP3   OH219349   0.542   1.939   1.109 -0.1988 -0.0363  0.6757
 6462TIP3    H119350   0.465   1.989   1.137 -1.3560 -1.1933 -0.2987
 6462TIP3    H219351   0.577   1.902   1.190 -0.8685  0.2384  1.1024
 6463TIP3   OH219352   2.937   0.383   2.539 -0.0246  0.4692  0.3097
 6463TIP3    H119353   2.927   0.426   2.624  0.6001  0.7200  0.2536
 6463TIP3    H219354   2.863   0.321   2.536 -0.7268  1.2778  0.5347
 6464TIP3   OH219355   1.844   1.720   0.237  0.2392  0.2111  0.0607
 6464TIP3    H119356   1.894   1.675   0.306  1.0529 -0.1185 -0.7251
 6464TIP3    H219357   1.829   1.808   0.272  2.6129  0.8084 -0.2309
 6465TIP3   OH219358   5.165   0.116   2.817  0.1969 -0.2395 -0.2275
 6465TIP3    H119359   5.181   0.034   2.864  2.9576 -0.4338 -1.3736
 6465TIP3    H219360   5.138   0.088   2.729 -1.3004  0.1365  0.0805
 6466TIP3   OH219361   1.082   6.062   5.138 -0.3203  0.1587 -0.5581
 6466TIP3    H119362   1.096   5.972   5.167  1.1033  0.3038 -0.7002
 6466TIP3    H219363   1.111   6.115   5.211 -2.9097  0.5487  0.2734
 6467TIP3   OH219364   6.882   4.729   3.053 -0.6566  0.2298  0.0104
 6467TIP3    H119365   6.944   4.736   3.125 -0.4100  1.6882 -0.3066
 6467TIP3    H219366   6.806   4.685   3.090  1.3499 -3.8362 -0.1632
 6468TIP3   OH219367   2.134   4.725   0.197 -0.7985  0.1362 -0.2169
 6468TIP3    H119368   2.153   4.705   0.289 -2.8271  0.6716  0.3676
 6468TIP3    H219369   2.192   4.797   0.176 -0.8804  0.5592  0.9155
 6469TIP3   OH219370   1.211   3.642   2.529 -0.3003 -0.0307  0.3705
 6469TIP3    H119371   1.278   3.705   2.502 -0.8085  0.6859  0.7556
 6469TIP3    H219372   1.205   3.652   2.624  0.4099 -1.4649  0.5965
 6470TIP3   OH219373   5.129   3.569   4.189 -0.4218  0.5997 -0.0952
 6470TIP3    H119374   5.222   3.556   4.174 -0.6299  0.9390 -1.9140
 6470TIP3    H219375   5.111   3.656   4.155 -1.1336  1.1781  1.6784
 6471TIP3   OH219376   0.318   5.315   5.816 -0.0090  0.1291 -0.2233
 6471TIP3    H119377   0.227   5.284   5.814  0.1844 -0.4192 -1.5643
 6471TIP3    H219378   0.369   5.239   5.843  0.2323 -0.1302 -1.3436
 6472TIP3   OH219379   3.016   1.020   5.227 -0.0217 -0.8014 -0.3122
 6472TIP3    H119380   3.095   1.036   5.278 -0.0437 -0.9253 -0.2399
 6472TIP3    H219381   2.954   0.984   5.289 -0.7651  1.0102  0.0507
 6473TIP3   OH219382   4.958   6.783   1.879  0.3793 -0.3668  0.2026
 6473TIP3    H119383   4.871   6.742   1.881  0.3756 -0.3147  1.1852
 6473TIP3    H219384   5.003   6.738   1.807 -0.0846 -1.1708  0.4016
 6474TIP3   OH219385   5.760   0.042   1.632 -0.0199  0.1062 -0.1123
 6474TIP3    H119386   5.722   0.118   1.588 -2.1921  0.1567  1.6764
 6474TIP3    H219387   5.792   0.076   1.715  1.2484 -0.5297 -0.3149
 6475TIP3   OH219388   1.637   5.805   4.639  0.2247 -0.2151 -0.0399
 6475TIP3    H119389   1.646   5.896   4.668 -2.1911  0.4104 -1.0121
 6475TIP3    H219390   1.644   5.810   4.544 -0.4465 -0.9770 -0.1344
 6476TIP3   OH219391   2.735   0.085   4.086  0.3234  0.4898 -0.5828
 6476TIP3    H119392   2.791   0.066   4.010 -0.3071 -0.0098 -0.9347
 6476TIP3    H219393   2.749   0.178   4.102  1.8736  0.2190 -0.1407
 6477TIP3   OH219394   4.737   2.830   5.463 -0.1570 -0.1313  0.2324
 6477TIP3    H119395   4.808   2.855   5.524 -0.8175 -1.3111  1.5434
 6477TIP3    H219396   4.665   2.804   5.520 -0.0077 -3.6703 -0.9498
 6478TIP3   OH219397   2.075   6.001   4.668 -0.5540  0.3185 -0.0764
 6478TIP3    H119398   2.122   6.079   4.639  0.0340  1.0058  2.5112
 6478TIP3    H219399   1.984   6.018   4.644 -0.1176  0.7961 -1.4989
 6479TIP3   OH219400   3.162   4.172   5.118 -0.1038 -0.2049  0.4168
 6479TIP3    H119401   3.190   4.194   5.207  1.0380  0.7356 -0.1552
 6479TIP3    H219402   3.243   4.145   5.074 -0.3585  0.9008 -0.7845
 6480TIP3   OH219403   2.798   3.577   3.121 -0.5871  0.5914  0.1997
 6480TIP3    H119404   2.864   3.608   3.060 -0.4510  0.4161  0.2588
 6480TIP3    H219405   2.817   3.485   3.134 -0.0929  0.8144  1.1678
 6481TIP3   OH219406   5.342   5.301   3.485 -0.6257  0.5459 -0.0205
 6481TIP3    H119407   5.421   5.352   3.465 -0.5384 -0.4844 -2.6895
 6481TIP3    H219408   5.270   5.357   3.454 -0.8796  0.9104  1.1807
 6482TIP3   OH219409   1.260   4.031   5.914 -0.3154 -0.0375 -0.0171
 6482TIP3    H119410   1.226   4.084   5.841  0.8976  1.1887  0.2769
 6482TIP3    H219411   1.339   3.990   5.879 -0.8268 -1.0856  0.0034
 6483TIP3   OH219412   6.339   6.296   1.511  0.2462 -0.5863  0.2800
 6483TIP3    H119413   6.386   6.248   1.443 -0.3596 -0.0947 -0.5023
 6483TIP3    H219414   6.393   6.373   1.528  0.2975 -0.6103  0.2246
 6484TIP3   OH219415   7.080   4.899   2.106  0.1676  0.1890  0.1213
 6484TIP3    H119416   7.025   4.976   2.118  0.6799  0.9236 -1.7851
 6484TIP3    H219417   7.145   4.903   2.175 -0.3805  0.9479  0.5975
 6485TIP3   OH219418   0.992   5.041   2.145 -0.5053 -0.4882 -0.2437
 6485TIP3    H119419   0.940   5.116   2.118  0.5570  0.2163 -0.3590
 6485TIP3    H219420   0.942   5.003   2.218 -0.9039  0.4877  0.0017
 6486TIP3   OH219421   2.404   5.628   4.123  0.3147 -0.2488  0.4302
 6486TIP3    H119422   2.408   5.717   4.158 -1.4853 -0.1786  0.5496
 6486TIP3    H219423   2.453   5.576   4.187  1.4374  0.6505  0.3281
 6487TIP3   OH219424   3.745   1.156   0.141 -0.4001 -0.1697 -0.0975
 6487TIP3    H119425   3.725   1.168   0.233 -1.5401  0.6267 -0.4239
 6487TIP3    H219426   3.834   1.121   0.140  0.5484  1.9755  1.2456
 6488TIP3   OH219427   6.928   2.484   4.130  0.6696 -0.3069  0.1952
 6488TIP3    H119428   6.863   2.514   4.194  0.3019  0.5761 -0.5615
 6488TIP3    H219429   7.006   2.536   4.149 -0.0008  1.3288 -1.1848
 6489TIP3   OH219430   5.406   1.930   5.367  0.0949 -0.0545  0.7123
 6489TIP3    H119431   5.379   1.996   5.303  0.8570 -1.2723 -0.9261
 6489TIP3    H219432   5.407   1.848   5.318  1.4208 -0.9247  2.1116
 6490TIP3   OH219433   3.516   5.987   5.135  0.0452 -0.1262  0.1777
 6490TIP3    H119434   3.555   6.027   5.057 -1.7885 -0.7151 -1.1209
 6490TIP3    H219435   3.566   5.908   5.149 -1.1881 -1.4186 -2.0887
 6491TIP3   OH219436   1.827   2.965   5.456  0.2300  0.4448  0.3458
 6491TIP3    H119437   1.746   2.917   5.475  0.9124 -0.2853  1.5315
 6491TIP3    H219438   1.830   3.033   5.523 -0.1255  1.4206 -0.6012
 6492TIP3   OH219439   2.490   5.543   1.685 -0.1684 -0.2096 -0.2532
 6492TIP3    H119440   2.559   5.500   1.735  1.4860  2.7418  0.2509
 6492TIP3    H219441   2.419   5.555   1.749 -0.2165 -1.1514 -0.1159
 6493TIP3   OH219442   1.054   0.501   2.070  0.0939 -1.3146 -0.5190
 6493TIP3    H119443   0.975   0.459   2.037 -0.1356 -0.3661 -1.2146
 6493TIP3    H219444   1.059   0.476   2.162 -1.1103 -1.2381 -0.4279
 6494TIP3   OH219445   1.763   3.642   3.887 -0.4316  0.2086 -0.0106
 6494TIP3    H119446   1.765   3.687   3.972 -2.2488 -2.6431  1.6787
 6494TIP3    H219447   1.816   3.564   3.900  1.4612  0.9810 -2.4294
 6495TIP3   OH219448   4.577   5.853   4.994  0.6736  0.4217 -0.2431
 6495TIP3    H119449   4.518   5.779   5.009 -1.6286  2.2236  0.2264
 6495TIP3    H219450   4.611   5.839   4.905  0.2156 -1.1299 -0.2002
 6496TIP3   OH219451   1.217   5.276   2.126 -0.0904 -0.3886  0.2587
 6496TIP3    H119452   1.242   5.281   2.218  4.4309 -0.4726 -0.7456
 6496TIP3    H219453   1.209   5.182   2.108  1.7909 -0.5343  0.0270
 6497TIP3   OH219454   1.015   5.443   4.271 -0.2834  0.4003  0.0320
 6497TIP3    H119455   0.986   5.499   4.344  0.4779 -1.5951  1.9676
 6497TIP3    H219456   0.938   5.393   4.247 -0.8771  1.9312 -1.4836
 6498TIP3   OH219457   2.834   5.070   5.121 -0.5079 -0.4641  0.2400
 6498TIP3    H119458   2.830   4.988   5.170  1.6961 -0.3946  0.6479
 6498TIP3    H219459   2.882   5.048   5.041 -2.4118 -0.1545 -1.0528
 6499TIP3   OH219460   4.094   2.611   4.429  0.0541  0.0352  0.3389
 6499TIP3    H119461   4.073   2.699   4.459  0.4840  0.5585 -0.8252
 6499TIP3    H219462   4.128   2.623   4.340  1.0284 -1.2076  0.5077
 6500TIP3   OH219463   3.581   5.631   3.187  0.4482  0.1135  0.3870
 6500TIP3    H119464   3.556   5.547   3.149 -0.1175  0.6172 -0.3835
 6500TIP3    H219465   3.664   5.654   3.144  0.6827 -0.1192  0.7116
 6501TIP3   OH219466   5.102   0.510   1.401  0.1577 -0.4903 -0.1328
 6501TIP3    H119467   5.102   0.590   1.453  0.3916 -0.0652 -0.7629
 6501TIP3    H219468   5.118   0.540   1.311 -2.3219 -0.9492 -0.8295
 6502TIP3   OH219469   1.362   6.413   1.099 -0.2858  0.3397 -0.2085
 6502TIP3    H119470   1.273   6.386   1.078  0.1555 -1.2455 -0.2302
 6502TIP3    H219471   1.417   6.346   1.060  0.8429  0.5362  0.9542
 6503TIP3   OH219472   4.274   0.191   5.769 -0.6498 -0.3540 -0.3705
 6503TIP3    H119473   4.238   0.174   5.856 -0.9917  0.9588 -0.2391
 6503TIP3    H219474   4.231   0.271   5.740  1.5827  0.8657 -0.5318
 6504TIP3   OH219475   7.116   5.912   4.144 -0.2430  0.3294  0.0458
 6504TIP3    H119476   7.040   5.855   4.130 -0.2839  0.4607 -0.2665
 6504TIP3    H219477   7.099   5.952   4.230  0.4569 -1.1647  0.9313
 6505TIP3   OH219478   4.699   6.614   0.188 -0.4450 -0.2047 -0.0140
 6505TIP3    H119479   4.645   6.693   0.186 -1.1581 -0.6698  0.4838
 6505TIP3    H219480   4.779   6.640   0.233 -1.6312 -0.3300  2.3163
 6506TIP3   OH219481   5.992   5.353   2.739 -0.2766  0.4796  0.0395
 6506TIP3    H119482   5.975   5.445   2.761 -0.2772  0.2433  1.0794
 6506TIP3    H219483   6.077   5.334   2.780 -1.6613 -0.8215  2.5640
 6507TIP3   OH219484   5.745   0.337   1.217 -0.3239 -0.1864  0.4952
 6507TIP3    H119485   5.694   0.365   1.140  0.6761  0.4838  0.0539
 6507TIP3    H219486   5.836   0.345   1.189  0.0398 -0.6148  1.5276
 6508TIP3   OH219487   0.804   6.789   3.022  0.8060  0.6018 -0.2002
 6508TIP3    H119488   0.792   6.695   3.006 -2.5309  0.6912  0.8769
 6508TIP3    H219489   0.819   6.826   2.936  0.5138 -0.7676 -0.8775
 6509TIP3   OH219490   2.762   4.064   1.420 -0.7105  0.1005  0.4509
 6509TIP3    H119491   2.838   4.052   1.363 -1.7188 -0.2154 -0.8426
 6509TIP3    H219492   2.790   4.132   1.482  0.6626 -0.0952  0.0713
 6510TIP3   OH219493   2.871   2.977   1.065 -0.6152 -0.9637  0.1851
 6510TIP3    H119494   2.917   2.894   1.067  0.9676 -0.1136  0.4115
 6510TIP3    H219495   2.914   3.031   1.131 -1.0097  0.3290 -0.5660
 6511TIP3   OH219496   1.027   2.503   4.950  0.3678  0.2247  0.3407
 6511TIP3    H119497   1.072   2.494   5.033 -0.0150 -0.5052  0.4750
 6511TIP3    H219498   0.958   2.436   4.952  0.1806  0.3812 -0.4426
 6512TIP3   OH219499   6.448   3.299   4.042  0.0088  0.7588 -0.3522
 6512TIP3    H119500   6.406   3.218   4.072  0.1836  0.3091 -1.2821
 6512TIP3    H219501   6.395   3.328   3.968 -0.4786  1.9148  0.4155
 6513TIP3   OH219502   0.100   3.800   5.198 -0.1493 -0.0292 -0.5925
 6513TIP3    H119503   0.185   3.843   5.196 -0.4982  0.8372  1.0187
 6513TIP3    H219504   0.100   3.741   5.123  1.8499 -0.0431 -0.6159
 6514TIP3   OH219505   0.772   3.274   1.543  0.4730 -0.5720  0.9316
 6514TIP3    H119506   0.865   3.266   1.564  0.4663  0.6671  1.5557
 6514TIP3    H219507   0.765   3.359   1.499 -0.4576 -0.3273  1.5262
 6515TIP3   OH219508   2.567   4.394   5.144 -0.4336  0.3981  0.1210
 6515TIP3    H119509   2.591   4.331   5.212 -1.0516 -1.8716 -1.6687
 6515TIP3    H219510   2.519   4.462   5.191  0.0939 -0.5101  2.0997
 6516TIP3   OH219511   3.686   0.834   5.432 -0.6062 -0.7132 -0.5015
 6516TIP3    H119512   3.757   0.879   5.387 -0.0576 -1.1882 -0.1283
 6516TIP3    H219513   3.654   0.770   5.369 -0.7509 -0.4527 -0.6941
 6517TIP3   OH219514   6.471   4.719   5.829 -0.3667  0.0888  0.3633
 6517TIP3    H119515   6.406   4.788   5.845 -2.1743 -1.1065 -1.3933
 6517TIP3    H219516   6.444   4.647   5.887 -0.2108 -0.1866  0.0947
 6518TIP3   OH219517   6.270   2.988   4.687 -0.0259 -0.1625  0.3448
 6518TIP3    H119518   6.223   2.918   4.641 -3.2486  1.0804  1.4218
 6518TIP3    H219519   6.286   2.953   4.775 -1.3378  0.2337  0.7764
 6519TIP3   OH219520   2.496   6.127   1.987 -0.0040 -0.2714 -0.0378
 6519TIP3    H119521   2.523   6.172   1.907  0.4052 -1.1648 -0.4084
 6519TIP3    H219522   2.441   6.055   1.957 -2.1668  0.9916  0.6557
 6520TIP3   OH219523   5.388   3.302   3.897 -0.3378  0.0475 -0.1361
 6520TIP3    H119524   5.350   3.255   3.823 -0.5720 -0.3798  0.2557
 6520TIP3    H219525   5.410   3.389   3.861 -1.7775  0.3460 -0.3375
 6521TIP3   OH219526   0.575   1.787   5.221 -0.0058 -0.5999 -0.2617
 6521TIP3    H119527   0.483   1.806   5.242  0.2379 -0.3852  0.6595
 6521TIP3    H219528   0.573   1.699   5.184 -0.6837 -0.2687 -1.0393
 6522TIP3   OH219529   0.732   3.360   5.407 -0.3391  0.3170  0.2033
 6522TIP3    H119530   0.671   3.399   5.468  0.0338 -1.3497  1.7403
 6522TIP3    H219531   0.810   3.341   5.459  0.9428  0.9987 -1.3525
 6523TIP3   OH219532   6.301   0.882   4.494 -0.3015 -0.5937  0.0529
 6523TIP3    H119533   6.280   0.864   4.403 -0.5702  3.7607 -0.9360
 6523TIP3    H219534   6.216   0.885   4.539 -0.4771  0.6511 -0.3397
 6524TIP3   OH219535   4.167   1.951   1.437 -0.4481 -0.1160  0.2552
 6524TIP3    H119536   4.206   2.037   1.456  0.8571 -0.6800  0.2624
 6524TIP3    H219537   4.213   1.890   1.494 -0.2855 -1.0370 -0.8097
 6525TIP3   OH219538   0.242   6.095   4.695  0.7044  0.3472 -0.7290
 6525TIP3    H119539   0.183   6.027   4.728  0.0064  1.2059 -0.1415
 6525TIP3    H219540   0.317   6.093   4.755 -0.8446  2.3366  1.4621
 6526TIP3   OH219541   2.429   1.006   0.189 -0.3947  0.3243 -0.0467
 6526TIP3    H119542   2.397   0.932   0.240 -0.5231  0.7401  0.4839
 6526TIP3    H219543   2.406   1.083   0.241 -0.8419  0.7839 -0.9002
 6527TIP3   OH219544   2.889   1.441   4.757  0.6237  0.8836 -0.4042
 6527TIP3    H119545   2.889   1.404   4.668  2.0703  1.2444 -0.5784
 6527TIP3    H219546   2.858   1.369   4.813  1.6171 -0.0123 -0.9593
 6528TIP3   OH219547   3.420   3.267   0.107  0.0816 -0.3316 -0.1405
 6528TIP3    H119548   3.383   3.344   0.064 -0.2451 -0.7075 -0.5419
 6528TIP3    H219549   3.398   3.278   0.199 -0.5396 -0.2689 -0.2917
 6529TIP3   OH219550   0.597   6.244   3.318 -0.3994 -0.4462 -0.2601
 6529TIP3    H119551   0.585   6.222   3.226 -2.8721 -3.0507  0.5792
 6529TIP3    H219552   0.510   6.267   3.350  0.4707  0.8614  1.3929
 6530TIP3   OH219553   2.237   0.585   1.043 -0.4814  0.0621 -0.0608
 6530TIP3    H119554   2.176   0.633   1.098 -0.9882  0.6930 -1.1358
 6530TIP3    H219555   2.302   0.650   1.016  1.3795 -0.8225  1.9563
 6531TIP3   OH219556   4.768   0.597   3.640 -0.1661  0.2225  0.1560
 6531TIP3    H119557   4.810   0.537   3.579  0.8800  0.4937  0.5854
 6531TIP3    H219558   4.793   0.684   3.609  2.0447  0.3445  2.0534
 6532TIP3   OH219559   7.123   0.454   3.676  0.3810  0.0134 -0.6905
 6532TIP3    H119560   7.079   0.523   3.626 -0.3480 -0.2123 -0.3754
 6532TIP3    H219561   7.187   0.417   3.614 -0.0853  0.1452 -1.2679
 6533TIP3   OH219562   2.030   6.316   2.712  0.7518 -0.5677  0.1198
 6533TIP3    H119563   2.004   6.310   2.620 -0.7519 -1.4087  0.5511
 6533TIP3    H219564   2.123   6.338   2.710  0.2389  1.7682 -1.5674
 6534TIP3   OH219565   1.958   2.204   1.260  0.1409 -0.1670 -0.3243
 6534TIP3    H119566   1.924   2.197   1.349 -1.5134  0.6067 -0.8488
 6534TIP3    H219567   2.024   2.273   1.264  1.6957 -1.6254  0.7004
 6535TIP3   OH219568   2.828   4.908   1.176 -0.2214 -0.0499  0.3846
 6535TIP3    H119569   2.853   4.818   1.156 -0.9816 -0.3275  0.6290
 6535TIP3    H219570   2.898   4.941   1.232 -0.2363 -0.6947  0.7906
 6536TIP3   OH219571   3.689   4.421  -0.022 -0.1386 -0.6017  0.0974
 6536TIP3    H119572   3.780   4.391  -0.021  0.8779  2.1268 -0.4766
 6536TIP3    H219573   3.672   4.449   0.068  0.4682  1.0608 -0.2623
 6537TIP3   OH219574   5.929   4.200   5.273 -0.5430 -0.2932 -0.0347
 6537TIP3    H119575   5.852   4.161   5.231 -2.2233  0.9696  1.7159
 6537TIP3    H219576   5.913   4.188   5.367 -0.3718  3.0816  0.5346
 6538TIP3   OH219577   2.454   1.016   3.592 -0.3566 -0.3271  0.3129
 6538TIP3    H119578   2.396   1.065   3.534  0.8846  1.1257  0.2523
 6538TIP3    H219579   2.542   1.044   3.568  0.2141  0.2249  2.7666
 6539TIP3   OH219580   4.700   0.472   4.963  0.7435 -0.6954 -0.0212
 6539TIP3    H119581   4.736   0.466   4.874 -1.0735 -1.2499 -0.7709
 6539TIP3    H219582   4.719   0.387   5.002  3.4387  0.2654  0.9503
 6540TIP3   OH219583   4.725   1.947   3.178  0.4041 -0.5343 -0.3060
 6540TIP3    H119584   4.697   1.953   3.086  0.4583  0.8013 -0.2545
 6540TIP3    H219585   4.780   1.869   3.181  0.3387 -0.6404 -1.4011
 6541TIP3   OH219586   4.217   3.475   0.399 -0.0113  0.0262  0.1260
 6541TIP3    H119587   4.147   3.411   0.384 -0.5588  0.6106  0.1718
 6541TIP3    H219588   4.288   3.446   0.341 -0.2714 -0.5982  0.1132
 6542TIP3   OH219589   5.307   4.518  -0.007  0.5287  0.4166  0.3300
 6542TIP3    H119590   5.357   4.586   0.039  2.4932 -0.4731 -0.3734
 6542TIP3    H219591   5.292   4.450   0.059  0.0062  0.7975  0.6091
 6543TIP3   OH219592   6.324   6.624   5.768 -0.2676 -0.2720 -0.0340
 6543TIP3    H119593   6.337   6.571   5.689  0.6913  1.4397 -1.0934
 6543TIP3    H219594   6.234   6.655   5.762 -0.0947  0.1267 -0.6492
 6544TIP3   OH219595   1.997   5.087   2.245  0.2604  0.8084  0.5645
 6544TIP3    H119596   1.941   5.052   2.314 -0.0698  1.1607  0.4787
 6544TIP3    H219597   1.943   5.085   2.166  0.4353  0.9579  0.4380
 6545TIP3   OH219598   1.853   1.316   3.322  0.1939  0.1048 -0.0170
 6545TIP3    H119599   1.782   1.254   3.305 -0.6817  1.0380  0.1396
 6545TIP3    H219600   1.815   1.380   3.383  1.3246  0.3476  0.4442
 6546TIP3   OH219601   4.072   5.485   2.769  0.0945  0.2492  0.4529
 6546TIP3    H119602   4.079   5.552   2.702  2.1845  1.3255  1.6493
 6546TIP3    H219603   3.978   5.481   2.790  0.0090  4.5979  2.0052
 6547TIP3   OH219604   1.051   4.807   3.915 -0.2324 -0.3090  0.1602
 6547TIP3    H119605   1.017   4.893   3.938 -0.1448 -0.7156  1.9351
 6547TIP3    H219606   0.996   4.745   3.963  0.1227 -1.2250 -0.5728
 6548TIP3   OH219607   0.320   2.479   4.468 -0.4764 -0.2457  0.1347
 6548TIP3    H119608   0.307   2.482   4.373  1.2504 -0.8227 -0.1553
 6548TIP3    H219609   0.260   2.411   4.498 -2.2097  1.0393 -0.2892
 6549TIP3   OH219610   3.931   1.247   4.397 -0.3973 -0.0645  0.1064
 6549TIP3    H119611   3.961   1.332   4.427  0.8688 -0.3342 -0.3072
 6549TIP3    H219612   3.997   1.220   4.332 -0.5563 -1.5145  0.5103
 6550TIP3   OH219613   4.804   6.026   4.409 -0.2972 -0.1597 -0.3198
 6550TIP3    H119614   4.857   5.980   4.475 -0.1422 -1.2604 -1.1866
 6550TIP3    H219615   4.860   6.097   4.380  1.2266 -1.9201 -1.9894
 6551TIP3   OH219616   3.594   6.759   5.526  0.5565  0.0376 -0.2226
 6551TIP3    H119617   3.682   6.782   5.556 -0.2491  0.5788  1.9336
 6551TIP3    H219618   3.559   6.703   5.594 -0.8763  0.0403 -0.9160
 6552TIP3   OH219619   3.805   5.754   0.405  0.3128 -0.0853 -0.1763
 6552TIP3    H119620   3.792   5.847   0.427 -0.1858 -0.5847  1.8154
 6552TIP3    H219621   3.734   5.735   0.343  2.0622  1.4937 -2.9091
 6553TIP3   OH219622   1.999   5.839   5.642  0.0776  0.1716  0.1454
 6553TIP3    H119623   1.948   5.846   5.561 -0.4328  0.2925  0.4710
 6553TIP3    H219624   2.052   5.918   5.644 -0.4354  0.5151  0.2848
 6554TIP3   OH219625   4.784   4.245   3.084 -0.2796 -0.0735  0.0052
 6554TIP3    H119626   4.814   4.275   2.998 -1.5157  0.2542 -0.3411
 6554TIP3    H219627   4.826   4.305   3.146 -0.7643  0.8333 -0.5064
 6555TIP3   OH219628   0.957   6.605   5.028  0.0504 -0.6055  0.1905
 6555TIP3    H119629   0.922   6.534   5.081 -1.9870 -1.0164 -1.5879
 6555TIP3    H219630   1.009   6.561   4.961  0.5262 -0.2481  0.3154
 6556TIP3   OH219631   0.683   4.590   0.859 -0.1374  0.1870 -0.2667
 6556TIP3    H119632   0.675   4.669   0.912  0.9454 -0.1307  0.3958
 6556TIP3    H219633   0.690   4.519   0.923 -1.0981 -0.4667 -0.8513
 6557TIP3   OH219634   3.520   4.002   1.413  0.0870 -0.2890  0.5069
 6557TIP3    H119635   3.605   4.040   1.437 -0.4132 -0.0924  2.0837
 6557TIP3    H219636   3.514   3.922   1.465 -0.2862 -0.8019 -0.3173
 6558TIP3   OH219637   3.356   4.236   1.365 -0.4112  0.0728 -0.3730
 6558TIP3    H119638   3.397   4.314   1.403 -0.9498  0.5388 -0.7413
 6558TIP3    H219639   3.388   4.164   1.419  2.4843  0.1452 -1.7814
 6559TIP3   OH219640   4.371   6.744   4.031  0.0707 -0.0258  0.3760
 6559TIP3    H119641   4.379   6.839   4.034 -1.7811  0.3398 -2.3248
 6559TIP3    H219642   4.321   6.722   4.110 -2.4550  1.7729 -0.5566
 6560TIP3   OH219643   1.898   0.129   4.353 -0.1124  0.1528  0.0241
 6560TIP3    H119644   1.934   0.090   4.274  0.0609 -0.1813  0.2643
 6560TIP3    H219645   1.964   0.111   4.421 -0.1109  0.7054  0.1793
 6561TIP3   OH219646   6.553   5.716   2.893  0.2790 -0.0771  0.4535
 6561TIP3    H119647   6.546   5.655   2.819  2.1070  0.8030 -0.5175
 6561TIP3    H219648   6.510   5.671   2.966 -1.3015 -1.1207 -1.0372
 6562TIP3   OH219649   2.443   2.860   5.006 -0.2509 -0.0830 -0.4944
 6562TIP3    H119650   2.474   2.771   5.021  1.2702  0.1426 -1.9786
 6562TIP3    H219651   2.522   2.914   5.010 -1.3268  1.4935  1.9806
 6563TIP3   OH219652   0.947   1.685   3.362  0.1538 -0.1122  1.1809
 6563TIP3    H119653   0.961   1.591   3.346  0.4583  0.1305 -0.0079
 6563TIP3    H219654   0.933   1.690   3.457  2.7554 -1.0328  1.6951
 6564TIP3   OH219655   1.915   3.719   0.999  0.0679 -0.8005 -0.2372
 6564TIP3    H119656   1.928   3.744   0.908  0.1169  0.6017  0.1223
 6564TIP3    H219657   2.002   3.695   1.030  0.4522  0.7322 -0.0255
 6565TIP3   OH219658   3.098   2.829   0.055  0.0072  0.0375 -0.0569
 6565TIP3    H119659   3.155   2.897   0.022  0.4450 -0.6151 -0.6744
 6565TIP3    H219660   3.017   2.875   0.080  0.0574  0.6918 -1.0487
 6566TIP3   OH219661   4.606   0.858   5.394  0.3786 -0.0389 -0.0942
 6566TIP3    H119662   4.537   0.793   5.407 -0.4620  0.9868  0.6738
 6566TIP3    H219663   4.645   0.869   5.481 -0.2787  1.3326  0.0519
 6567TIP3   OH219664   5.727   1.086   4.229  0.1373  0.1165  0.4312
 6567TIP3    H119665   5.716   0.994   4.203  0.2728  0.0862  0.4840
 6567TIP3    H219666   5.817   1.092   4.260  0.2133  0.3290  0.1759
 6568TIP3   OH219667   2.096   3.928   4.555  0.2617 -0.1584  0.5354
 6568TIP3    H119668   2.166   3.949   4.493 -1.4996 -1.5707 -2.1083
 6568TIP3    H219669   2.130   3.854   4.605  1.4025  0.4666  0.7162
 6569TIP3   OH219670   1.062   5.821   2.954 -0.0119 -0.0610  0.1325
 6569TIP3    H119671   1.072   5.914   2.932  1.8242 -0.4215 -0.7635
 6569TIP3    H219672   1.037   5.821   3.046 -1.1763  1.3261 -0.1280
 6570TIP3   OH219673   0.668   2.292   3.822  0.7623 -0.1693 -0.2133
 6570TIP3    H119674   0.650   2.332   3.907  1.6141  0.8227 -0.4685
 6570TIP3    H219675   0.764   2.288   3.818  0.7192 -0.6526 -0.9303
 6571TIP3   OH219676   1.883   0.974   2.321  0.1811 -0.2254 -0.5728
 6571TIP3    H119677   1.922   1.058   2.299 -1.3689  0.8277  0.4316
 6571TIP3    H219678   1.956   0.912   2.325  1.1940  0.7826 -2.5949
 6572TIP3   OH219679   1.113   4.041   0.947  0.1380  0.4914 -0.4222
 6572TIP3    H119680   1.084   3.989   0.872  2.0244 -0.3165 -0.6505
 6572TIP3    H219681   1.138   4.125   0.910 -0.0748  0.5150 -0.5131
 6573TIP3   OH219682   0.337   2.951   4.284  0.2223 -0.4163  0.4121
 6573TIP3    H119683   0.397   2.936   4.357  0.0588 -0.1585  0.6012
 6573TIP3    H219684   0.329   3.046   4.279  0.5959 -0.4136 -0.2350
 6574TIP3   OH219685   4.100   1.442   2.964 -0.0601  0.1001  0.1931
 6574TIP3    H119686   4.026   1.381   2.974 -1.7913  1.9741 -0.5189
 6574TIP3    H219687   4.094   1.473   2.874  0.6506  1.4356  0.5796
 6575TIP3   OH219688   4.190   3.184   3.459 -0.1362  0.0659  0.2482
 6575TIP3    H119689   4.135   3.187   3.381 -1.2283 -3.2133  0.7702
 6575TIP3    H219690   4.137   3.226   3.527  0.1560  1.4338 -0.3176
 6576TIP3   OH219691   6.127   1.105   3.719 -0.2945  0.7106  0.4143
 6576TIP3    H119692   6.192   1.083   3.652 -0.1813 -0.4368  0.8875
 6576TIP3    H219693   6.074   1.174   3.679 -0.4423 -0.1835 -0.9992
 6577TIP3   OH219694   5.301   3.135   2.494 -0.0088  0.5140 -0.4972
 6577TIP3    H119695   5.394   3.148   2.512 -0.2497  1.7261 -0.0782
 6577TIP3    H219696   5.255   3.177   2.567 -0.8881 -1.9137  0.4554
 6578TIP3   OH219697   4.264   4.927   0.724 -0.2353 -0.3420 -0.2090
 6578TIP3    H119698   4.202   4.990   0.687 -0.0298 -0.2062 -0.3245
 6578TIP3    H219699   4.221   4.842   0.715 -2.4817  0.1151  3.8025
 6579TIP3   OH219700   0.565   0.761   0.142  0.0350  0.5035  0.0716
 6579TIP3    H119701   0.551   0.806   0.225  1.3140 -0.6757  0.9799
 6579TIP3    H219702   0.643   0.802   0.105  1.6069 -1.2770  1.2211
 6580TIP3   OH219703   1.066   4.801   1.672  0.2417  0.2842  0.7104
 6580TIP3    H119704   1.042   4.828   1.583 -1.0394  1.3004  1.3253
 6580TIP3    H219705   0.990   4.751   1.703  1.0594 -0.8614  0.9270
 6581TIP3   OH219706   7.113   0.974   0.272  0.0364  0.2823 -0.2005
 6581TIP3    H119707   7.095   0.998   0.181  0.6326  4.4332  0.5893
 6581TIP3    H219708   7.036   1.004   0.320  0.3272 -0.5905  0.8489
 6582TIP3   OH219709   2.286   4.075   0.228 -0.6373  0.2834  0.3611
 6582TIP3    H119710   2.206   4.125   0.243 -0.8878 -0.8274  3.4437
 6582TIP3    H219711   2.357   4.136   0.248 -0.9396 -0.2618  3.9186
 6583TIP3   OH219712   4.388   6.270   0.436 -0.1384  0.2513  0.3241
 6583TIP3    H119713   4.351   6.204   0.495 -2.2148  0.1031 -1.0525
 6583TIP3    H219714   4.444   6.221   0.377 -0.0918  0.0213  0.5582
 6584TIP3   OH219715   5.220   2.120   3.567 -0.3813  0.1903 -0.0149
 6584TIP3    H119716   5.287   2.142   3.502  0.1934 -0.0216  0.4953
 6584TIP3    H219717   5.207   2.202   3.616 -0.2395  0.1378  0.1114
 6585TIP3   OH219718   3.637   5.925   3.651  0.3128  0.3414  0.0446
 6585TIP3    H119719   3.581   6.002   3.655 -1.9931 -1.2663  0.3293
 6585TIP3    H219720   3.640   5.903   3.558  0.6084  0.4979  0.0147
 6586TIP3   OH219721   4.822   4.609   5.243 -0.4383 -0.6339  0.2353
 6586TIP3    H119722   4.778   4.560   5.174 -1.6065 -1.1054  1.2641
 6586TIP3    H219723   4.875   4.544   5.289  0.3641 -0.3164 -0.2371
 6587TIP3   OH219724   4.081   4.107   0.824  0.2402 -0.4868  0.4367
 6587TIP3    H119725   4.161   4.070   0.786  0.6861  0.8928 -0.0339
 6587TIP3    H219726   4.024   4.122   0.749  0.7361  1.3231  0.3896
 6588TIP3   OH219727   1.057   1.452   4.095 -0.6010  0.0524 -0.2301
 6588TIP3    H119728   1.081   1.362   4.070 -1.3736 -0.3810  0.5105
 6588TIP3    H219729   1.063   1.451   4.191 -1.6001  0.4985 -0.1538
 6589TIP3   OH219730   6.732   4.266   1.136  0.2574 -0.5215 -0.3458
 6589TIP3    H119731   6.716   4.345   1.187 -1.3925 -1.4579  0.6789
 6589TIP3    H219732   6.729   4.295   1.045 -2.1490  0.3514 -0.0584
 6590TIP3   OH219733   0.599   0.783   1.024 -0.0044 -0.3370  0.1200
 6590TIP3    H119734   0.580   0.698   1.064 -0.1227 -0.7792 -0.8527
 6590TIP3    H219735   0.532   0.842   1.059 -0.1918 -0.7434  0.4561
 6591TIP3   OH219736   4.047   2.563   1.063  0.2104  0.2697 -0.0562
 6591TIP3    H119737   4.008   2.641   1.102  1.0605  0.2910  0.8054
 6591TIP3    H219738   4.140   2.568   1.088  0.8975  0.4601 -2.3943
 6592TIP3   OH219739   5.749   6.081   4.233  0.2223 -0.2544 -0.2476
 6592TIP3    H119740   5.717   5.998   4.197 -1.2010  0.4025 -0.5502
 6592TIP3    H219741   5.691   6.147   4.196  0.1247  0.6749  1.4814
 6593TIP3   OH219742   0.919   3.714   4.724  0.1956 -0.3790  0.2007
 6593TIP3    H119743   0.936   3.622   4.743 -0.1136 -0.3119  0.8201
 6593TIP3    H219744   1.003   3.748   4.693  0.2554 -0.9192 -0.2581
 6594TIP3   OH219745   1.223   4.526   4.070 -0.1290  0.1554 -0.0436
 6594TIP3    H119746   1.150   4.507   4.011  0.5142 -2.4773 -0.1231
 6594TIP3    H219747   1.258   4.439   4.094  1.8689  1.2657  1.3737
 6595TIP3   OH219748   5.153   1.316   3.081 -0.2730 -0.0552  0.6723
 6595TIP3    H119749   5.095   1.391   3.065  0.5047  0.4101 -0.0267
 6595TIP3    H219750   5.226   1.329   3.021  0.7822 -0.3859  1.8503
 6596TIP3   OH219751   1.687   0.970   1.737  0.3460  0.5784  0.1586
 6596TIP3    H119752   1.687   1.011   1.824 -1.4324  1.4257 -0.1895
 6596TIP3    H219753   1.702   0.877   1.755 -0.3164  0.6846  1.4210
 6597TIP3   OH219754   4.273   0.196   1.940 -0.2126  0.7387  0.5362
 6597TIP3    H119755   4.360   0.236   1.950  0.7797 -1.1476 -0.0569
 6597TIP3    H219756   4.234   0.243   1.866  0.4169  1.4235  0.6233
 6598TIP3   OH219757   3.043   1.001   3.215 -0.0584 -0.3000  0.2386
 6598TIP3    H119758   3.072   1.091   3.198  1.4733 -0.4624  1.7758
 6598TIP3    H219759   2.947   1.007   3.215  0.0024  1.4908  1.0305
 6599TIP3   OH219760   5.685   4.208   4.482 -0.4537  0.2174  0.2073
 6599TIP3    H119761   5.649   4.238   4.566 -0.7540 -2.2508  1.0466
 6599TIP3    H219762   5.773   4.177   4.504 -0.0144  0.7816 -0.6964
 6600TIP3   OH219763   5.438   1.597   2.112 -0.4767  0.4407  0.5774
 6600TIP3    H119764   5.480   1.631   2.191  1.0516  0.2149 -0.1119
 6600TIP3    H219765   5.428   1.503   2.129 -0.0519  0.3735  0.4673
 6601TIP3   OH219766   4.663   4.621   5.738 -0.1766  0.3060 -0.2312
 6601TIP3    H119767   4.715   4.689   5.695 -0.2715 -0.0016 -0.8482
 6601TIP3    H219768   4.610   4.584   5.667  0.0549 -0.5797  0.0476
 6602TIP3   OH219769   6.235   2.472   2.901  0.5316 -0.7910  0.1324
 6602TIP3    H119770   6.183   2.543   2.862  0.7935 -0.7417 -0.1230
 6602TIP3    H219771   6.214   2.395   2.848  1.9568 -0.4351 -1.0034
 6603TIP3   OH219772   0.497   1.306   2.815  0.2179 -0.1085 -0.0969
 6603TIP3    H119773   0.498   1.392   2.858 -0.1585  0.4343 -1.1479
 6603TIP3    H219774   0.405   1.292   2.793 -0.0903 -1.7348  1.8821
 6604TIP3   OH219775   6.754   0.577   4.785  0.1723 -0.0473  0.0657
 6604TIP3    H119776   6.721   0.560   4.697 -0.3711  0.3135  0.1962
 6604TIP3    H219777   6.741   0.671   4.798 -1.5043 -0.3934  1.2244
 6605TIP3   OH219778   3.077   0.422   4.516 -0.0307 -0.0546  0.0633
 6605TIP3    H119779   2.992   0.414   4.471 -0.0258  0.2555 -0.0003
 6605TIP3    H219780   3.121   0.494   4.471  0.4414 -0.4914 -0.1808
 6606TIP3   OH219781   1.038   0.180   0.169 -0.5419 -0.0594 -0.3762
 6606TIP3    H119782   1.010   0.190   0.078  0.6705  1.0812 -0.6515
 6606TIP3    H219783   0.961   0.204   0.220 -0.9671  0.1558 -1.1067
 6607TIP3   OH219784   3.388   3.332   2.191 -0.0890 -0.0594 -0.0974
 6607TIP3    H119785   3.458   3.302   2.133 -1.2396 -1.8870 -0.6250
 6607TIP3    H219786   3.327   3.379   2.133 -1.1430 -1.7247 -0.4355
 6608TIP3   OH219787   3.156   3.242   2.397  0.8417  0.0168 -0.3884
 6608TIP3    H119788   3.147   3.231   2.491  2.4568 -0.5513 -0.2691
 6608TIP3    H219789   3.148   3.337   2.383 -0.2236  0.0274  0.1915
 6609TIP3   OH219790   5.861   2.208   3.475  0.2874 -0.5937 -0.2004
 6609TIP3    H119791   5.863   2.303   3.486  1.7620 -0.5703 -0.5718
 6609TIP3    H219792   5.841   2.195   3.382 -0.7056 -0.6714  0.0131
 6610TIP3   OH219793   0.348   6.567   5.453  0.0213  0.1272 -0.2005
 6610TIP3    H119794   0.366   6.651   5.410  0.3071 -0.7581 -1.9137
 6610TIP3    H219795   0.414   6.560   5.522  1.5311  0.2754 -1.5720
 6611TIP3   OH219796   1.981   0.567   5.734  0.2008  0.2563 -0.5367
 6611TIP3    H119797   1.909   0.504   5.728  0.2801  0.0638  0.3749
 6611TIP3    H219798   2.022   0.565   5.648 -2.9955  2.9610 -2.3713
 6612TIP3   OH219799   4.173   4.386   0.213 -0.4740  0.4319  0.1976
 6612TIP3    H119800   4.126   4.469   0.221 -1.5104 -0.2390  1.4327
 6612TIP3    H219801   4.113   4.329   0.164  1.6110  1.3433 -3.8645
 6613TIP3   OH219802   2.689   6.773   5.095  0.1041 -0.4605  0.4589
 6613TIP3    H119803   2.641   6.812   5.168  0.1268  0.6798 -0.1128
 6613TIP3    H219804   2.770   6.740   5.134 -0.4439 -0.9984  1.1583
 6614TIP3   OH219805   6.285   1.937   4.969 -0.1368  0.1259 -0.4096
 6614TIP3    H119806   6.320   1.928   4.880  2.3671  0.6673  0.4225
 6614TIP3    H219807   6.191   1.946   4.957  0.0104 -0.7198 -2.9298
 6615TIP3   OH219808   6.859   3.306   5.266 -0.2031  0.4039  0.1029
 6615TIP3    H119809   6.817   3.350   5.340  0.5277  0.4631  0.4814
 6615TIP3    H219810   6.937   3.265   5.302 -1.7223 -2.7506  0.1503
 6616TIP3   OH219811   6.424   3.250   1.892 -0.1145 -0.1264  0.1151
 6616TIP3    H119812   6.499   3.304   1.865  0.2172  0.3408  1.8523
 6616TIP3    H219813   6.399   3.203   1.812  2.3618 -0.7188 -0.4015
 6617TIP3   OH219814   4.095   0.138   2.158 -0.5498 -0.3483 -0.6955
 6617TIP3    H119815   4.150   0.175   2.090 -0.4852  0.7855 -0.0519
 6617TIP3    H219816   4.095   0.203   2.228 -0.3793 -1.5896  0.5213
 6618TIP3   OH219817   1.858   2.680   2.048  0.2721  0.1606 -0.0068
 6618TIP3    H119818   1.891   2.750   1.991  0.3518 -0.7663 -1.1239
 6618TIP3    H219819   1.920   2.678   2.121  1.5466 -0.1879 -1.0568
 6619TIP3   OH219820   4.301   3.728   0.373  0.0624  0.8258 -0.0868
 6619TIP3    H119821   4.396   3.725   0.383  0.3278  0.6938 -2.1106
 6619TIP3    H219822   4.278   3.640   0.342 -0.4016  1.4452 -1.6165
 6620TIP3   OH219823   6.837   6.273   0.965 -0.3006  0.1639 -0.1759
 6620TIP3    H119824   6.932   6.266   0.954 -0.3723  1.5862 -2.3424
 6620TIP3    H219825   6.804   6.283   0.876 -2.5454 -0.5718  0.5160
 6621TIP3   OH219826   5.755   5.541   1.859 -0.0093 -0.1024 -0.8414
 6621TIP3    H119827   5.700   5.496   1.796  1.4447 -0.8254 -1.6605
 6621TIP3    H219828   5.731   5.634   1.851 -2.2580 -0.5602  0.0686
 6622TIP3   OH219829   6.621   3.274   2.644  0.2940  0.0652 -0.0875
 6622TIP3    H119830   6.551   3.210   2.629  2.0349 -1.6816 -1.3092
 6622TIP3    H219831   6.599   3.348   2.587  0.5486 -1.4197 -2.2236
 6623TIP3   OH219832   1.074   1.824   3.990 -0.5914  0.3703 -0.2527
 6623TIP3    H119833   1.086   1.882   3.915 -0.2093 -1.4840 -1.7300
 6623TIP3    H219834   1.161   1.790   4.009 -0.5848  1.2691  1.4694
 6624TIP3   OH219835   4.431   3.563   3.964  0.3744  0.5519 -0.2669
 6624TIP3    H119836   4.345   3.550   4.003 -0.1137 -0.4308 -1.6093
 6624TIP3    H219837   4.435   3.501   3.892  2.6530 -0.2129  0.4277
 6625TIP3   OH219838   3.965   0.117   3.505  0.3976 -0.1398 -0.0383
 6625TIP3    H119839   3.913   0.055   3.454  1.6902 -1.6430  0.3752
 6625TIP3    H219840   4.000   0.178   3.440 -1.5361  0.7033 -0.3589
 6626TIP3   OH219841   2.257   3.220   0.065 -0.2169  0.2593 -0.3385
 6626TIP3    H119842   2.330   3.262   0.019  0.2257  0.4701  0.5286
 6626TIP3    H219843   2.251   3.133   0.026  0.9954 -0.0306  0.0845
 6627TIP3   OH219844   6.481   1.359   5.312  0.3390 -0.3692 -0.4710
 6627TIP3    H119845   6.426   1.341   5.388  2.3014 -1.1307  0.8562
 6627TIP3    H219846   6.535   1.433   5.339  0.2739  0.0890 -1.5683
 6628TIP3   OH219847   5.640   3.818   2.240 -0.1716  0.6455 -0.3294
 6628TIP3    H119848   5.577   3.780   2.302 -2.4248  1.4650 -1.9875
 6628TIP3    H219849   5.699   3.871   2.294 -0.1448 -1.0495  1.4078
 6629TIP3   OH219850   0.078   0.780   3.053 -0.9465 -0.0890  0.0904
 6629TIP3    H119851   0.146   0.712   3.050 -1.1491 -0.2768 -0.6080
 6629TIP3    H219852  -0.005   0.731   3.049 -1.1258  0.1464  0.7692
 6630TIP3   OH219853   7.108   0.558   3.039  0.1482  0.5813 -0.3347
 6630TIP3    H119854   7.172   0.498   3.078 -0.2950 -1.4143 -2.4708
 6630TIP3    H219855   7.023   0.524   3.067 -0.0675  1.4623  0.1024
 6631TIP3   OH219856   4.855   0.828   3.282  0.0669  0.2595  0.1409
 6631TIP3    H119857   4.923   0.881   3.324  2.1493 -1.5883 -0.7022
 6631TIP3    H219858   4.776   0.846   3.333  1.3358  1.9362  1.6420
 6632TIP3   OH219859   2.750   4.797   5.261 -0.3324  0.1921 -0.0473
 6632TIP3    H119860   2.819   4.788   5.327 -0.9634 -0.2014  0.5874
 6632TIP3    H219861   2.669   4.791   5.312 -0.8353 -0.4766 -0.9000
 6633TIP3   OH219862   2.180   3.221   2.876 -0.0725  0.0923  0.1198
 6633TIP3    H119863   2.127   3.248   2.950 -0.1721 -0.0888  0.1138
 6633TIP3    H219864   2.256   3.280   2.878 -0.8597  1.1631 -0.5863
 6634TIP3   OH219865   2.373   1.120   2.360 -0.2932 -0.3287  0.1965
 6634TIP3    H119866   2.413   1.187   2.306 -0.2359  0.3680  1.0913
 6634TIP3    H219867   2.313   1.074   2.300 -1.4631  1.4655 -0.1064
 6635TIP3   OH219868   0.813   3.914   0.886  0.2627  0.5613 -0.3257
 6635TIP3    H119869   0.897   3.928   0.841  0.5758 -1.3446 -0.4189
 6635TIP3    H219870   0.783   3.829   0.853 -0.4842  0.0642  1.5585
 6636TIP3   OH219871   4.802   5.955   5.101  0.1333 -0.5622 -0.3683
 6636TIP3    H119872   4.723   5.913   5.067  1.0646 -1.9496 -0.9232
 6636TIP3    H219873   4.780   6.048   5.102 -2.4994 -1.0713  2.2342
 6637TIP3   OH219874   1.578   0.128   3.698 -0.1806 -0.2438  0.3498
 6637TIP3    H119875   1.508   0.190   3.678  0.6563  0.5918 -0.0783
 6637TIP3    H219876   1.559   0.099   3.787 -0.0880  1.3550  0.9355
 6638TIP3   OH219877   1.997   5.563   4.667 -0.0877  0.2392  0.0689
 6638TIP3    H119878   2.079   5.602   4.695 -1.2155  1.8729  1.3244
 6638TIP3    H219879   1.966   5.619   4.597 -0.7590  0.4306  0.5069
 6639TIP3   OH219880   1.673   0.063   0.403  0.1175 -0.1803 -0.0028
 6639TIP3    H119881   1.656   0.052   0.310 -0.6481  2.1149 -0.2025
 6639TIP3    H219882   1.714   0.150   0.410  0.7111 -0.5600  1.7360
 6640TIP3   OH219883   4.134   6.674   2.187 -0.3979  0.4163  0.6209
 6640TIP3    H119884   4.165   6.762   2.210  1.6264  0.1927 -0.9562
 6640TIP3    H219885   4.115   6.633   2.271  2.3380  1.0986  1.6819
 6641TIP3   OH219886   1.594   3.005   2.512 -0.0204 -0.3036  0.3070
 6641TIP3    H119887   1.508   3.032   2.479  0.4430  0.4198 -0.3315
 6641TIP3    H219888   1.656   3.065   2.470  0.6557  0.2120  1.9646
 6642TIP3   OH219889   6.620   1.736   0.895  0.0399  0.1080 -0.4948
 6642TIP3    H119890   6.640   1.642   0.893  0.4644  0.1810 -0.1232
 6642TIP3    H219891   6.581   1.755   0.810  1.0272 -0.1810 -1.0279
 6643TIP3   OH219892   3.469   5.501   0.718  0.1371 -0.0305  0.2154
 6643TIP3    H119893   3.480   5.438   0.789 -0.4067 -0.7938 -0.3527
 6643TIP3    H219894   3.557   5.513   0.683  0.3857  0.2321  0.9078
 6644TIP3   OH219895   4.535   1.042   1.422 -0.2112 -0.9495  0.1879
 6644TIP3    H119896   4.506   1.130   1.400  0.2443 -0.6235  0.8635
 6644TIP3    H219897   4.510   1.030   1.513  0.1116 -1.3553  0.2253
 6645TIP3   OH219898   2.352   5.717   0.899 -0.1569 -0.3549  0.8350
 6645TIP3    H119899   2.277   5.657   0.891 -1.2640  1.0247  0.3408
 6645TIP3    H219900   2.374   5.738   0.808 -1.3099  1.7510  0.9878
 6646TIP3   OH219901   6.574   6.339   2.243 -0.2213 -0.0808  0.0790
 6646TIP3    H119902   6.551   6.377   2.328 -0.2556 -1.6215  0.8019
 6646TIP3    H219903   6.508   6.372   2.182 -0.1458  1.1138  0.6213
 6647TIP3   OH219904   2.325   3.090   4.631  0.1044 -0.9003 -0.4878
 6647TIP3    H119905   2.321   3.171   4.683  1.3540 -2.3506  2.0410
 6647TIP3    H219906   2.335   3.120   4.540  0.6505  1.7636  0.3666
 6648TIP3   OH219907   2.214   2.349   4.317 -0.2198 -0.1931 -0.0917
 6648TIP3    H119908   2.267   2.322   4.392  0.8570 -0.0616 -0.7789
 6648TIP3    H219909   2.226   2.279   4.253 -0.6726 -0.0368 -0.3518
 6649TIP3   OH219910   4.455   0.572   1.360  0.2673 -0.0332 -0.1103
 6649TIP3    H119911   4.465   0.667   1.364  1.9369 -0.2108  1.4366
 6649TIP3    H219912   4.544   0.540   1.340  0.4461 -1.3579  2.4217
 6650TIP3   OH219913   1.185   0.933   5.554 -0.4835 -0.0078 -0.2081
 6650TIP3    H119914   1.199   0.894   5.468  1.5210  0.5854 -0.1783
 6650TIP3    H219915   1.272   0.952   5.588 -1.2803  1.8435  1.0168
 6651TIP3   OH219916   2.753   0.212   1.715  0.3190  0.0126 -0.0312
 6651TIP3    H119917   2.715   0.125   1.704  0.8546 -0.3396  0.8205
 6651TIP3    H219918   2.819   0.201   1.784 -1.3302  1.5947  1.9235
 6652TIP3   OH219919   3.293   3.851   4.548 -0.7908 -0.3683 -0.1588
 6652TIP3    H119920   3.255   3.780   4.496 -0.7851  0.2765 -1.0736
 6652TIP3    H219921   3.255   3.840   4.635 -2.7063 -0.0682 -0.8965
 6653TIP3   OH219922   4.819   4.131   4.129 -0.0889  0.2595 -0.1531
 6653TIP3    H119923   4.793   4.047   4.167  0.9605 -0.2370 -0.4884
 6653TIP3    H219924   4.743   4.158   4.077  0.2751 -1.5382 -1.7629
 6654TIP3   OH219925   0.282   4.043   1.209 -0.1847  0.0741 -0.3035
 6654TIP3    H119926   0.350   4.105   1.183  0.3256 -1.0278 -1.7450
 6654TIP3    H219927   0.282   3.977   1.140  0.6081 -2.6006  2.0618
 6655TIP3   OH219928   2.131   3.961   2.291 -0.5145 -0.0026  0.5049
 6655TIP3    H119929   2.097   4.011   2.365 -0.5279  0.8819 -0.0719
 6655TIP3    H219930   2.208   4.011   2.262 -1.4215  0.5683 -1.0426
 6656TIP3   OH219931   5.744   4.027   5.717  0.2528 -0.6096 -0.2091
 6656TIP3    H119932   5.665   4.007   5.767 -0.5631 -1.0491 -1.6221
 6656TIP3    H219933   5.813   3.974   5.758  0.0011  0.2624  1.4478
 6657TIP3   OH219934   2.082   4.005   2.798 -0.7248 -0.0824  0.0263
 6657TIP3    H119935   1.988   4.026   2.798 -0.8118 -0.4715  0.2309
 6657TIP3    H219936   2.121   4.071   2.854 -1.0687 -0.7507  1.0967
 6658TIP3   OH219937   0.300   0.360   4.505 -1.0048 -0.0989 -0.5722
 6658TIP3    H119938   0.238   0.290   4.485 -1.4589  0.5528 -1.5172
 6658TIP3    H219939   0.245   0.435   4.528 -0.5251 -0.2868  1.4275
 6659TIP3   OH219940   5.715  -0.003   2.272 -0.2504  0.5459 -0.1854
 6659TIP3    H119941   5.648   0.063   2.254 -2.4146 -1.4551  0.0448
 6659TIP3    H219942   5.717  -0.009   2.368  0.5538  0.8691 -0.1806
 6660TIP3   OH219943   2.642   5.130   5.369  0.5055 -0.0351  0.2501
 6660TIP3    H119944   2.616   5.121   5.461  0.7310  0.4867  0.3693
 6660TIP3    H219945   2.723   5.079   5.362  1.2366  1.0191  0.6802
 6661TIP3   OH219946   0.485   1.289   0.851 -0.5648 -0.0491  0.0338
 6661TIP3    H119947   0.509   1.377   0.880 -1.1320  0.2742 -0.4622
 6661TIP3    H219948   0.478   1.238   0.931  1.9099 -0.2094  0.2314
 6662TIP3   OH219949   6.411   2.330   0.009  0.4879  0.2732  0.2879
 6662TIP3    H119950   6.435   2.420   0.028  1.0125  0.2797 -0.3803
 6662TIP3    H219951   6.493   2.287  -0.014 -0.1378  0.5089 -2.8450
 6663TIP3   OH219952   1.094   0.451   0.534 -0.0905  0.2225 -0.2513
 6663TIP3    H119953   1.042   0.531   0.520  0.4868  0.3023 -2.1762
 6663TIP3    H219954   1.183   0.476   0.510 -0.1581 -1.3600 -2.3845
 6664TIP3   OH219955   0.790   4.002   0.235  0.5245 -0.4899 -0.2410
 6664TIP3    H119956   0.776   4.051   0.153  1.8130 -2.4367 -1.7042
 6664TIP3    H219957   0.711   4.019   0.286 -0.7128  0.1398 -2.2320
 6665TIP3   OH219958   4.551   2.360   4.386 -0.3986 -0.0521  0.2849
 6665TIP3    H119959   4.492   2.380   4.459 -0.1521 -1.9946  1.0795
 6665TIP3    H219960   4.510   2.400   4.310 -0.3428  2.5973  1.5376
 6666TIP3   OH219961   5.423   1.047   0.287 -0.2151 -0.0089  0.0081
 6666TIP3    H119962   5.515   1.050   0.260 -0.4053 -1.8937 -1.0015
 6666TIP3    H219963   5.379   0.999   0.217 -2.1659  1.6555  0.0157
 6667TIP3   OH219964   5.593   2.740   0.601 -0.1472  0.2670  0.2542
 6667TIP3    H119965   5.574   2.647   0.590  0.0733  0.1422  0.8740
 6667TIP3    H219966   5.685   2.742   0.630  0.2619  0.7578 -1.0230
 6668TIP3   OH219967   3.287   1.694   3.047  0.4453  0.5145 -0.3232
 6668TIP3    H119968   3.348   1.762   3.018  1.1464  1.1312  2.2902
 6668TIP3    H219969   3.342   1.633   3.097 -0.4329 -1.1820 -1.3433
 6669TIP3   OH219970   1.672   0.358   4.473  0.2247 -0.0700 -0.1465
 6669TIP3    H119971   1.639   0.447   4.473  0.6678  0.0991 -0.2757
 6669TIP3    H219972   1.662   0.328   4.564  0.4398  0.2495 -0.0167
 6670TIP3   OH219973   4.358   5.573   5.880 -0.1942  0.3720 -0.1419
 6670TIP3    H119974   4.391   5.658   5.909 -1.2895  2.1565 -3.5383
 6670TIP3    H219975   4.334   5.588   5.789 -1.4035 -3.3731 -0.5650
 6671TIP3   OH219976   2.600   4.930   0.603  0.3987  0.4056  0.3868
 6671TIP3    H119977   2.605   4.994   0.673 -0.9469  0.1671  0.7153
 6671TIP3    H219978   2.596   4.982   0.523 -1.0065  0.7751  0.6686
 6672TIP3   OH219979   0.872   1.936   0.409 -0.4278  0.3419  1.1869
 6672TIP3    H119980   0.895   1.982   0.328  1.8473 -1.3449  0.8044
 6672TIP3    H219981   0.915   1.986   0.478  0.0657  0.1465  1.0252
 6673TIP3   OH219982   3.690   2.072   4.273  0.2319  0.1622 -0.0232
 6673TIP3    H119983   3.703   2.149   4.218  0.5973  0.4587  0.4673
 6673TIP3    H219984   3.765   2.072   4.333  0.3541 -0.7001 -0.1575
 6674TIP3   OH219985   0.812   1.300   0.774 -0.1532  0.0166  1.0228
 6674TIP3    H119986   0.857   1.256   0.846  0.7535  2.3232  1.9447
 6674TIP3    H219987   0.882   1.328   0.715 -0.8064 -0.8245 -0.2061
 6675TIP3   OH219988   7.207   4.460   2.242 -0.5342 -0.6000  0.2823
 6675TIP3    H119989   7.205   4.475   2.336  0.0764 -3.4272  0.8391
 6675TIP3    H219990   7.138   4.517   2.207  0.3352  1.7862  2.1592
 6676TIP3   OH219991   5.436   1.398   3.103 -0.0500  0.3868 -0.0213
 6676TIP3    H119992   5.490   1.349   3.040  0.2344  0.8111 -0.1172
 6676TIP3    H219993   5.438   1.345   3.183 -0.8745 -0.4355 -0.5316
 6677TIP3   OH219994   0.065   6.370   5.298  0.7563 -0.1306 -0.5354
 6677TIP3    H119995   0.081   6.456   5.260  0.2249  0.3849  0.3599
 6677TIP3    H219996   0.146   6.321   5.283  1.3336  0.7709 -0.4290
 6678TIP3   OH219997   5.783   5.269   1.003 -0.2884 -0.6387  0.1553
 6678TIP3    H119998   5.711   5.295   1.060 -1.6063 -0.1436 -1.6525
 6678TIP3    H219999   5.749   5.192   0.956  0.9643 -1.3662  0.4003
 6679TIP3   OH220000   6.774   5.642   5.073  0.0645  0.1873 -0.1176
 6679TIP3    H120001   6.692   5.593   5.080 -0.9145  1.1889 -3.0522
 6679TIP3    H220002   6.803   5.653   5.163 -1.1801 -3.1646  0.8567
 6680TIP3   OH220003   5.848   5.978   0.888  0.3237 -0.1979  0.1346
 6680TIP3    H120004   5.829   5.980   0.794 -0.4711 -1.6432  0.2473
 6680TIP3    H220005   5.913   6.048   0.900  1.7064 -1.0588 -1.7720
 6681TIP3   OH220006   0.460   6.027   3.048  0.7493  0.0294  0.1435
 6681TIP3    H120007   0.472   5.932   3.049  0.6761  0.0175  1.3562
 6681TIP3    H220008   0.546   6.062   3.072  0.4781  0.2085  0.9030
 6682TIP3   OH220009   0.041   4.925   0.427 -0.0641 -0.1733 -0.0299
 6682TIP3    H120010   0.117   4.963   0.382 -0.7557  0.1148 -1.0001
 6682TIP3    H220011   0.021   4.846   0.377 -0.1594 -0.4607  0.4593
 6683TIP3   OH220012   4.137   1.167   0.362  0.0879  0.0606 -0.4794
 6683TIP3    H120013   4.202   1.100   0.342 -0.5042 -0.6248 -0.1831
 6683TIP3    H220014   4.150   1.185   0.455 -0.1011 -0.0350 -0.4336
 6684TIP3   OH220015   1.508   5.065   2.642 -0.0113 -0.0858 -0.3021
 6684TIP3    H120016   1.516   5.152   2.682 -0.6465 -0.0803 -0.1689
 6684TIP3    H220017   1.584   5.058   2.584 -0.2133  0.7599 -0.6936
 6685TIP3   OH220018   3.392   2.711   4.197 -0.6812 -0.0115 -0.0717
 6685TIP3    H120019   3.400   2.617   4.180 -0.8854  0.1338 -1.0751
 6685TIP3    H220020   3.299   2.730   4.180 -0.3557  0.6120 -1.2639
 6686TIP3   OH220021   3.053   0.124   4.681  0.4775  0.0589 -0.3819
 6686TIP3    H120022   3.093   0.039   4.701 -0.5742  0.0629  2.1287
 6686TIP3    H220023   3.122   0.188   4.700  0.8019 -0.1451 -0.8487
 6687TIP3   OH220024   2.142   3.693   3.146  0.1489  0.2594  0.5110
 6687TIP3    H120025   2.149   3.602   3.116 -1.8346  0.5418 -1.0391
 6687TIP3    H220026   2.213   3.739   3.102  0.1983 -0.2483  0.0468
 6688TIP3   OH220027   0.234   1.910   5.537 -0.2260 -0.0872 -0.0420
 6688TIP3    H120028   0.217   2.003   5.556 -0.2240 -0.1846  0.4675
 6688TIP3    H220029   0.260   1.908   5.445  1.2289  0.6180  0.3336
 6689TIP3   OH220030   5.273   6.568   3.231  0.2164 -0.0446 -0.2332
 6689TIP3    H120031   5.308   6.529   3.151 -1.1401 -1.2224 -0.2932
 6689TIP3    H220032   5.218   6.500   3.269  1.9677 -0.0708  2.5196
 6690TIP3   OH220033   4.187   3.214   5.795  0.0607 -0.8024  0.2164
 6690TIP3    H120034   4.174   3.232   5.702  0.7603 -2.3013 -0.2077
 6690TIP3    H220035   4.274   3.249   5.814  0.0808 -0.8448  0.2043
 6691TIP3   OH220036   0.111   1.822   1.865  0.2281 -0.3969  0.4232
 6691TIP3    H120037   0.166   1.842   1.941 -0.1128  0.3867  0.4722
 6691TIP3    H220038   0.095   1.907   1.824  0.3575 -0.8060 -0.4925
 6692TIP3   OH220039   6.600   0.261   5.057  0.0899 -0.0879  0.5880
 6692TIP3    H120040   6.636   0.349   5.047 -2.1746  0.6147 -3.2783
 6692TIP3    H220041   6.544   0.267   5.134 -2.0447  2.7639 -1.0107
 6693TIP3   OH220042   5.480   6.013   1.531  0.4621 -0.2218 -0.1087
 6693TIP3    H120043   5.564   6.038   1.568 -0.2386  0.7715  0.8926
 6693TIP3    H220044   5.436   5.966   1.602  0.2697 -0.9721 -0.7147
 6694TIP3   OH220045   0.733   3.013   4.326  0.0602  0.1567  0.0069
 6694TIP3    H120046   0.665   2.970   4.378  0.8006  0.5990  1.4022
 6694TIP3    H220047   0.733   3.104   4.357  0.7379  0.3502 -0.5428
 6695TIP3   OH220048   5.682   1.636   5.237  0.2546 -0.4185  0.3299
 6695TIP3    H120049   5.636   1.562   5.197 -2.3931 -0.1153  2.5187
 6695TIP3    H220050   5.645   1.713   5.195  0.0429 -0.2216  0.8740
 6696TIP3   OH220051   2.767   1.232   0.491  0.1274 -0.0459  0.0884
 6696TIP3    H120052   2.699   1.253   0.427 -1.1103  0.0203  1.3599
 6696TIP3    H220053   2.830   1.304   0.485  0.7209 -0.6685 -1.8857
 6697TIP3   OH220054   5.670   5.825   1.037  0.3417 -0.0185 -0.1522
 6697TIP3    H120055   5.739   5.865   0.984  1.5013 -1.0346  0.5465
 6697TIP3    H220056   5.679   5.731   1.021 -0.4215 -0.2117  0.5111
 6698TIP3   OH220057   3.155   3.342   4.811  0.1535  0.2727  0.0432
 6698TIP3    H120058   3.242   3.374   4.790  0.3236  0.4801  1.0292
 6698TIP3    H220059   3.160   3.247   4.794  0.1672  0.4677 -1.1566
 6699TIP3   OH220060   7.096   0.804   0.878  0.6509 -0.4056  0.1593
 6699TIP3    H120061   7.143   0.857   0.813 -0.1880  1.4259  0.9892
 6699TIP3    H220062   7.003   0.816   0.856  0.4400 -2.8262 -0.5770
 6700TIP3   OH220063   3.700   4.158   0.177  0.2799  0.1644 -0.0955
 6700TIP3    H120064   3.637   4.189   0.241 -0.3253 -0.3556 -0.4336
 6700TIP3    H220065   3.657   4.170   0.092 -0.1078 -1.8649 -0.2177
 6701TIP3   OH220066   3.336   0.220   0.898 -0.4324  0.6144  0.5829
 6701TIP3    H120067   3.409   0.162   0.921 -1.0051  0.1303  1.2437
 6701TIP3    H220068   3.268   0.198   0.961 -2.0400 -0.6338 -1.4653
 6702TIP3   OH220069   0.047   1.748   5.669 -0.0492 -0.8836  0.2755
 6702TIP3    H120070  -0.040   1.781   5.687  0.5082  0.2671  0.9615
 6702TIP3    H220071   0.099   1.826   5.647  1.1439 -1.3531  1.2954
 6703TIP3   OH220072   5.380   2.201   2.766  1.2434  0.2385  0.3187
 6703TIP3    H120073   5.336   2.119   2.740  1.6595 -0.1862  0.9108
 6703TIP3    H220074   5.405   2.186   2.858  1.7041  0.8714  0.3017
 6704TIP3   OH220075   3.210   3.305   3.823  0.5321  0.1973  0.2555
 6704TIP3    H120076   3.208   3.398   3.843  0.2694  0.2322  0.0745
 6704TIP3    H220077   3.217   3.302   3.727 -0.1895  0.0323  0.2005
 6705TIP3   OH220078   1.180   1.665   2.613  0.1320  0.3322  0.2511
 6705TIP3    H120079   1.216   1.744   2.654 -1.4986  0.5456  1.4023
 6705TIP3    H220080   1.209   1.593   2.670  0.1517  0.3100  0.2129
 6706TIP3   OH220081   0.057   6.536   5.626 -0.1733 -0.4384  0.6044
 6706TIP3    H120082   0.045   6.446   5.596 -3.0821 -0.3713  1.2365
 6706TIP3    H220083   0.130   6.532   5.688  1.1787 -1.9072 -1.0063
 6707TIP3   OH220084   1.203   5.423   3.783 -0.1393  0.7246  0.2624
 6707TIP3    H120085   1.186   5.414   3.877 -1.9934  0.0306 -0.0874
 6707TIP3    H220086   1.284   5.474   3.778  1.4266 -1.3436  2.2574
 6708TIP3   OH220087   2.631   1.485   2.054  0.0901 -0.5186  0.2785
 6708TIP3    H120088   2.667   1.454   1.971  0.9567 -2.4592  1.3103
 6708TIP3    H220089   2.616   1.579   2.040  0.5383 -0.7121 -1.9233
 6709TIP3   OH220090   2.751   2.449   0.621 -0.1190 -0.0619  0.0146
 6709TIP3    H120091   2.775   2.492   0.703 -1.7891  2.3578 -0.6604
 6709TIP3    H220092   2.732   2.359   0.645  0.4183  0.3364  2.0935
 6710TIP3   OH220093   6.035   5.773   0.785 -0.2441 -0.5128  0.1213
 6710TIP3    H120094   5.996   5.736   0.864 -2.5322 -0.2398 -0.8003
 6710TIP3    H220095   6.017   5.707   0.717  0.7491 -0.2743 -0.3861
 6711TIP3   OH220096   3.488   3.563   0.259  0.3185 -0.3217  0.3183
 6711TIP3    H120097   3.513   3.569   0.167 -1.6251  0.3700 -0.2091
 6711TIP3    H220098   3.474   3.469   0.274 -1.7979 -0.2563 -0.8457
 6712TIP3   OH220099   5.726   0.278   1.488 -0.0190 -0.3557 -1.0379
 6712TIP3    H120100   5.745   0.319   1.403  0.4938  0.2104 -0.6557
 6712TIP3    H220101   5.780   0.327   1.550 -0.9650 -0.2817 -0.2684
 6713TIP3   OH220102   0.689   6.666   0.268 -0.0247 -0.0925  0.2859
 6713TIP3    H120103   0.711   6.576   0.243 -2.1385 -1.1505  1.8634
 6713TIP3    H220104   0.760   6.693   0.325  1.0736 -0.4020 -0.8827
 6714TIP3   OH220105   3.643   3.563   2.627  0.1770  0.3117 -0.2442
 6714TIP3    H120106   3.664   3.652   2.598  1.5526  0.2829  0.5683
 6714TIP3    H220107   3.719   3.511   2.601 -0.5911 -0.6256 -0.6484
 6715TIP3   OH220108   3.727   0.384   0.648 -0.1290  0.3833 -1.0858
 6715TIP3    H120109   3.705   0.365   0.739  0.9617  1.8605 -0.4625
 6715TIP3    H220110   3.646   0.422   0.612 -0.6407 -0.4274 -0.8323
 6716TIP3   OH220111   5.032   5.600   1.612  0.2952 -0.5332 -0.3378
 6716TIP3    H120112   5.011   5.646   1.531 -0.6390  0.3929  0.3929
 6716TIP3    H220113   4.957   5.543   1.627  1.6210 -2.6643 -1.4419
 6717TIP3   OH220114   5.376   0.637   2.801 -0.4992  0.4942  0.0352
 6717TIP3    H120115   5.440   0.680   2.857 -0.4534 -1.3224  1.4895
 6717TIP3    H220116   5.357   0.700   2.732  2.4653  1.2892 -0.1681
 6718TIP3   OH220117   3.271   4.920   4.231 -0.7165  0.4803  0.3145
 6718TIP3    H120118   3.246   4.861   4.301 -0.0811  1.0210  1.0126
 6718TIP3    H220119   3.188   4.955   4.198 -1.0344 -0.0235  0.5607
 6719TIP3   OH220120   0.886   6.658   0.661  0.2436  0.3800 -0.1626
 6719TIP3    H120121   0.973   6.668   0.700 -0.1548 -2.6958  1.8351
 6719TIP3    H220122   0.902   6.662   0.567  2.5140  0.1001  0.1603
 6720TIP3   OH220123   0.302   1.072   0.386 -0.2143  0.5264 -0.4566
 6720TIP3    H120124   0.338   1.124   0.459 -0.5493 -0.6543  0.5910
 6720TIP3    H220125   0.231   1.126   0.352 -2.0685 -0.1271  2.0941
 6721TIP3   OH220126   7.045   2.025   2.971 -0.3320 -0.0882  0.3037
 6721TIP3    H120127   7.022   2.118   2.978  0.0039 -0.0413  0.8498
 6721TIP3    H220128   6.997   1.983   3.043 -1.0919 -0.4643 -0.4084
 6722TIP3   OH220129   2.474   1.113   3.877 -0.4288  0.2040 -0.0717
 6722TIP3    H120130   2.507   1.100   3.788 -0.6368 -0.0523 -0.1113
 6722TIP3    H220131   2.462   1.208   3.884  1.4449  0.4465  0.3445
 6723TIP3   OH220132   5.246   1.367   4.280  0.2491 -0.4219 -0.0201
 6723TIP3    H120133   5.252   1.429   4.353 -1.0653 -0.2229 -0.0693
 6723TIP3    H220134   5.156   1.374   4.250  0.2641 -1.8962 -0.4518
 6724TIP3   OH220135   6.153   2.173   5.596  0.1579 -0.1291 -0.6938
 6724TIP3    H120136   6.131   2.238   5.663  1.8792 -0.2848  0.0818
 6724TIP3    H220137   6.186   2.223   5.523 -1.3802  0.0186 -1.3246
 6725TIP3   OH220138   4.380   1.512   5.542  0.2658  0.5075 -0.9850
 6725TIP3    H120139   4.338   1.521   5.627 -0.9832 -1.3666 -1.3600
 6725TIP3    H220140   4.335   1.575   5.486 -2.8007 -1.9889 -1.5877
 6726TIP3   OH220141   2.640   5.301   2.534 -0.5798 -0.2466  0.1587
 6726TIP3    H120142   2.690   5.292   2.453  0.6641 -2.7175  1.1194
 6726TIP3    H220143   2.696   5.354   2.591 -1.4367  1.4555 -0.5022
 6727TIP3   OH220144   6.110   0.311   0.546 -0.8805  0.6229 -0.0075
 6727TIP3    H120145   6.125   0.397   0.585  0.2648  1.0875 -1.3903
 6727TIP3    H220146   6.197   0.272   0.537 -1.4390 -0.9923  1.2150
 6728TIP3   OH220147   5.590   2.243   4.054  0.1722  0.4720  0.6017
 6728TIP3    H120148   5.661   2.300   4.081  0.6807 -0.0744  0.4381
 6728TIP3    H220149   5.579   2.181   4.126  1.8276 -1.2694 -0.5402
 6729TIP3   OH220150   4.988   0.974   2.673  0.1121  0.3374  0.2703
 6729TIP3    H120151   5.015   0.912   2.604  0.5426  0.8245 -0.0051
 6729TIP3    H220152   4.956   0.918   2.744 -0.3215 -0.1759 -0.3139
 6730TIP3   OH220153   7.173   4.966   0.679 -0.5978 -0.3015 -0.1571
 6730TIP3    H120154   7.217   4.958   0.594 -0.5148 -0.7445 -0.0752
 6730TIP3    H220155   7.080   4.953   0.660 -0.8330  1.6266 -0.4825
 6731TIP3   OH220156   2.068   0.940   2.703 -0.1307 -0.2850  0.0712
 6731TIP3    H120157   2.078   1.035   2.693 -0.9706 -0.3689 -2.3043
 6731TIP3    H220158   2.146   0.903   2.660 -1.9434 -0.6470 -3.2334
 6732TIP3   OH220159   7.040   3.693   2.853 -0.0299  0.1126 -0.0589
 6732TIP3    H120160   7.085   3.668   2.773 -0.4698  0.0968 -0.3070
 6732TIP3    H220161   7.004   3.780   2.833  0.6273  0.5082  0.4395
 6733TIP3   OH220162   2.688   3.447   5.120 -0.1743 -0.1426  0.1052
 6733TIP3    H120163   2.690   3.443   5.025  0.4194  1.0194  0.0585
 6733TIP3    H220164   2.733   3.367   5.148  0.7035  0.0982 -0.5972
 6734TIP3   OH220165   6.315   1.421   5.869 -0.2010  0.0547 -0.3335
 6734TIP3    H120166   6.379   1.487   5.897 -0.3969 -0.0201  0.3087
 6734TIP3    H220167   6.322   1.420   5.773 -0.7624  1.5856 -0.4222
 6735TIP3   OH220168   5.531   5.434   5.676  0.1503  0.3280  0.4784
 6735TIP3    H120169   5.460   5.445   5.740  0.6225  2.2627  0.7230
 6735TIP3    H220170   5.577   5.518   5.676  1.3378 -0.2729 -1.0245
 6736TIP3   OH220171   2.589   4.766   2.979  0.5209  0.6461 -0.5875
 6736TIP3    H120172   2.576   4.834   3.046 -2.5796 -0.4482  0.1123
 6736TIP3    H220173   2.533   4.794   2.906 -0.8860 -1.0920 -0.2491
 6737TIP3   OH220174   5.169   6.530   1.399  0.4752 -0.2164 -0.0789
 6737TIP3    H120175   5.233   6.462   1.421 -1.7929 -2.7796 -0.9226
 6737TIP3    H220176   5.213   6.583   1.332  1.7984 -1.7483 -0.4856
 6738TIP3   OH220177   3.920   3.790   2.483 -0.4983  0.0326  0.5257
 6738TIP3    H120178   3.874   3.842   2.417  1.1652  0.9192  0.0164
 6738TIP3    H220179   3.953   3.714   2.435  0.8814  0.7772  0.2568
 6739TIP3   OH220180   5.845   6.571   3.756 -0.3623 -0.8659 -0.0816
 6739TIP3    H120181   5.762   6.608   3.726 -0.1094 -1.5011 -1.7087
 6739TIP3    H220182   5.904   6.582   3.681 -0.2911 -4.5684 -0.7441
 6740TIP3   OH220183   6.353   3.643   4.257 -0.1686  0.4349  0.0232
 6740TIP3    H120184   6.370   3.633   4.164 -0.6929 -1.2542  0.0645
 6740TIP3    H220185   6.310   3.561   4.282 -0.5268  1.0802  1.6369
 6741TIP3   OH220186   4.809   5.463   1.258  0.3033 -0.5534  0.9045
 6741TIP3    H120187   4.717   5.470   1.233 -0.0091  0.4043  2.1756
 6741TIP3    H220188   4.847   5.401   1.196 -0.6437  0.8030 -1.1544
 6742TIP3   OH220189   3.470   0.632   4.906 -0.3425  0.1883 -0.2347
 6742TIP3    H120190   3.556   0.631   4.864 -0.4810 -0.0330 -0.5187
 6742TIP3    H220191   3.480   0.692   4.980 -0.3623  1.3253 -1.1402
 6743TIP3   OH220192   1.607   6.482   2.867 -0.1009  0.7959 -0.2460
 6743TIP3    H120193   1.684   6.527   2.835 -0.8273  1.6402 -0.8554
 6743TIP3    H220194   1.628   6.459   2.958  0.8042  1.1180 -0.3656
 6744TIP3   OH220195   6.699   2.368   5.649  0.1501  0.0496 -0.1365
 6744TIP3    H120196   6.658   2.329   5.572  1.7272 -1.6120 -0.2055
 6744TIP3    H220197   6.680   2.307   5.720  0.2140  0.6575  0.4094
 6745TIP3   OH220198   6.395   1.331   4.800  0.4654 -0.2987 -0.3521
 6745TIP3    H120199   6.395   1.425   4.784 -0.4335 -0.3065 -0.4344
 6745TIP3    H220200   6.472   1.316   4.855  0.8403  0.4180 -0.6653
 6746TIP3   OH220201   7.031   1.425   4.554 -0.0799 -0.3967  0.1680
 6746TIP3    H120202   6.944   1.420   4.594  0.3528 -1.5522  1.0045
 6746TIP3    H220203   7.019   1.391   4.466 -0.3801 -1.0511  0.4588
 6747TIP3   OH220204   1.393   2.725   1.322  0.3147 -0.1863 -0.2136
 6747TIP3    H120205   1.336   2.654   1.295  0.5431  0.2782 -2.0473
 6747TIP3    H220206   1.340   2.777   1.382 -0.4796 -0.8858 -0.2998
 6748TIP3   OH220207   3.687   6.723   2.491 -0.7650 -0.1018 -0.4655
 6748TIP3    H120208   3.689   6.811   2.451 -0.6428 -0.1765 -0.6266
 6748TIP3    H220209   3.745   6.671   2.435  0.2502  0.0515  0.4120
 6749TIP3   OH220210   0.566   6.317   5.680 -0.4007  0.0087  0.5039
 6749TIP3    H120211   0.510   6.243   5.658 -1.0750  1.4358 -3.3998
 6749TIP3    H220212   0.654   6.291   5.653  0.0252 -0.4674  2.1995
 6750TIP3   OH220213   5.576   4.643   3.867  0.3263 -0.0242 -0.7097
 6750TIP3    H120214   5.604   4.577   3.930  0.0859  0.0010 -0.5753
 6750TIP3    H220215   5.606   4.610   3.782 -2.1183 -1.6634 -1.0368
 6751TIP3   OH220216   3.789   3.122   0.941  0.0394 -0.7363  0.1630
 6751TIP3    H120217   3.778   3.171   0.859  0.9471 -1.5426 -0.4502
 6751TIP3    H220218   3.700   3.116   0.977 -0.2014  0.6893 -0.1183
 6752TIP3   OH220219   0.372   1.407   3.158 -0.3110  0.0196 -0.2784
 6752TIP3    H120220   0.455   1.366   3.135 -0.6597 -0.9208  0.0516
 6752TIP3    H220221   0.388   1.451   3.242 -0.3985 -1.0558  0.3245
 6753TIP3   OH220222   6.035   0.946   5.229  0.1790  0.1206  0.3691
 6753TIP3    H120223   6.089   0.882   5.276  0.6114  0.1682 -0.0551
 6753TIP3    H220224   5.945   0.923   5.253  0.4051  0.5438  1.7293
 6754TIP3   OH220225   2.076   5.878   2.197 -0.3859 -0.8837 -0.1155
 6754TIP3    H120226   2.151   5.934   2.177 -0.7807 -0.7307 -1.2252
 6754TIP3    H220227   2.114   5.803   2.243  0.1716  0.2042  1.2755
 6755TIP3   OH220228   0.564   4.316   4.113  0.4378 -0.5801  0.5007
 6755TIP3    H120229   0.636   4.280   4.164  0.1692 -2.0915 -0.1338
 6755TIP3    H220230   0.599   4.397   4.076  0.5239  0.7884  3.3038
 6756TIP3   OH220231   4.364   0.468   4.437 -0.0127  0.2542 -0.0216
 6756TIP3    H120232   4.440   0.460   4.495 -0.2186  1.6862  0.4743
 6756TIP3    H220233   4.359   0.383   4.393  0.8936 -0.4266  1.1306
 6757TIP3   OH220234   2.943   2.460   3.195 -0.6687  0.0762 -0.0718
 6757TIP3    H120235   2.990   2.407   3.259 -1.4387 -0.3014  0.1979
 6757TIP3    H220236   2.851   2.440   3.210 -0.8241 -1.3034 -2.3916
 6758TIP3   OH220237   6.807   5.770   3.369 -0.2929  0.1581  0.7023
 6758TIP3    H120238   6.893   5.728   3.365  0.1497  1.1363 -1.9713
 6758TIP3    H220239   6.827   5.862   3.384 -0.9313  0.2754  0.8260
 6759TIP3   OH220240   0.192   3.665   3.117 -0.2299 -0.0261 -0.3155
 6759TIP3    H120241   0.103   3.700   3.112 -1.2251 -1.9465  2.0323
 6759TIP3    H220242   0.180   3.571   3.123  1.6688 -0.2232  3.1254
 6760TIP3   OH220243   3.959   5.352   1.834  0.4681 -0.5096 -0.2783
 6760TIP3    H120244   3.984   5.354   1.742 -1.9952  1.7605 -1.0107
 6760TIP3    H220245   3.946   5.260   1.854 -0.8196 -0.9337 -2.7900
 6761TIP3   OH220246   2.984   1.182   1.982  0.0112  0.2835 -0.3008
 6761TIP3    H120247   2.976   1.100   1.932  0.3672 -0.8346  1.3889
 6761TIP3    H220248   2.917   1.239   1.945 -1.8513 -1.6017 -0.0052
 6762TIP3   OH220249   3.308   1.657   0.402  0.3886 -0.4728  0.2946
 6762TIP3    H120250   3.313   1.702   0.318 -1.1126  0.0829  0.4581
 6762TIP3    H220251   3.375   1.589   0.398 -0.0107 -0.8146 -1.5858
 6763TIP3   OH220252   4.814   2.317   3.947  0.1449  0.2263 -0.0267
 6763TIP3    H120253   4.823   2.361   3.862  2.1519 -0.2160 -0.0837
 6763TIP3    H220254   4.902   2.289   3.969 -0.6904 -1.6505  1.1702
 6764TIP3   OH220255   0.889   5.817   0.503  0.4564 -0.0791  0.4631
 6764TIP3    H120256   0.958   5.797   0.440  0.6492 -1.0188  0.9542
 6764TIP3    H220257   0.886   5.741   0.561 -1.6315 -0.4972 -0.1091
 6765TIP3   OH220258   2.878   2.730   2.408 -0.0678  0.8306 -0.2683
 6765TIP3    H120259   2.914   2.644   2.387  1.0488  0.8076  1.5485
 6765TIP3    H220260   2.944   2.792   2.378  0.6294  0.8818  1.3104
 6766TIP3   OH220261   3.440   3.298   4.088 -0.2869 -0.1456  0.3728
 6766TIP3    H120262   3.491   3.257   4.018 -0.7814 -0.4097  0.1618
 6766TIP3    H220263   3.431   3.229   4.154 -0.7329 -0.2402  0.2179
 6767TIP3   OH220264   1.133   0.572   4.928  0.1429  0.0316 -0.1694
 6767TIP3    H120265   1.071   0.598   4.996 -0.4502 -0.5180 -0.4902
 6767TIP3    H220266   1.105   0.620   4.850  0.0618 -0.2789 -0.3351
 6768TIP3   OH220267   4.235   2.461   0.439 -0.1045  0.5140 -0.2773
 6768TIP3    H120268   4.315   2.513   0.449 -0.0713  0.3421  0.4649
 6768TIP3    H220269   4.164   2.522   0.458 -0.1392  0.6206 -0.7503
 6769TIP3   OH220270   3.587   2.360   5.532  0.3847 -0.5471 -0.6500
 6769TIP3    H120271   3.656   2.309   5.490 -0.4128 -1.4765 -0.8732
 6769TIP3    H220272   3.545   2.408   5.460  1.2911  0.6562 -0.4090
 6770TIP3   OH220273   2.898   0.505   2.799 -0.1309  0.1523 -0.2926
 6770TIP3    H120274   2.812   0.484   2.837 -0.5297  0.3373 -1.0622
 6770TIP3    H220275   2.926   0.584   2.846  0.5540 -1.0182  1.3525
 6771TIP3   OH220276   0.021   4.408   5.829 -0.8093 -0.0665  1.1004
 6771TIP3    H120277   0.105   4.362   5.834 -0.9217 -0.5708 -0.9498
 6771TIP3    H220278   0.037   4.492   5.873  0.8375 -0.0461  0.5339
 6772TIP3   OH220279   4.826   5.202   3.764  0.1236 -0.2875 -0.4520
 6772TIP3    H120280   4.870   5.175   3.845 -3.3273  0.7745  2.0254
 6772TIP3    H220281   4.807   5.295   3.777 -1.1893 -0.2807 -2.1425
 6773TIP3   OH220282   0.616   1.601   4.861  0.7760  0.7055 -0.2848
 6773TIP3    H120283   0.579   1.514   4.876  0.6034  0.9585  0.8810
 6773TIP3    H220284   0.548   1.662   4.892  1.2338  1.2300 -0.2937
 6774TIP3   OH220285   6.751   5.912   1.855  0.3292  0.3081  0.4732
 6774TIP3    H120286   6.773   5.992   1.808  0.6500 -0.1559 -0.1873
 6774TIP3    H220287   6.710   5.942   1.936 -0.2329  1.1277 -0.0963
 6775TIP3   OH220288   3.226   0.473   4.912 -0.2127  0.0857 -0.5730
 6775TIP3    H120289   3.223   0.381   4.937 -0.0775 -0.1578 -1.4158
 6775TIP3    H220290   3.319   0.493   4.905 -0.2167  0.5733  0.5926
 6776TIP3   OH220291   5.177   4.907   3.008 -0.5989 -0.3333  0.6819
 6776TIP3    H120292   5.176   4.973   2.939 -0.5835 -1.2772 -0.2448
 6776TIP3    H220293   5.085   4.888   3.024 -0.6598  0.7010  1.7656
 6777TIP3   OH220294   7.216   1.086   2.195  0.4974 -0.2220  0.3107
 6777TIP3    H120295   7.134   1.134   2.180  0.4285 -0.4768 -0.1654
 6777TIP3    H220296   7.268   1.103   2.116  1.2594  0.6341  0.9716
 6778TIP3   OH220297   2.050   5.021   3.759 -0.4846  0.3537 -0.2527
 6778TIP3    H120298   1.987   4.949   3.767  1.9726 -1.8646  0.7289
 6778TIP3    H220299   2.033   5.075   3.837  1.4491 -2.6349  2.5151
 6779TIP3   OH220300   5.387   4.892   1.691  0.1437 -0.0640 -0.1899
 6779TIP3    H120301   5.348   4.965   1.740 -1.5141 -0.9001 -0.1955
 6779TIP3    H220302   5.427   4.837   1.758  1.6600  0.9533 -0.2096
 6780TIP3   OH220303   0.183   0.266   2.022 -0.2779 -0.1282  0.3480
 6780TIP3    H120304   0.091   0.293   2.025  0.3686  2.3420  0.1539
 6780TIP3    H220305   0.181   0.181   1.978 -2.4103  0.1512 -0.2470
 6781TIP3   OH220306   7.051   0.973   2.471  0.3414  0.3510  0.0949
 6781TIP3    H120307   7.146   0.983   2.466  0.2556  0.5610 -1.6957
 6781TIP3    H220308   7.035   0.948   2.562  1.9169  2.3027  0.9964
 6782TIP3   OH220309   5.212   5.513   3.241  0.5812  0.1565  0.1467
 6782TIP3    H120310   5.261   5.507   3.159 -0.1449 -1.9054 -0.2036
 6782TIP3    H220311   5.178   5.603   3.242  1.5450  0.5777 -1.2332
 6783TIP3   OH220312   2.783   2.975   3.469 -0.3126  0.0452  0.0445
 6783TIP3    H120313   2.732   2.907   3.513  0.5630 -0.0798  0.9119
 6783TIP3    H220314   2.794   3.043   3.536  0.9212 -0.0756 -0.0074
 6784TIP3   OH220315   0.345   3.970   5.171 -0.3513  0.4407  0.0773
 6784TIP3    H120316   0.356   4.033   5.242 -1.9219  0.9120 -0.0610
 6784TIP3    H220317   0.433   3.934   5.157  0.5905  2.5357  0.2198
 6785TIP3   OH220318   4.006   5.268   4.321  0.2187  0.0085 -1.0182
 6785TIP3    H120319   4.008   5.178   4.353 -0.8905  0.6038  0.8796
 6785TIP3    H220320   3.913   5.286   4.306  0.5883  0.1796 -3.5245
 6786TIP3   OH220321   2.721   3.285   0.479  0.1432  0.3610  0.2309
 6786TIP3    H120322   2.660   3.313   0.411 -0.1725  0.7251  0.6590
 6786TIP3    H220323   2.676   3.214   0.525  1.0178 -1.0513 -0.9773
 6787TIP3   OH220324   5.587   3.668   0.428  1.1458 -0.2683 -0.3995
 6787TIP3    H120325   5.639   3.588   0.420 -1.2586 -2.0281  0.4422
 6787TIP3    H220326   5.501   3.645   0.391 -0.5168  0.9675  2.3899
 6788TIP3   OH220327   6.891   5.082   5.011  0.6300 -0.0693 -0.6500
 6788TIP3    H120328   6.963   5.088   5.074 -0.3019 -1.1552  0.5679
 6788TIP3    H220329   6.904   4.998   4.968  1.5737  0.9039 -2.3606
 6789TIP3   OH220330   3.436   6.445   2.237 -0.1195  0.1036 -0.3292
 6789TIP3    H120331   3.464   6.474   2.151  0.2978  0.0693 -0.2086
 6789TIP3    H220332   3.497   6.373   2.259 -1.3399 -1.1099 -0.7743
 6790TIP3   OH220333   6.106   4.462   3.200  0.1325 -0.0664 -0.6436
 6790TIP3    H120334   6.139   4.429   3.283  1.3310  0.0009 -1.0675
 6790TIP3    H220335   6.011   4.472   3.213  0.2652 -0.3246  0.6056
 6791TIP3   OH220336   0.741   4.962   1.017  0.0137 -0.1893 -0.3632
 6791TIP3    H120337   0.783   4.928   0.938  1.5146  0.0780  0.2882
 6791TIP3    H220338   0.700   4.886   1.057  1.0011 -0.7388 -0.3501
 6792TIP3   OH220339   5.160   2.580   0.800  0.7572  0.4659 -0.3056
 6792TIP3    H120340   5.111   2.558   0.880  1.2390 -0.1192 -0.1612
 6792TIP3    H220341   5.097   2.566   0.729 -0.5898  3.6254  0.0671
 6793TIP3   OH220342   4.577   3.329   5.098  0.8419 -0.3904 -0.1154
 6793TIP3    H120343   4.632   3.260   5.060  0.6945 -0.6203  0.0824
 6793TIP3    H220344   4.500   3.332   5.042  1.1527  0.0827 -0.5206
 6794TIP3   OH220345   7.024   4.251   0.886  0.6163 -0.0807  0.4454
 6794TIP3    H120346   7.103   4.279   0.839 -0.4976  0.2156 -1.3065
 6794TIP3    H220347   6.967   4.214   0.819 -1.4959  1.3446  1.3491
 6795TIP3   OH220348   6.515   6.069   1.594 -0.7541  1.0210 -0.1039
 6795TIP3    H120349   6.440   6.055   1.536 -0.2714  3.5890 -1.5096
 6795TIP3    H220350   6.479   6.113   1.670 -1.0122 -0.0405  0.4034
 6796TIP3   OH220351  -0.009   4.116   5.681  0.1976 -0.5328  0.0985
 6796TIP3    H120352   0.069   4.156   5.718  0.0328  0.8053 -0.9067
 6796TIP3    H220353  -0.006   4.138   5.588 -0.3417 -2.2050 -0.3494
 6797TIP3   OH220354   5.975   0.046   1.458  0.1106  0.4779  0.1303
 6797TIP3    H120355   5.885   0.064   1.488 -0.1462 -0.3177 -0.1552
 6797TIP3    H220356   5.965  -0.022   1.392  1.1598 -1.8037  2.1593
 6798TIP3   OH220357   5.038   3.183   4.032  0.6306  0.5095  0.2138
 6798TIP3    H120358   5.050   3.258   3.974 -0.0983 -0.4656 -1.2611
 6798TIP3    H220359   5.057   3.107   3.977  1.4056 -0.4058  1.6894
 6799TIP3   OH220360   3.362   3.014   5.000 -1.0028  0.0435 -0.2822
 6799TIP3    H120361   3.368   2.932   5.049  0.4887  0.3769  0.1622
 6799TIP3    H220362   3.411   3.077   5.053  0.2404  0.5406 -1.9261
 6800TIP3   OH220363   4.455   2.253   5.388  0.0049  0.0223 -0.3349
 6800TIP3    H120364   4.386   2.194   5.418 -0.3255  1.0970  1.1039
 6800TIP3    H220365   4.413   2.309   5.323 -0.2205  0.0348 -0.1766
 6801TIP3   OH220366   4.302   6.197   3.072  0.3058  0.1237  0.0958
 6801TIP3    H120367   4.376   6.186   3.013  1.7607 -1.4104  2.0394
 6801TIP3    H220368   4.261   6.279   3.045  2.5534  0.9087 -1.2061
 6802TIP3   OH220369   6.735   5.001   3.677  0.2924  0.5753  0.2595
 6802TIP3    H120370   6.798   4.985   3.607  0.4933  1.6238  0.1797
 6802TIP3    H220371   6.670   4.931   3.667  0.7226  0.2646 -0.4987
 6803TIP3   OH220372   5.420   6.339   3.563  0.0487 -0.2003  0.8876
 6803TIP3    H120373   5.402   6.433   3.561  3.6192  0.6547 -0.7591
 6803TIP3    H220374   5.453   6.322   3.651  0.9083  0.5270  0.7261
 6804TIP3   OH220375   0.315   5.188   3.255 -0.6297  0.6125 -0.3355
 6804TIP3    H120376   0.293   5.259   3.316  0.9047 -0.2693  1.3362
 6804TIP3    H220377   0.266   5.113   3.289  0.4393  0.0504 -0.0134
 6805TIP3   OH220378   3.159   0.655   0.535 -0.1821  0.2829 -0.0878
 6805TIP3    H120379   3.214   0.731   0.514  0.4216  0.2009  1.0957
 6805TIP3    H220380   3.198   0.583   0.486  1.2066  0.0887  1.2047
 6806TIP3   OH220381   2.239   0.688   2.076 -0.4382 -0.2444  0.0020
 6806TIP3    H120382   2.284   0.638   2.008  1.3682  0.5458  0.5338
 6806TIP3    H220383   2.146   0.672   2.061 -0.0775 -0.3832 -2.4090
 6807TIP3   OH220384   4.374   1.203   4.462 -0.0366 -0.0223  0.2593
 6807TIP3    H120385   4.445   1.229   4.403 -1.2534  0.2725 -1.1286
 6807TIP3    H220386   4.374   1.271   4.530 -0.5558  1.3834 -1.0885
 6808TIP3   OH220387   2.349   0.473   5.796  0.3063 -0.5272  0.0785
 6808TIP3    H120388   2.412   0.410   5.830  2.1076  0.9863 -0.2827
 6808TIP3    H220389   2.284   0.481   5.865  0.7743 -1.7640  0.6899
 6809TIP3   OH220390   1.602   2.546   3.446  0.3044 -0.2527 -0.5444
 6809TIP3    H120391   1.601   2.452   3.461 -2.0334 -0.5646 -2.1373
 6809TIP3    H220392   1.669   2.559   3.379 -0.8663 -1.1394 -1.9404
 6810TIP3   OH220393   3.396   4.567   5.265 -0.3594  0.3801 -0.0599
 6810TIP3    H120394   3.329   4.633   5.247 -1.3722 -0.2554  1.1974
 6810TIP3    H220395   3.451   4.606   5.333  0.2535  0.6841 -0.7094
 6811TIP3   OH220396   3.383   2.639   4.844 -0.2447  0.1881  0.1532
 6811TIP3    H120397   3.295   2.669   4.869 -0.0302 -0.1491  1.3877
 6811TIP3    H220398   3.375   2.617   4.751 -1.6125 -0.3439  0.3618
 6812TIP3   OH220399   7.088   5.959   5.479 -0.3418  0.4669 -0.0425
 6812TIP3    H120400   7.161   6.014   5.449  0.8860  0.3530  2.4761
 6812TIP3    H220401   7.015   6.020   5.488 -0.2524  0.8184 -1.4285
 6813TIP3   OH220402   4.806   2.292   4.813 -0.0652 -0.0871 -0.4445
 6813TIP3    H120403   4.711   2.296   4.828 -0.3648 -0.7078 -1.9269
 6813TIP3    H220404   4.839   2.375   4.846 -1.1858  0.2711 -0.1858
 6814TIP3   OH220405   7.043   1.205   2.008 -0.6677  0.0406 -0.0016
 6814TIP3    H120406   7.004   1.292   2.021 -0.1163  0.3296 -0.2295
 6814TIP3    H220407   7.030   1.187   1.915 -0.2978  0.1194 -0.0687
 6815TIP3   OH220408   3.961   4.698   5.027 -0.1456  0.4453 -0.0718
 6815TIP3    H120409   3.900   4.714   4.955  0.3168 -4.3406 -1.8917
 6815TIP3    H220410   3.912   4.644   5.088  1.0480 -0.1101  0.4285
 6816TIP3   OH220411   1.866   6.722   1.588 -0.2832 -0.2509  0.2383
 6816TIP3    H120412   1.855   6.715   1.682 -1.1522 -1.0360  0.0878
 6816TIP3    H220413   1.961   6.735   1.576  0.1152 -2.0468  1.1219
 6817TIP3   OH220414   4.763   3.123   4.083 -0.2387 -0.3705  0.1743
 6817TIP3    H120415   4.739   3.207   4.122  0.0258 -0.3329  0.2580
 6817TIP3    H220416   4.847   3.140   4.039  0.0022 -0.6805  0.5081
 6818TIP3   OH220417   4.477   0.899   2.095  0.2735  0.5463  0.0671
 6818TIP3    H120418   4.471   0.868   2.004  0.4556  0.3799  0.1114
 6818TIP3    H220419   4.471   0.994   2.088 -0.0037  0.5197 -0.0943
 6819TIP3   OH220420   1.247   4.977   1.774  0.2627  0.2270 -0.2036
 6819TIP3    H120421   1.180   4.914   1.746  0.3578 -0.7483  1.6188
 6819TIP3    H220422   1.330   4.931   1.761  0.3006 -0.3753  1.7638
 6820TIP3   OH220423   0.953   0.272   4.309  0.2043 -0.0407  0.8390
 6820TIP3    H120424   0.945   0.200   4.372  1.4191 -0.1178  0.9436
 6820TIP3    H220425   0.901   0.343   4.346 -2.7934 -1.4674 -0.2970
 6821TIP3   OH220426   4.430   2.644   3.883  0.1594  0.5158  0.4451
 6821TIP3    H120427   4.407   2.707   3.815 -0.0974  0.9608  0.9288
 6821TIP3    H220428   4.431   2.696   3.964 -0.5978 -0.2071  0.9415
 6822TIP3   OH220429   2.934   4.151   4.640  0.0274  0.5243  0.0065
 6822TIP3    H120430   2.971   4.063   4.632  0.7554  0.7472  0.8077
 6822TIP3    H220431   2.892   4.167   4.555  0.9078 -0.1229 -0.5720
 6823TIP3   OH220432   3.768   2.024   1.643  0.0306  0.5095 -0.3141
 6823TIP3    H120433   3.774   1.965   1.568 -0.7643  0.1683 -0.1203
 6823TIP3    H220434   3.837   1.993   1.702 -0.5098 -0.3779 -0.1243
 6824TIP3   OH220435   0.625   5.677   0.499  0.0951 -0.7222  0.3323
 6824TIP3    H120436   0.696   5.739   0.480  1.4402 -1.7539  1.7227
 6824TIP3    H220437   0.575   5.719   0.569 -1.1562  0.3242 -1.1253
 6825TIP3   OH220438   1.952   0.053   0.730 -0.3942 -0.1147  0.8724
 6825TIP3    H120439   1.861   0.046   0.761 -0.3485 -0.0415  1.0269
 6825TIP3    H220440   1.952   0.008   0.646 -1.0072  1.4731 -0.0230
 6826TIP3   OH220441   5.028   4.273   4.510 -0.0487 -0.1309 -0.4465
 6826TIP3    H120442   5.098   4.230   4.462  0.5843  1.5003 -1.0405
 6826TIP3    H220443   4.950   4.221   4.489  0.8362 -1.5485 -0.3352
 6827TIP3   OH220444   6.468   5.719   4.743  0.0279 -0.5736  0.0656
 6827TIP3    H120445   6.382   5.693   4.777 -0.2340 -0.5025 -0.5288
 6827TIP3    H220446   6.448   5.787   4.678  0.5319 -0.5764 -0.0947
 6828TIP3   OH220447   5.103   3.066   5.640  0.0209  0.0568 -0.7340
 6828TIP3    H120448   5.130   3.050   5.549 -0.5684 -0.2639 -0.8548
 6828TIP3    H220449   5.026   3.012   5.652 -1.8961  2.4987 -1.0789
 6829TIP3   OH220450   5.052   0.298   1.835  0.2518 -0.3865 -0.4788
 6829TIP3    H120451   5.026   0.222   1.783 -0.6509 -0.5720  0.2147
 6829TIP3    H220452   5.124   0.266   1.889  0.5768 -0.4522 -0.9468
 6830TIP3   OH220453   0.899   5.427   3.150 -0.3251 -0.1047 -0.6906
 6830TIP3    H120454   0.820   5.479   3.166  0.9559  1.8196 -0.2958
 6830TIP3    H220455   0.937   5.466   3.071  1.0695  0.0605  0.0434
 6831TIP3   OH220456   0.763   4.878   3.866  0.0094  0.4862  0.0366
 6831TIP3    H120457   0.761   4.869   3.771 -1.0569 -0.7176  0.1554
 6831TIP3    H220458   0.766   4.973   3.881 -0.3501  0.7061 -1.1812
 6832TIP3   OH220459   6.888   5.803   2.177  1.1258 -0.1661 -0.1382
 6832TIP3    H120460   6.901   5.813   2.271  0.4615  1.8918 -0.2186
 6832TIP3    H220461   6.902   5.891   2.141 -1.4381 -0.2417 -1.5857
 6833TIP3   OH220462   4.549   1.360   2.370  0.5556  0.3167 -0.7187
 6833TIP3    H120463   4.642   1.345   2.358  0.3286 -1.0929 -0.8370
 6833TIP3    H220464   4.541   1.455   2.381  1.9307  0.5081 -1.2474
 6834TIP3   OH220465   2.421   2.439   3.210 -0.4155 -0.4040 -0.3338
 6834TIP3    H120466   2.363   2.363   3.200 -0.1199 -0.4787 -1.6724
 6834TIP3    H220467   2.384   2.505   3.151  0.0069  0.0788 -0.0598
 6835TIP3   OH220468   0.070   3.538   1.213  0.1586 -0.3514  0.3327
 6835TIP3    H120469   0.132   3.491   1.157  1.2546  0.9212  0.4329
 6835TIP3    H220470   0.003   3.473   1.234 -0.2805 -0.9124 -2.3915
 6836TIP3   OH220471   3.799   2.341   1.729 -0.1171  0.0656 -0.4576
 6836TIP3    H120472   3.852   2.263   1.748 -0.2451 -0.6671 -2.7317
 6836TIP3    H220473   3.860   2.402   1.687 -0.2999  0.6974  0.1730
 6837TIP3   OH220474   1.845   0.760   5.878 -0.0565 -0.1417  0.1697
 6837TIP3    H120475   1.826   0.701   5.952 -0.0627 -0.4900 -0.1071
 6837TIP3    H220476   1.887   0.704   5.813 -0.7953 -0.0236 -0.4277
 6838TIP3   OH220477   0.402   1.576   1.495  0.0329 -0.3967 -0.3950
 6838TIP3    H120478   0.467   1.584   1.564 -0.3694 -1.4519  0.1239
 6838TIP3    H220479   0.348   1.655   1.504 -0.0521 -0.5536  0.5312
 6839TIP3   OH220480   5.924   0.522   4.307  0.0723 -0.8716 -0.0147
 6839TIP3    H120481   5.990   0.491   4.245  1.5165 -0.4210  1.2418
 6839TIP3    H220482   5.890   0.602   4.268  3.5943  1.5153  1.3076
 6840TIP3   OH220483   0.827   1.341   1.887  0.0244 -0.0453 -0.5320
 6840TIP3    H120484   0.794   1.252   1.880  3.4210 -1.6472  1.5506
 6840TIP3    H220485   0.870   1.358   1.803 -0.5868 -0.3694 -0.9140
 6841TIP3   OH220486   6.783   0.230   4.018 -0.6270 -0.5088  0.2426
 6841TIP3    H120487   6.826   0.309   3.985  0.6244 -0.6762  1.3767
 6841TIP3    H220488   6.794   0.235   4.113 -2.1670 -1.1386  0.4747
 6842TIP3   OH220489   3.512   5.570   1.940 -0.3790  0.2932  0.1161
 6842TIP3    H120490   3.599   5.529   1.948 -1.5352 -2.1501  1.3187
 6842TIP3    H220491   3.509   5.634   2.011  1.0022  1.6938 -0.9990
 6843TIP3   OH220492   6.864   4.427   4.064 -0.3140  0.7611 -0.1714
 6843TIP3    H120493   6.912   4.419   4.146 -0.1195 -0.7169 -0.4003
 6843TIP3    H220494   6.772   4.414   4.089 -0.2460  0.2160 -0.1812
 6844TIP3   OH220495   0.895   3.165   1.107  0.5581  0.1447  0.0119
 6844TIP3    H120496   0.857   3.092   1.059  0.3383  1.6987 -2.3037
 6844TIP3    H220497   0.865   3.243   1.061  1.7642  1.6702  1.6738
 6845TIP3   OH220498   1.322   1.594   3.229 -0.2200  0.5051  0.1563
 6845TIP3    H120499   1.323   1.502   3.252 -0.2105  0.2252 -0.8957
 6845TIP3    H220500   1.414   1.620   3.227 -0.2826  1.1155  2.5312
 6846TIP3   OH220501   4.172   0.272   2.998 -0.1978  0.3166 -0.6242
 6846TIP3    H120502   4.172   0.343   3.063  0.9983 -0.2754  0.0505
 6846TIP3    H220503   4.257   0.280   2.955  0.3703 -1.2683  0.1240
 6847TIP3   OH220504   6.996   6.114   2.312 -0.2361  0.1898 -0.5525
 6847TIP3    H120505   6.990   6.041   2.374 -0.7879  1.3161  0.7611
 6847TIP3    H220506   6.986   6.073   2.226 -0.5080 -1.2858  0.1530
 6848TIP3   OH220507   2.340   0.944   0.543 -0.1379 -0.1163  0.1876
 6848TIP3    H120508   2.327   1.018   0.484  0.0147  0.8938  1.4000
 6848TIP3    H220509   2.410   0.971   0.602 -0.7076 -0.8466  1.2346
 6849TIP3   OH220510   4.957   6.343   1.913  0.4761 -0.0080  0.1401
 6849TIP3    H120511   5.006   6.330   1.993  0.2186  2.0688  0.6750
 6849TIP3    H220512   4.982   6.430   1.882 -1.3494  0.2969 -0.6229
 6850TIP3   OH220513   0.241   0.786   2.079 -0.2817 -0.0291 -0.3015
 6850TIP3    H120514   0.153   0.825   2.080 -0.0244  0.6277 -1.4697
 6850TIP3    H220515   0.227   0.697   2.045 -0.6094 -0.2642  0.4300
 6851TIP3   OH220516   3.634   2.043   4.877 -0.2235 -0.3038  0.1912
 6851TIP3    H120517   3.700   2.100   4.917 -0.4123  1.0810 -1.3549
 6851TIP3    H220518   3.638   2.065   4.784 -0.3619 -2.8177 -0.4621
 6852TIP3   OH220519   2.241   0.094   2.436 -0.4490  0.2064 -0.2064
 6852TIP3    H120520   2.197   0.170   2.397 -0.8351  0.3927  0.5843
 6852TIP3    H220521   2.177   0.023   2.426  0.7740 -0.6519 -3.0645
 6853TIP3   OH220522   5.893   2.562   0.086  0.0885 -0.3874  0.2100
 6853TIP3    H120523   5.858   2.573   0.174 -0.0701 -0.2649  0.1316
 6853TIP3    H220524   5.987   2.545   0.100 -0.2430 -2.2956  0.5137
 6854TIP3   OH220525   0.357   3.953   0.442  0.5355 -0.2922  0.1001
 6854TIP3    H120526   0.330   4.003   0.365 -0.9686 -0.4192  0.5112
 6854TIP3    H220527   0.293   3.976   0.509  0.3286 -2.0731  0.5656
 6855TIP3   OH220528   4.595   0.302   1.790  0.2868  0.3616  0.1220
 6855TIP3    H120529   4.635   0.297   1.878  1.5194  0.6740 -0.3929
 6855TIP3    H220530   4.593   0.396   1.771  2.7429  0.1930 -1.3349
 6856TIP3   OH220531   2.520   0.358   1.834 -0.5762  0.6458  0.8206
 6856TIP3    H120532   2.488   0.323   1.751 -1.0021  2.2004  0.2888
 6856TIP3    H220533   2.595   0.303   1.856  0.2927  0.9132 -1.2180
 6857TIP3   OH220534   1.662   1.896   4.836 -0.2649 -0.2795 -0.0777
 6857TIP3    H120535   1.694   1.874   4.923  0.1507 -2.9306 -0.8202
 6857TIP3    H220536   1.581   1.846   4.826 -1.3404  1.4516 -0.5798
 6858TIP3   OH220537   3.128   5.487   2.400 -0.2628 -0.2110  0.0101
 6858TIP3    H120538   3.153   5.447   2.484 -1.4486 -0.0460  0.4604
 6858TIP3    H220539   3.204   5.539   2.374  0.7548 -1.5801  0.1472
 6859TIP3   OH220540   3.489   5.745   5.600 -0.4302 -0.0908  0.0022
 6859TIP3    H120541   3.419   5.807   5.623  0.0057  0.0623  0.9695
 6859TIP3    H220542   3.488   5.742   5.505 -1.8601 -0.2119 -0.0018
 6860TIP3   OH220543   2.006   0.183   0.474 -0.8460 -0.1219 -0.1618
 6860TIP3    H120544   2.021   0.248   0.543 -0.8975 -0.0595 -0.2079
 6860TIP3    H220545   1.939   0.224   0.418 -1.0025 -0.2892 -0.0937
 6861TIP3   OH220546   5.912   5.917   3.918 -0.1488  0.3191 -0.0879
 6861TIP3    H120547   5.915   5.888   4.010  0.4510 -0.9354 -0.4737
 6861TIP3    H220548   5.987   5.975   3.909  0.7515 -0.8129 -0.1553
 6862TIP3   OH220549   4.059   2.235   1.082 -0.1468  0.3231 -0.3727
 6862TIP3    H120550   4.052   2.247   1.177 -1.8397 -0.3639 -0.3940
 6862TIP3    H220551   4.061   2.140   1.070 -0.1694  0.4088 -1.0489
 6863TIP3   OH220552   7.154   1.664   2.774  0.3939 -0.2418  0.4490
 6863TIP3    H120553   7.070   1.697   2.807 -0.3571 -3.1030  1.7571
 6863TIP3    H220554   7.130   1.607   2.701  1.5791  1.5152 -1.4107
 6864TIP3   OH220555   6.649   4.305   0.195  0.7385  0.0050  0.0821
 6864TIP3    H120556   6.609   4.386   0.164  0.3241 -0.2918 -0.1633
 6864TIP3    H220557   6.729   4.334   0.239  0.9711  0.4939 -0.6298
 6865TIP3   OH220558   2.799   6.434   0.388  0.6187  1.0844 -0.0752
 6865TIP3    H120559   2.826   6.464   0.475  1.6223  0.8735 -0.3016
 6865TIP3    H220560   2.845   6.350   0.377 -1.0352  0.1407 -0.0247
 6866TIP3   OH220561   0.537   5.732   2.129 -0.3183  0.3348 -0.2474
 6866TIP3    H120562   0.487   5.652   2.148 -0.3446  0.6534  1.0942
 6866TIP3    H220563   0.616   5.724   2.183  0.7710  0.1811 -1.7987
 6867TIP3   OH220564   3.487   2.404   5.153 -0.1595  0.3826 -0.8949
 6867TIP3    H120565   3.477   2.430   5.245  0.8553  1.5277 -1.0888
 6867TIP3    H220566   3.580   2.411   5.136  0.3805 -3.9129 -0.8966
 6868TIP3   OH220567   2.217   1.829   1.787 -0.5624 -0.0348  0.5816
 6868TIP3    H120568   2.208   1.766   1.858 -1.0066 -1.7554 -0.9188
 6868TIP3    H220569   2.148   1.806   1.725  0.5536  0.6084 -0.9807
 6869TIP3   OH220570   5.177   5.409   1.715 -0.6581 -0.5157 -0.1055
 6869TIP3    H120571   5.271   5.424   1.702 -0.2559 -0.3200  2.5474
 6869TIP3    H220572   5.136   5.490   1.685  0.3324  0.6079  1.3981
 6870TIP3   OH220573   1.351   6.017   4.195 -0.5082 -0.5177 -0.0139
 6870TIP3    H120574   1.301   6.051   4.121 -0.8841  0.1879  0.5534
 6870TIP3    H220575   1.291   5.955   4.238 -0.6865 -0.1020  0.3354
 6871TIP3   OH220576   6.525   2.800   5.683 -0.6166 -0.1838 -0.3192
 6871TIP3    H120577   6.503   2.766   5.596 -0.6141  0.1452 -0.4511
 6871TIP3    H220578   6.569   2.727   5.726  2.5701  0.6656 -1.8251
 6872TIP3   OH220579   5.986   5.065   4.519  0.1874  0.6069 -0.0892
 6872TIP3    H120580   5.917   5.100   4.463 -0.1744  0.3679  0.1992
 6872TIP3    H220581   5.963   4.972   4.530  1.3327  0.1789 -1.1466
 6873TIP3   OH220582   3.220   4.401   3.767  0.5158 -1.0322 -0.0574
 6873TIP3    H120583   3.249   4.367   3.851  0.0963  2.0211  1.4698
 6873TIP3    H220584   3.298   4.442   3.729  0.2159 -0.5026 -0.1138
 6874TIP3   OH220585   1.539   6.094   2.575 -0.2784  0.2656  0.0713
 6874TIP3    H120586   1.509   6.126   2.661  0.0276 -1.1882  0.7509
 6874TIP3    H220587   1.558   6.174   2.526  1.5819  1.1856  2.0722
 6875TIP3   OH220588   3.254   5.778   5.284 -0.2561 -0.2061 -0.5000
 6875TIP3    H120589   3.245   5.869   5.312 -0.1074  0.7876 -3.3786
 6875TIP3    H220590   3.348   5.760   5.292 -0.2990 -0.1630  0.1643
 6876TIP3   OH220591   5.169   2.430   1.247  0.4375  0.3841 -0.0655
 6876TIP3    H120592   5.152   2.521   1.272 -1.2663  0.9589 -2.8669
 6876TIP3    H220593   5.258   2.431   1.214  0.7163  0.8320  0.6684
 6877TIP3   OH220594   0.136   1.400   1.103 -0.0117  0.7202  0.2474
 6877TIP3    H120595   0.076   1.432   1.037 -1.0311 -0.5634  0.5002
 6877TIP3    H220596   0.106   1.440   1.185  0.5346  1.3963  0.1268
 6878TIP3   OH220597   3.750   3.124   2.846 -0.4242  0.6079 -0.0642
 6878TIP3    H120598   3.841   3.148   2.862 -0.4553  0.7928 -0.1599
 6878TIP3    H220599   3.704   3.208   2.840 -0.3771  0.5553 -1.3548
 6879TIP3   OH220600   2.095   3.515   0.217  0.2123 -0.4130  0.3444
 6879TIP3    H120601   2.071   3.580   0.283  0.4206  1.1849 -1.0712
 6879TIP3    H220602   2.013   3.474   0.192 -0.0508 -0.0426  0.5948
 6880TIP3   OH220603   2.972   6.591   1.139 -0.2815  0.3973 -0.4786
 6880TIP3    H120604   2.890   6.641   1.134 -1.3637 -1.3728 -1.2818
 6880TIP3    H220605   3.000   6.581   1.049 -2.0226 -3.3443 -0.7998
 6881TIP3   OH220606   6.474   2.542   2.723  0.3692 -0.3059  0.3494
 6881TIP3    H120607   6.488   2.562   2.630  0.0891  1.7017  0.7049
 6881TIP3    H220608   6.383   2.513   2.727  0.0148  0.7430  0.1483
 6882TIP3   OH220609   0.102   2.255   1.521  0.1703 -0.2940 -0.2993
 6882TIP3    H120610   0.040   2.319   1.556  0.1757 -0.4662  0.0278
 6882TIP3    H220611   0.159   2.306   1.463  1.1639  0.2900  1.1557
 6883TIP3   OH220612   5.343   5.688   1.545  0.9703 -0.5755 -0.1965
 6883TIP3    H120613   5.437   5.677   1.560  1.3005  1.8755 -0.0659
 6883TIP3    H220614   5.316   5.754   1.608 -0.5075 -0.0782 -1.2927
 6884TIP3   OH220615   2.052   4.177   0.845  0.0825 -0.6769  0.4434
 6884TIP3    H120616   2.091   4.145   0.763 -0.1928 -0.8954  0.3969
 6884TIP3    H220617   2.064   4.272   0.841  0.3784 -0.7171  0.3100
 6885TIP3   OH220618   5.077   0.237   2.440  0.8174  0.1262  0.1409
 6885TIP3    H120619   5.138   0.172   2.476 -0.4439 -0.8743  0.5782
 6885TIP3    H220620   5.121   0.272   2.363  2.5288  0.4657  1.2313
 6886TIP3   OH220621   2.920   0.133   3.906 -0.2971  0.0381 -0.0735
 6886TIP3    H120622   2.932   0.204   3.843 -1.7724 -0.5838 -1.1183
 6886TIP3    H220623   2.998   0.079   3.897 -0.1095  0.4105 -0.7616
 6887TIP3   OH220624   0.074   2.649   3.078  0.5845 -0.2109 -0.0513
 6887TIP3    H120625   0.068   2.714   3.148 -0.4127  0.5074 -0.7660
 6887TIP3    H220626   0.080   2.565   3.123  0.2350  0.2577  0.8954
 6888TIP3   OH220627   1.223   2.639   4.466  0.5099 -0.0658 -0.0920
 6888TIP3    H120628   1.166   2.627   4.542 -2.0217  1.5425 -1.6230
 6888TIP3    H220629   1.211   2.560   4.414  0.1201  0.0354 -0.1530
 6889TIP3   OH220630   4.717   3.137   2.226  0.2456 -0.1382 -0.2075
 6889TIP3    H120631   4.666   3.065   2.189  0.1289 -0.4134  0.4637
 6889TIP3    H220632   4.788   3.094   2.273  0.5711  0.2138 -0.3706
 6890TIP3   OH220633   2.355   5.238   2.681 -0.4258 -0.3100 -0.2756
 6890TIP3    H120634   2.376   5.153   2.641 -0.9129  0.4422 -2.2765
 6890TIP3    H220635   2.360   5.300   2.608 -1.1362  1.2198  0.9238
 6891TIP3   OH220636   5.597   1.624   3.867  0.0749 -0.5870  0.0935
 6891TIP3    H120637   5.551   1.628   3.950 -0.4237  2.3868 -0.2308
 6891TIP3    H220638   5.628   1.713   3.851  0.7140 -1.1743 -2.6161
 6892TIP3   OH220639   7.065   3.290   5.615  0.2034  0.0693  0.8642
 6892TIP3    H120640   6.992   3.351   5.627  1.1567  1.3345  0.4880
 6892TIP3    H220641   7.141   3.336   5.650  1.4597  0.3020 -1.9024
 6893TIP3   OH220642   1.386   2.230   3.894 -0.4727  0.4612  0.1436
 6893TIP3    H120643   1.372   2.167   3.823  0.6444 -1.1995  1.3351
 6893TIP3    H220644   1.315   2.213   3.956 -0.3521  0.5970  0.3196
 6894TIP3   OH220645   0.490   2.053   0.059 -0.2693 -0.2393 -0.3380
 6894TIP3    H120646   0.493   2.037  -0.035 -0.9794  1.3450 -0.6704
 6894TIP3    H220647   0.420   1.995   0.091 -1.5219  0.7402 -1.1743
 6895TIP3   OH220648   4.047   3.738   4.244 -0.5618 -0.0827 -0.3680
 6895TIP3    H120649   4.078   3.819   4.205 -0.3713  0.3970  0.7244
 6895TIP3    H220650   3.952   3.740   4.233 -0.6348  0.6580  0.2906
 6896TIP3   OH220651   7.048   2.048   4.667 -0.8219  0.5950 -0.2955
 6896TIP3    H120652   7.125   1.995   4.645 -0.1111  1.4449  0.0970
 6896TIP3    H220653   7.040   2.110   4.594 -1.0363  0.6104 -0.2574
 6897TIP3   OH220654   5.069   5.961   4.055 -0.0481 -0.1165  0.1201
 6897TIP3    H120655   5.025   5.947   3.972  1.2520 -0.8179 -0.4814
 6897TIP3    H220656   5.011   5.923   4.120 -0.5775 -0.5198 -0.5838
 6898TIP3   OH220657   6.589   0.455   4.298  0.5888 -0.1857  0.2395
 6898TIP3    H120658   6.684   0.457   4.288  0.6648  0.1699  1.0099
 6898TIP3    H220659   6.574   0.450   4.392 -0.1528 -2.0637  0.0590
 6899TIP3   OH220660   4.332   2.732   2.140  0.0900  0.0624 -0.2102
 6899TIP3    H120661   4.255   2.694   2.182  0.9381  0.3656  1.7212
 6899TIP3    H220662   4.302   2.815   2.103 -0.3116  0.7125  1.4935
 6900TIP3   OH220663   1.270   6.371   0.719 -0.1717  0.2496 -0.1460
 6900TIP3    H120664   1.217   6.405   0.791  1.2176  1.2924  0.4469
 6900TIP3    H220665   1.265   6.276   0.727 -0.4623  0.3541  1.0152
 6901TIP3   OH220666   6.784   3.440   1.024 -0.2907 -0.3872  0.4487
 6901TIP3    H120667   6.783   3.379   0.951  0.4049 -0.2774  0.3413
 6901TIP3    H220668   6.872   3.432   1.061  0.0841  1.1046 -0.0529
 6902TIP3   OH220669   5.147   3.258   2.676  0.1390 -0.5267  0.1691
 6902TIP3    H120670   5.122   3.298   2.593  0.7796 -0.0314  0.2114
 6902TIP3    H220671   5.068   3.262   2.729 -0.5584 -1.6877 -0.7201
 6903TIP3   OH220672   5.227   1.462   0.598 -0.4064 -0.1299 -0.2205
 6903TIP3    H120673   5.257   1.489   0.511  2.1910 -0.9114  0.3353
 6903TIP3    H220674   5.169   1.532   0.627  2.2085  2.4453 -0.8138
 6904TIP3   OH220675   3.485   3.859   3.307 -0.1606  0.3058  0.3057
 6904TIP3    H120676   3.517   3.777   3.270  0.8908  0.6047  0.5017
 6904TIP3    H220677   3.392   3.844   3.324  0.2861 -1.2949  1.5758
 6905TIP3   OH220678   3.635   2.147   4.611 -0.4661 -0.0524  0.4087
 6905TIP3    H120679   3.547   2.147   4.573 -0.1630 -1.9276 -0.4148
 6905TIP3    H220680   3.690   2.109   4.542  0.7773 -0.0066  1.3536
 6906TIP3   OH220681   1.746   1.518   3.463 -0.1519 -0.0539  0.5686
 6906TIP3    H120682   1.667   1.502   3.514 -1.4840  0.8874 -1.1003
 6906TIP3    H220683   1.758   1.613   3.465  0.8189 -0.1607  0.6033
 6907TIP3   OH220684   1.468   2.595   3.744  0.2461  0.8157 -0.0981
 6907TIP3    H120685   1.537   2.589   3.678  0.4799  0.1217  0.1976
 6907TIP3    H220686   1.387   2.579   3.696  0.2875  1.6013 -0.4418
 6908TIP3   OH220687   5.657   5.993   5.077 -1.3055  0.3377 -0.0540
 6908TIP3    H120688   5.714   6.010   5.152 -0.6686 -1.4977 -0.0880
 6908TIP3    H220689   5.569   5.988   5.114 -1.0387 -0.1946  0.5112
 6909TIP3   OH220690   1.813   5.002   2.973 -0.1693 -0.1894  0.1136
 6909TIP3    H120691   1.837   5.088   2.939  1.6768 -0.7356 -0.0686
 6909TIP3    H220692   1.865   4.992   3.053 -1.0562 -0.7672  0.6329
 6910TIP3   OH220693   6.549   5.921   1.197 -0.6372 -0.5696 -0.1063
 6910TIP3    H120694   6.634   5.942   1.235 -1.2157  0.1269  0.8341
 6910TIP3    H220695   6.570   5.887   1.109  0.6523 -1.1570  0.3961
 6911TIP3   OH220696   5.087   2.909   4.235  0.1461 -0.0734 -0.2152
 6911TIP3    H120697   5.132   2.993   4.247 -0.2496  0.0172  0.7428
 6911TIP3    H220698   4.995   2.928   4.251  0.0573 -0.6912  0.0446
 6912TIP3   OH220699   0.721   2.403   5.723 -0.4510  0.6364  0.0799
 6912TIP3    H120700   0.649   2.456   5.756  0.1369  1.5939 -0.1422
 6912TIP3    H220701   0.797   2.431   5.774  0.4845  2.1603 -1.9846
 6913TIP3   OH220702   2.574   0.007   3.008  0.5753  0.0532  0.4586
 6913TIP3    H120703   2.551   0.066   2.937 -0.7278 -0.6276  0.2808
 6913TIP3    H220704   2.648  -0.044   2.975  1.8520  1.6779  0.6899
 6914TIP3   OH220705   5.622   5.064   0.870  0.4510  0.3966  0.4791
 6914TIP3    H120706   5.635   5.016   0.952 -0.7652 -0.8777 -0.0248
 6914TIP3    H220707   5.559   5.133   0.891  0.1741  0.0978  0.6304
 6915TIP3   OH220708   7.069   6.451   0.704 -0.0962  0.2293 -0.3437
 6915TIP3    H120709   6.980   6.444   0.670  0.4273  0.6027 -1.8421
 6915TIP3    H220710   7.107   6.526   0.658  0.4543  1.1976  1.5577
 6916TIP3   OH220711   5.960   5.506   2.037 -0.8993 -0.2544 -0.1035
 6916TIP3    H120712   5.901   5.531   1.966  0.0245  1.0423 -0.4450
 6916TIP3    H220713   5.959   5.581   2.096  0.1232 -0.3743  0.0720
 6917TIP3   OH220714   5.952   3.611   0.843  0.0517 -0.5225  0.0197
 6917TIP3    H120715   5.964   3.520   0.816  1.9600 -0.5097  0.6912
 6917TIP3    H220716   5.878   3.608   0.904  0.5931 -1.7809  0.6628
 6918TIP3   OH220717   5.787   4.833   3.226  0.4756 -0.1234  0.0546
 6918TIP3    H120718   5.830   4.750   3.244  0.5933 -0.3070 -1.0181
 6918TIP3    H220719   5.747   4.822   3.140 -2.8277 -0.3990  1.4501
 6919TIP3   OH220720   4.431   5.222   1.660 -0.3310 -0.1485  0.6054
 6919TIP3    H120721   4.415   5.276   1.738  0.1024  1.8640 -0.6179
 6919TIP3    H220722   4.525   5.206   1.661 -0.2751  0.1696  0.3121
 6920TIP3   OH220723   0.542   2.680   4.847  0.4709 -0.0513 -0.7267
 6920TIP3    H120724   0.532   2.773   4.867 -0.2264 -0.3957  0.6395
 6920TIP3    H220725   0.621   2.654   4.893  0.7631 -0.0991 -1.2537
 6921TIP3   OH220726   4.834   1.649   3.526 -0.6934  0.2025  0.0208
 6921TIP3    H120727   4.888   1.581   3.566 -0.7124 -0.1247 -0.4957
 6921TIP3    H220728   4.765   1.600   3.480  1.0226  0.3503 -3.0095
 6922TIP3   OH220729   1.524   2.003   2.605 -0.2525 -0.1430 -0.0110
 6922TIP3    H120730   1.442   1.991   2.654 -0.7322  0.0740 -0.7535
 6922TIP3    H220731   1.538   1.918   2.562 -0.7520  0.2100 -0.8828
 6923TIP3   OH220732   2.314   0.833   4.259 -0.5459  0.4616 -0.2714
 6923TIP3    H120733   2.391   0.777   4.246  0.8226  2.2117 -0.0172
 6923TIP3    H220734   2.319   0.897   4.188 -1.5200  0.8886  0.0359
 6924TIP3   OH220735   6.420   1.498   3.934  0.8915 -0.6507 -0.2363
 6924TIP3    H120736   6.480   1.458   3.871  1.8769 -1.7478  1.3477
 6924TIP3    H220737   6.476   1.550   3.991  0.1910 -0.7447  0.5529
 6925TIP3   OH220738   5.794   4.112   0.974  0.5452 -0.2906 -0.8985
 6925TIP3    H120739   5.791   4.117   0.878  0.2839  1.7579 -0.8208
 6925TIP3    H220740   5.747   4.189   1.004  1.5412 -0.3138  0.8831
 6926TIP3   OH220741   4.461   2.426   5.758  0.9074  0.0172  0.0975
 6926TIP3    H120742   4.383   2.382   5.725  0.7833  0.9701 -0.9233
 6926TIP3    H220743   4.523   2.355   5.773  0.3167 -0.6208 -0.3906
 6927TIP3   OH220744   6.511   0.197   1.344 -0.1531 -0.1691  0.8931
 6927TIP3    H120745   6.544   0.134   1.280 -0.9011 -0.0198  0.3454
 6927TIP3    H220746   6.444   0.150   1.392 -1.7208  0.5661 -0.4510
 6928TIP3   OH220747   3.569   3.692  -0.005  0.3567 -0.4834 -0.3365
 6928TIP3    H120748   3.638   3.627  -0.019  0.8806 -0.1903  0.7502
 6928TIP3    H220749   3.607   3.755   0.056 -0.7777 -0.1674  0.0801
 6929TIP3   OH220750   3.942   1.390   1.190 -0.0942 -0.1723  0.2400
 6929TIP3    H120751   3.953   1.403   1.284  0.3273 -1.3382  0.3737
 6929TIP3    H220752   3.908   1.473   1.158  2.0482  1.0796  1.0301
 6930TIP3   OH220753   6.388   0.776   4.904  0.3465 -0.7338  0.2128
 6930TIP3    H120754   6.418   0.861   4.872  0.8506 -1.9474 -2.8548
 6930TIP3    H220755   6.434   0.764   4.987  1.5807  1.2447 -0.1309
 6931TIP3   OH220756   6.473   1.357   2.975 -0.0360  0.3145  0.7860
 6931TIP3    H120757   6.511   1.423   2.915 -3.0731  0.6262 -1.0000
 6931TIP3    H220758   6.464   1.404   3.058  1.1216  0.9799  0.5725
 6932TIP3   OH220759   0.887   1.621   3.932 -0.1201  0.3111 -0.7497
 6932TIP3    H120760   0.937   1.700   3.956 -0.2179  0.0569  0.3438
 6932TIP3    H220761   0.913   1.556   3.997  0.2594 -0.6994 -1.8730
 6933TIP3   OH220762   0.069   1.445   2.954 -0.6050  0.5382  0.0114
 6933TIP3    H120763   0.030   1.494   2.882  0.5391 -0.4148 -1.3130
 6933TIP3    H220764   0.145   1.402   2.915 -0.8688 -1.2976  1.4008
 6934TIP3   OH220765   3.966   2.873   2.173 -0.3298 -0.7408  0.6568
 6934TIP3    H120766   3.980   2.778   2.182 -1.3977 -0.8916  0.9913
 6934TIP3    H220767   4.003   2.910   2.252 -0.9432 -1.0204  1.0873
 6935TIP3   OH220768   1.039   0.433   1.245 -0.1742 -0.0953  0.1236
 6935TIP3    H120769   1.116   0.477   1.207 -0.2870  0.0965  0.1187
 6935TIP3    H220770   1.010   0.373   1.176 -1.2736  1.3038 -0.6981
 6936TIP3   OH220771   2.380   1.961   5.346 -0.1299 -0.0680 -0.1406
 6936TIP3    H120772   2.457   1.908   5.329  0.4808  0.7679 -0.0539
 6936TIP3    H220773   2.340   1.974   5.259  0.3635  0.2839 -0.3219
 6937TIP3   OH220774   4.536   6.044   5.761 -0.0139 -0.0115  0.5508
 6937TIP3    H120775   4.598   6.047   5.688 -1.8415  1.8390 -1.0665
 6937TIP3    H220776   4.561   6.119   5.816 -1.2204  1.2521 -0.5466
 6938TIP3   OH220777   4.372   0.340   2.303  1.0682  0.0035  0.3242
 6938TIP3    H120778   4.378   0.347   2.398 -0.8052  1.6160  0.3813
 6938TIP3    H220779   4.281   0.317   2.285  1.0007  1.2167 -1.1120
 6939TIP3   OH220780   0.286   4.026   4.902 -0.4195  0.1383 -0.3559
 6939TIP3    H120781   0.201   4.066   4.918 -0.0434  0.5188  0.7436
 6939TIP3    H220782   0.322   4.008   4.989 -0.7084 -2.9523 -0.7770
 6940TIP3   OH220783   4.712   0.783   0.121 -0.3515  0.3644 -0.2972
 6940TIP3    H120784   4.772   0.839   0.072 -0.9820  0.5858 -0.8324
 6940TIP3    H220785   4.716   0.816   0.211  0.8416 -0.0690 -0.1647
 6941TIP3   OH220786   3.721   2.557   5.650  0.0055  0.0798 -0.1145
 6941TIP3    H120787   3.719   2.577   5.743 -1.0463  1.4007 -0.3863
 6941TIP3    H220788   3.643   2.504   5.634 -1.5857  2.4097 -0.7016
 6942TIP3   OH220789   4.656   0.286   0.875 -0.1320  0.4015 -0.3600
 6942TIP3    H120790   4.577   0.336   0.897 -0.9425 -0.5474 -1.0374
 6942TIP3    H220791   4.624   0.199   0.851  1.0544  0.2177 -1.3740
 6943TIP3   OH220792   4.987   4.352   4.175  0.4608  0.5597 -0.4030
 6943TIP3    H120793   4.910   4.385   4.222  0.8064 -1.4305  1.7753
 6943TIP3    H220794   4.965   4.261   4.156  2.0093  0.1628 -0.3755
 6944TIP3   OH220795   0.352   2.777   5.398 -0.0249  0.3430  0.2552
 6944TIP3    H120796   0.318   2.747   5.314 -3.2534 -1.5370  2.0523
 6944TIP3    H220797   0.286   2.838   5.430  1.2107  1.1189  1.4210
 6945TIP3   OH220798   4.680   0.759   4.937 -0.3908 -0.2509  0.0634
 6945TIP3    H120799   4.695   0.806   5.019 -1.0567  0.3814 -0.1671
 6945TIP3    H220800   4.671   0.668   4.963  0.0787 -0.1447  0.6142
 6946TIP3   OH220801   2.074   3.880   3.377 -0.3447 -0.1123  0.3220
 6946TIP3    H120802   2.086   3.887   3.472 -0.8336 -0.9674  0.4613
 6946TIP3    H220803   2.150   3.923   3.339  0.6272 -1.1014  1.1162
 6947TIP3   OH220804   1.389   5.416   3.114  0.0739 -0.8195 -0.0117
 6947TIP3    H120805   1.361   5.333   3.076 -0.2217 -1.2924  1.2010
 6947TIP3    H220806   1.384   5.478   3.041  1.7018 -2.1284 -1.3136
 6948TIP3   OH220807   2.051   2.042   5.322  0.3755  0.2115 -0.4791
 6948TIP3    H120808   2.076   1.980   5.254  1.1972 -1.7973  1.4992
 6948TIP3    H220809   2.127   2.100   5.330  0.9270 -0.5159 -0.2651
 6949TIP3   OH220810   5.613   5.919   2.740  0.1025 -0.0880  0.4790
 6949TIP3    H120811   5.668   5.968   2.678 -1.0923 -0.2478 -0.7413
 6949TIP3    H220812   5.660   5.837   2.753 -1.2712 -1.6312 -3.0861
 6950TIP3   OH220813   5.805   4.573   1.522  0.0231  0.0541 -0.0650
 6950TIP3    H120814   5.764   4.491   1.494 -1.5226  0.3385  1.2467
 6950TIP3    H220815   5.817   4.623   1.440 -0.5185 -0.8139 -0.6865
 6951TIP3   OH220816   5.584   1.205   4.695  0.0206 -0.7141 -0.9559
 6951TIP3    H120817   5.576   1.238   4.605 -0.3622 -0.8458 -0.9707
 6951TIP3    H220818   5.661   1.250   4.730 -1.1872  1.1274 -0.5613
 6952TIP3   OH220819   6.851   5.538   2.451  0.1721 -0.0378 -0.7651
 6952TIP3    H120820   6.907   5.552   2.375  1.1335 -1.0875 -0.2716
 6952TIP3    H220821   6.911   5.530   2.525 -0.5521 -1.7988 -0.3103
 6953TIP3   OH220822   5.070   5.730   3.138 -0.4723  0.2411  0.4042
 6953TIP3    H120823   5.161   5.760   3.142 -0.0800 -0.3630 -2.1160
 6953TIP3    H220824   5.018   5.806   3.165  0.6780  1.7491 -1.3738
 6954TIP3   OH220825   7.108   0.536   0.782 -0.5890 -0.2670  0.2860
 6954TIP3    H120826   7.123   0.611   0.840  0.2171 -0.7589  0.7420
 6954TIP3    H220827   7.118   0.571   0.694  1.0318 -0.0745  0.5185
 6955TIP3   OH220828   1.933   6.168   0.988  0.0065  0.2761  0.0034
 6955TIP3    H120829   1.966   6.080   0.999  0.7257  0.0748 -2.8249
 6955TIP3    H220830   1.931   6.205   1.076  1.6392 -1.8470  1.0189
 6956TIP3   OH220831   4.537   0.448   2.086 -0.0998 -0.0732  0.7866
 6956TIP3    H120832   4.536   0.541   2.064  1.6002 -0.4152 -1.0492
 6956TIP3    H220833   4.496   0.443   2.172  0.2755  2.4273  1.1839
 6957TIP3   OH220834   5.095   0.425   5.024  0.1326  0.2022 -0.3194
 6957TIP3    H120835   5.072   0.483   4.952 -0.0397  0.5799  0.0380
 6957TIP3    H220836   5.141   0.480   5.087  0.8519 -0.2629 -0.4179
 6958TIP3   OH220837   5.224   6.023   2.633 -0.2578  0.7083 -0.0058
 6958TIP3    H120838   5.132   6.041   2.612  0.0857  0.9683 -1.3372
 6958TIP3    H220839   5.274   6.084   2.580  0.7223 -0.0048  0.0686
 6959TIP3   OH220840   2.456   2.364   4.431 -0.3971  0.4366 -0.1025
 6959TIP3    H120841   2.547   2.383   4.410 -0.2790 -0.2683 -0.2515
 6959TIP3    H220842   2.426   2.440   4.481  0.2225  0.7424 -0.1916
 6960TIP3   OH220843   1.300   2.131   5.245  0.2301 -0.5766  0.1055
 6960TIP3    H120844   1.303   2.207   5.187 -1.3830 -1.0343 -0.6558
 6960TIP3    H220845   1.241   2.157   5.316  0.8920 -0.5952  0.6718
 6961TIP3   OH220846   3.761   4.596   2.415  0.1355 -0.0362 -0.3407
 6961TIP3    H120847   3.821   4.657   2.372  1.3875 -0.9689  0.0159
 6961TIP3    H220848   3.712   4.650   2.477  1.3446  0.6033  0.0932
 6962TIP3   OH220849   1.197   0.421   4.668  0.6913 -0.1537 -0.0795
 6962TIP3    H120850   1.147   0.341   4.654 -0.6303  0.6867 -0.3737
 6962TIP3    H220851   1.275   0.393   4.715 -0.1635 -1.4934  0.5930
 6963TIP3   OH220852   5.654   4.828   2.970 -0.2055  0.4641 -0.0987
 6963TIP3    H120853   5.567   4.801   2.940  0.2043 -0.9661 -0.0952
 6963TIP3    H220854   5.696   4.864   2.892 -0.2233 -0.4165 -0.5370
 6964TIP3   OH220855   1.828   2.943   2.227 -0.0920 -0.0208 -0.5528
 6964TIP3    H120856   1.792   2.972   2.143 -0.2019  0.9904 -0.1689
 6964TIP3    H220857   1.762   2.883   2.261  0.2251 -0.9002 -1.4512
 6965TIP3   OH220858   6.184   2.537   2.604  0.0569  0.4153  1.0276
 6965TIP3    H120859   6.232   2.619   2.598 -0.3743  0.6046 -0.0403
 6965TIP3    H220860   6.145   2.525   2.517 -0.9549 -0.2603  1.5485
 6966TIP3   OH220861   4.440   5.989   3.762  0.2185 -0.4983 -0.5223
 6966TIP3    H120862   4.376   5.957   3.699 -0.0254 -0.8189 -0.1175
 6966TIP3    H220863   4.443   5.921   3.830  1.9405 -1.1205 -1.1772
 6967TIP3   OH220864   2.995   2.594   3.885 -0.5782 -0.4068  0.3848
 6967TIP3    H120865   3.009   2.606   3.791 -0.0678 -3.9256 -0.1064
 6967TIP3    H220866   2.899   2.593   3.895 -0.6440  0.8700  0.1103
 6968TIP3   OH220867   5.959   6.214   5.782 -0.7648 -0.1242  0.3201
 6968TIP3    H120868   5.988   6.299   5.750  0.7654  0.2016  2.3369
 6968TIP3    H220869   5.968   6.220   5.877 -0.8391 -2.4507  0.5368
 6969TIP3   OH220870   3.818   0.486   2.761 -0.6488 -0.3065  0.0214
 6969TIP3    H120871   3.879   0.531   2.819 -1.4257  0.9263 -0.0955
 6969TIP3    H220872   3.734   0.530   2.775 -0.3979  1.7683 -3.7895
 6970TIP3   OH220873   3.883   1.486   5.664 -0.0821  0.1274 -1.0824
 6970TIP3    H120874   3.815   1.553   5.654 -0.9180 -0.8471 -2.1665
 6970TIP3    H220875   3.858   1.438   5.743  0.7713  1.3428 -0.0394
 6971TIP3   OH220876   2.562   1.773   5.304 -0.0324 -0.1134  0.2577
 6971TIP3    H120877   2.540   1.693   5.256  0.0185  0.1640 -0.2341
 6971TIP3    H220878   2.649   1.797   5.273 -0.0070  0.0761  0.4747
 6972TIP3   OH220879   6.848   2.236   0.602  0.1005  0.1161  0.6488
 6972TIP3    H120880   6.781   2.279   0.656  0.3490 -1.1321  2.0294
 6972TIP3    H220881   6.929   2.283   0.623  0.1107 -0.0565  1.0075
 6973TIP3   OH220882   3.412   1.844   1.033  0.1141  0.5206 -0.2480
 6973TIP3    H120883   3.384   1.872   0.946 -2.3963 -3.2595 -0.8654
 6973TIP3    H220884   3.335   1.857   1.088  0.0348 -1.5919  0.2070
 6974TIP3   OH220885   4.050   1.806   4.085 -0.2669 -0.0669 -0.1458
 6974TIP3    H120886   4.130   1.756   4.067 -1.2873 -2.2140  0.9001
 6974TIP3    H220887   4.058   1.831   4.178 -0.7261 -0.1311 -0.0874
 6975TIP3   OH220888   1.987   1.630   4.639  0.2567 -0.1129 -0.5832
 6975TIP3    H120889   1.958   1.701   4.583 -1.5001  0.5216  1.0214
 6975TIP3    H220890   2.032   1.674   4.712  0.2311 -0.7150 -0.1951
 6976TIP3   OH220891   1.599   3.977   1.877 -0.2248  0.2252 -0.0473
 6976TIP3    H120892   1.504   3.969   1.886 -0.3201  2.5712  1.9773
 6976TIP3    H220893   1.634   3.910   1.936 -0.5363 -1.2721 -1.4841
 6977TIP3   OH220894   3.565   3.869   5.176  0.0112  0.1341 -0.6879
 6977TIP3    H120895   3.585   3.893   5.085  2.0407 -1.0067 -0.5847
 6977TIP3    H220896   3.634   3.809   5.201 -1.5696 -1.0852  1.0321
 6978TIP3   OH220897   6.213   3.308   2.104 -0.6671  0.2798  0.3535
 6978TIP3    H120898   6.117   3.303   2.104 -0.6901  0.1142 -1.3295
 6978TIP3    H220899   6.237   3.305   2.012  1.0392 -0.9027  0.7989
 6979TIP3   OH220900   4.768   3.183   2.595 -0.0178  0.2368 -0.2411
 6979TIP3    H120901   4.777   3.105   2.540 -0.7169  0.5387 -0.8001
 6979TIP3    H220902   4.718   3.245   2.541  1.3294  1.4388 -0.1917
 6980TIP3   OH220903   0.419   4.594   1.565  0.5787 -0.0444  0.2528
 6980TIP3    H120904   0.486   4.552   1.618  1.1780  0.4314 -0.1131
 6980TIP3    H220905   0.385   4.665   1.620  2.2096  1.3818 -0.4770
 6981TIP3   OH220906   7.153   4.385   4.066  0.1749 -0.4922 -0.0666
 6981TIP3    H120907   7.139   4.329   3.990 -1.1750 -2.0856  1.2898
 6981TIP3    H220908   7.086   4.453   4.059 -0.0976 -0.7737 -0.1709
 6982TIP3   OH220909   3.667   1.005   5.881  0.1476  0.0835  0.2623
 6982TIP3    H120910   3.704   0.943   5.817  3.2362  2.7872 -0.8997
 6982TIP3    H220911   3.627   1.073   5.827  2.0349  1.9770  1.1090
 6983TIP3   OH220912   6.381   0.477   0.354 -0.3731 -0.2929 -0.7962
 6983TIP3    H120913   6.375   0.383   0.341  1.8508 -0.1873 -3.4743
 6983TIP3    H220914   6.308   0.514   0.304 -1.1314 -0.5502  0.0994
 6984TIP3   OH220915   5.743   3.937   4.876 -0.0069  0.3619  0.0009
 6984TIP3    H120916   5.775   3.967   4.791 -1.6984 -0.2668 -0.9132
 6984TIP3    H220917   5.795   3.858   4.894 -1.2381 -0.9111 -1.6650
 6985TIP3   OH220918   3.161   3.862   5.586 -0.0975  0.0362  0.4516
 6985TIP3    H120919   3.166   3.775   5.547  0.7332  0.3927 -0.2662
 6985TIP3    H220920   3.114   3.915   5.522  2.2849  0.9141 -0.6855
 6986TIP3   OH220921   1.757   1.429   5.740  0.5937  0.0432 -0.7331
 6986TIP3    H120922   1.683   1.375   5.767  2.0430 -1.0267  1.3811
 6986TIP3    H220923   1.781   1.395   5.654  0.8551 -2.1285  0.1233
 6987TIP3   OH220924   3.695   0.742   0.884  0.2532  0.1374 -0.3706
 6987TIP3    H120925   3.610   0.699   0.870  0.4432 -1.1660  2.0947
 6987TIP3    H220926   3.676   0.814   0.944  0.5134  1.5433 -1.8888
 6988TIP3   OH220927   5.340   0.632   4.435  0.4360  0.0619  0.1294
 6988TIP3    H120928   5.252   0.598   4.415 -0.3650  1.2518  1.4190
 6988TIP3    H220929   5.387   0.626   4.352 -0.4501 -1.7497 -0.3074
 6989TIP3   OH220930   3.439   4.096   3.591  0.0065 -0.0997  0.2536
 6989TIP3    H120931   3.531   4.094   3.566  0.2838 -0.2647  1.2504
 6989TIP3    H220932   3.393   4.121   3.511  0.9253  0.1259 -0.2169
 6990TIP3   OH220933   2.595   1.305   0.902  0.4022 -0.2567  0.1267
 6990TIP3    H120934   2.541   1.232   0.932 -0.1652 -0.6139 -1.6429
 6990TIP3    H220935   2.550   1.383   0.934 -0.5733 -0.5926 -0.3808
 6991TIP3   OH220936   4.500   4.178   5.461  0.2906 -0.6309  0.6169
 6991TIP3    H120937   4.588   4.161   5.495  1.2285 -0.1279 -1.4004
 6991TIP3    H220938   4.483   4.106   5.401  1.2451  1.3689 -2.3380
 6992TIP3   OH220939   1.164   6.382   5.557 -0.3215  0.3729  0.0872
 6992TIP3    H120940   1.079   6.398   5.597  0.3169 -0.9595  2.1255
 6992TIP3    H220941   1.185   6.291   5.579  0.8759  0.1055 -1.8751
 6993TIP3   OH220942   6.094   4.673   5.375  0.3067  0.1562  0.1764
 6993TIP3    H120943   6.013   4.721   5.390 -0.1603 -0.3722 -0.5661
 6993TIP3    H220944   6.070   4.581   5.385  0.2774 -0.1560 -2.1904
 6994TIP3   OH220945   6.870   1.660   4.292  0.6017  0.3134  0.3953
 6994TIP3    H120946   6.792   1.715   4.283 -0.7428 -1.3099  1.5292
 6994TIP3    H220947   6.931   1.694   4.226 -1.1339  1.5029 -0.6785
 6995TIP3   OH220948   6.975   0.013   5.690 -0.6571  0.0469  0.3327
 6995TIP3    H120949   7.017   0.041   5.609  0.0575  0.7229  0.9238
 6995TIP3    H220950   7.002   0.078   5.755  0.5381 -1.6719  1.6249
 6996TIP3   OH220951   1.127   5.393   0.413 -0.0843  0.1202 -0.8782
 6996TIP3    H120952   1.138   5.475   0.364  0.9035 -1.0124 -2.6680
 6996TIP3    H220953   1.184   5.403   0.489 -0.2404  1.2209 -0.8808
 6997TIP3   OH220954   1.796   4.594   2.171 -0.5090 -0.6333 -1.0364
 6997TIP3    H120955   1.735   4.523   2.152 -0.0683 -0.8754 -1.6040
 6997TIP3    H220956   1.824   4.626   2.085  2.1450 -2.2696 -0.9038
 6998TIP3   OH220957   7.168   1.563   0.950 -0.1685  0.2472 -0.1512
 6998TIP3    H120958   7.123   1.608   1.022  0.2287 -0.6886  0.6970
 6998TIP3    H220959   7.102   1.502   0.915  0.1847 -0.6047  0.6231
 6999TIP3   OH220960   6.673   5.043   5.151  0.0242 -0.0429 -0.4011
 6999TIP3    H120961   6.587   5.035   5.109 -0.8028 -0.7626  1.3545
 6999TIP3    H220962   6.731   5.073   5.080 -0.7620 -3.4242 -2.7512
 7000TIP3   OH220963   4.264   3.584   1.629 -0.2420  0.4927 -0.0103
 7000TIP3    H120964   4.260   3.644   1.704  0.5553 -0.3522  0.7364
 7000TIP3    H220965   4.358   3.566   1.619 -0.4724 -0.7326 -0.1229
 7001TIP3   OH220966   3.653   5.106   3.027  0.0507  0.6214  0.4418
 7001TIP3    H120967   3.640   5.147   2.941  2.4178  0.6197  0.0121
 7001TIP3    H220968   3.671   5.015   3.007 -2.7098 -0.1831  1.2342
 7002TIP3   OH220969   3.247   3.044   3.967  0.6125  0.0087 -0.2600
 7002TIP3    H120970   3.169   3.047   3.912 -0.7921 -0.1463  1.6207
 7002TIP3    H220971   3.305   3.110   3.930  0.5559 -1.3607 -3.0221
 7003TIP3   OH220972   0.376   5.568   5.692  0.1199  0.1070 -0.3193
 7003TIP3    H120973   0.459   5.598   5.729  0.4115 -1.6441  0.5364
 7003TIP3    H220974   0.362   5.482   5.731 -0.7493 -0.8177 -2.5079
 7004TIP3   OH220975   5.467   1.460   0.944 -0.3603 -0.3727  0.3998
 7004TIP3    H120976   5.428   1.508   1.017 -1.0239  0.6448 -0.6109
 7004TIP3    H220977   5.531   1.402   0.986 -1.2814 -0.3884  1.8651
 7005TIP3   OH220978   2.855   0.947   4.138  0.3089 -0.2623 -0.3064
 7005TIP3    H120979   2.860   1.040   4.161 -1.0634 -0.0224 -0.8798
 7005TIP3    H220980   2.776   0.917   4.183  1.7800 -1.6643  1.5056
 7006TIP3   OH220981   2.562   4.317   1.452 -0.2472 -0.3541  0.5523
 7006TIP3    H120982   2.609   4.356   1.378 -0.9757  1.5653  1.0442
 7006TIP3    H220983   2.609   4.348   1.529 -0.1358 -1.4625  0.9437
 7007TIP3   OH220984   5.394   6.740   5.698 -0.7822  0.0964  0.2686
 7007TIP3    H120985   5.477   6.718   5.656 -0.4967  0.6339  0.5407
 7007TIP3    H220986   5.418   6.802   5.767 -1.5877  1.5944 -0.7186
 7008TIP3   OH220987   3.009   6.383   3.085  0.1666  0.0117 -0.2012
 7008TIP3    H120988   2.999   6.305   3.030 -0.0641  0.2105 -0.4479
 7008TIP3    H220989   2.996   6.353   3.174 -0.5311 -0.1222 -0.3471
 7009TIP3   OH220990   2.250   1.618   4.153 -0.0646  1.2868  0.1151
 7009TIP3    H120991   2.288   1.635   4.066  1.2607  0.3552  0.4885
 7009TIP3    H220992   2.302   1.673   4.212  0.7410 -0.0093  0.6353
 7010TIP3   OH220993   3.242   4.765   0.610  0.4700 -0.5472  0.3293
 7010TIP3    H120994   3.274   4.675   0.620  0.3626 -0.4909  1.2524
 7010TIP3    H220995   3.149   4.755   0.589  0.3308 -0.6423  0.9871
 7011TIP3   OH220996   2.822   1.489   0.154  0.0509 -0.3313 -0.0536
 7011TIP3    H120997   2.768   1.566   0.138  0.7850  0.2104 -0.0084
 7011TIP3    H220998   2.895   1.499   0.092 -1.1066 -2.2970 -1.8747
 7012TIP3   OH220999   6.850   0.722   1.513  0.1141 -0.2310 -0.0444
 7012TIP3    H121000   6.774   0.687   1.468 -1.6662  4.0675 -0.8608
 7012TIP3    H221001   6.822   0.734   1.604  0.2956  0.0293 -0.0185
 7013TIP3   OH221002   4.969   3.913   0.580 -0.0500  0.3604  0.0397
 7013TIP3    H121003   5.029   3.981   0.610 -0.2679  0.8990 -0.7085
 7013TIP3    H221004   4.954   3.858   0.657  0.6835  0.7471  0.4688
 7014TIP3   OH221005   4.643   3.680   3.696 -0.0778 -0.7640 -0.5958
 7014TIP3    H121006   4.666   3.695   3.787 -0.0747  0.2031 -0.7411
 7014TIP3    H221007   4.589   3.756   3.672 -0.7540 -1.4032 -1.1711
 7015TIP3   OH221008   6.821   1.557   2.212  0.1527  0.5052 -0.3942
 7015TIP3    H121009   6.760   1.626   2.239  0.2603  0.4981 -0.1282
 7015TIP3    H221010   6.895   1.565   2.273  0.6367  0.8178 -1.0146
 7016TIP3   OH221011   5.743   4.530   5.220 -0.2156  0.1813 -0.0188
 7016TIP3    H121012   5.797   4.594   5.174  0.3998 -0.3085  0.0066
 7016TIP3    H221013   5.741   4.453   5.162 -2.3008  0.7740 -0.8075
 7017TIP3   OH221014   3.140   1.262   1.147 -0.1708  0.4634 -0.8235
 7017TIP3    H121015   3.168   1.261   1.056  0.4387 -0.1688 -0.6373
 7017TIP3    H221016   3.046   1.249   1.143  0.0010 -0.7501 -1.3229
 7018TIP3   OH221017   3.022   1.628   3.128  0.0301  0.1876  0.2065
 7018TIP3    H121018   2.952   1.666   3.075  1.0406 -0.6258 -1.8510
 7018TIP3    H221019   3.102   1.652   3.082  0.8337 -2.4524  0.0236
 7019TIP3   OH221020   4.520   5.210   4.365  0.1884 -0.2272  0.2215
 7019TIP3    H121021   4.445   5.152   4.351 -0.0498  0.2893 -0.7235
 7019TIP3    H221022   4.527   5.216   4.460 -1.5327  0.3859  0.3552
 7020TIP3   OH221023   0.876   3.460   4.946 -0.5112  0.2223  0.1902
 7020TIP3    H121024   0.862   3.366   4.941 -3.2339  0.3233  2.8409
 7020TIP3    H221025   0.803   3.498   4.896 -1.3048  0.8450  1.7420
 7021TIP3   OH221026   3.760   2.643   3.563 -0.0157 -0.3300 -0.3443
 7021TIP3    H121027   3.732   2.699   3.636  1.6632  0.2650 -0.1116
 7021TIP3    H221028   3.824   2.697   3.516  0.7154 -1.6054 -0.8391
 7022TIP3   OH221029   1.562   6.276   2.380 -0.0063  0.1605  0.4137
 7022TIP3    H121030   1.617   6.301   2.306 -0.1659  0.6918  0.4750
 7022TIP3    H221031   1.523   6.358   2.411 -0.0508 -0.0757  1.0000
 7023TIP3   OH221032   2.067   3.823   5.704 -0.1534 -0.0165 -0.2863
 7023TIP3    H121033   1.977   3.837   5.675 -0.7507 -0.8875  1.0218
 7023TIP3    H221034   2.113   3.904   5.682 -1.0426  0.1407 -1.7043
 7024TIP3   OH221035   2.506   2.816   1.960  0.0004  0.0945 -0.2521
 7024TIP3    H121036   2.601   2.824   1.954 -0.0606  1.2583  0.1545
 7024TIP3    H221037   2.474   2.860   1.881 -0.2816  2.5352  1.1250
 7025TIP3   OH221038   0.962   6.121   1.361 -1.0109  0.1594  0.3164
 7025TIP3    H121039   0.986   6.116   1.454 -0.1759  1.3584  0.1841
 7025TIP3    H221040   1.012   6.050   1.320  0.1111  0.8197  0.4995
 7026TIP3   OH221041   0.459   2.885   3.199  0.1744 -0.6615 -0.3492
 7026TIP3    H121042   0.367   2.878   3.172 -0.3617 -1.6774  1.5228
 7026TIP3    H221043   0.509   2.861   3.121 -1.1929 -1.4517 -1.0262
 7027TIP3   OH221044   5.858   4.597   3.928 -0.2893 -0.1197  0.7162
 7027TIP3    H121045   5.881   4.507   3.949 -0.9456 -1.1281 -2.3588
 7027TIP3    H221046   5.886   4.609   3.838 -1.3229  2.3784  0.6298
 7028TIP3   OH221047   6.719   4.287   5.715  0.3468 -0.1955 -0.1481
 7028TIP3    H121048   6.703   4.225   5.787  1.0018  0.4603  0.5770
 7028TIP3    H221049   6.809   4.316   5.728  0.4398 -0.0021 -1.1928
 7029TIP3   OH221050   3.759   6.562   2.728  0.0905  0.0601 -0.2394
 7029TIP3    H121051   3.732   6.598   2.643 -0.8541  1.1528  0.4782
 7029TIP3    H221052   3.844   6.601   2.745 -0.1303  0.5608 -0.2745
 7030TIP3   OH221053   5.886   6.677   2.399  0.4037 -0.0691  0.1703
 7030TIP3    H121054   5.931   6.689   2.483  0.6007 -1.0416  0.2158
 7030TIP3    H221055   5.820   6.610   2.416 -0.3020  0.5288 -0.1840
 7031TIP3   OH221056   3.451   3.591   3.213 -0.0087  0.0278 -0.2163
 7031TIP3    H121057   3.358   3.585   3.236 -0.3536 -0.8486 -1.6822
 7031TIP3    H221058   3.458   3.541   3.131  1.6378  0.6393 -0.4745
 7032TIP3   OH221059   3.073   2.819   0.465  0.1140  0.3571 -0.1077
 7032TIP3    H121060   3.063   2.839   0.558 -2.0947  0.9536 -0.4048
 7032TIP3    H221061   2.998   2.862   0.423  0.4053 -0.8620 -2.0161
 7033TIP3   OH221062   5.409   6.038   0.815  0.1979  0.0752  0.2387
 7033TIP3    H121063   5.409   5.975   0.887  0.2986 -0.6477 -0.3694
 7033TIP3    H221064   5.358   5.994   0.746 -1.9829  1.7470  0.6976
 7034TIP3   OH221065   6.362   4.894   5.242  0.7283 -0.2411 -0.2513
 7034TIP3    H121066   6.435   4.841   5.212  0.4388 -0.0944 -1.2263
 7034TIP3    H221067   6.311   4.835   5.297 -0.0343 -1.2504 -1.9672
 7035TIP3   OH221068   5.730   3.656   0.989 -1.4395  0.3207 -0.1094
 7035TIP3    H121069   5.705   3.700   0.908  0.5021  2.7545  0.5224
 7035TIP3    H221070   5.711   3.720   1.058  1.2438  0.1571  0.8760
 7036TIP3   OH221071   3.423   1.734   4.707  0.4710 -0.2474 -0.3793
 7036TIP3    H121072   3.382   1.702   4.787  0.6802  0.3815 -0.0093
 7036TIP3    H221073   3.443   1.655   4.657 -2.4528 -0.5385 -1.2392
 7037TIP3   OH221074   1.794   0.806   5.552  0.5880 -0.3879  0.6751
 7037TIP3    H121075   1.827   0.716   5.539  0.3199 -0.5097  0.8428
 7037TIP3    H221076   1.774   0.810   5.645  0.8039 -0.0819  0.7093
 7038TIP3   OH221077   5.816   3.046   2.298 -0.0944  0.0118 -0.2622
 7038TIP3    H121078   5.788   3.013   2.212  0.3295 -0.6345 -0.1581
 7038TIP3    H221079   5.864   2.973   2.337 -1.0539 -0.0019  0.9089
 7039TIP3   OH221080   3.517   4.709   4.138  0.2011  0.9565 -0.7077
 7039TIP3    H121081   3.429   4.741   4.159 -0.7093 -1.5360 -0.3816
 7039TIP3    H221082   3.548   4.669   4.218  1.2427  0.9214 -1.1148
 7040TIP3   OH221083   5.377   4.204   4.063 -0.4768 -0.2143  0.3439
 7040TIP3    H121084   5.408   4.161   3.983 -1.1868 -0.4473  0.1860
 7040TIP3    H221085   5.454   4.249   4.098 -0.3355  0.5309 -0.8837
 7041TIP3   OH221086   4.279   5.878   0.473  0.3244  0.2936  0.1250
 7041TIP3    H121087   4.282   5.886   0.377 -2.8615 -0.5995 -0.1721
 7041TIP3    H221088   4.245   5.963   0.502 -2.6318 -0.7034 -0.0402
 7042TIP3   OH221089   1.671   5.631   2.320  0.8627  0.5543  0.5917
 7042TIP3    H121090   1.650   5.698   2.385 -0.1682  0.5056  0.3183
 7042TIP3    H221091   1.591   5.622   2.267  1.7315  0.7525 -0.8283
 7043TIP3   OH221092   1.993   1.991   1.913  0.6802  0.0905  0.1789
 7043TIP3    H121093   1.996   2.011   2.007  0.8543  1.1208 -0.0366
 7043TIP3    H221094   2.082   1.961   1.893  0.5389 -0.5082  0.4120
 7044TIP3   OH221095   6.449   4.061   5.285  0.0493  0.4577 -0.4917
 7044TIP3    H121096   6.514   4.017   5.232 -0.2743 -0.6233 -0.0163
 7044TIP3    H221097   6.369   4.060   5.232 -0.5249 -1.4435  0.3203
 7045TIP3   OH221098   0.904   3.316   3.187  0.8394 -0.4002 -0.5317
 7045TIP3    H121099   0.875   3.390   3.133  0.5278 -1.6592 -2.1956
 7045TIP3    H221100   0.825   3.288   3.233  1.0389  0.4955  0.3939
 7046TIP3   OH221101   5.877   0.670   1.300  0.1761 -0.3933 -0.1399
 7046TIP3    H121102   5.786   0.666   1.331 -0.6621 -0.3758 -2.3952
 7046TIP3    H221103   5.876   0.624   1.217  1.8959  1.0131 -1.0123
 7047TIP3   OH221104   5.415   5.027   0.016  0.7783 -0.2159 -0.2581
 7047TIP3    H121105   5.382   5.015   0.105 -2.2869 -1.4968 -1.4349
 7047TIP3    H221106   5.350   5.083  -0.026  2.1819  0.3850 -1.7170
 7048TIP3   OH221107   3.319  -0.031   0.406  0.3513  0.2629 -0.1309
 7048TIP3    H121108   3.385  -0.023   0.337  0.7933 -0.0567  0.2522
 7048TIP3    H221109   3.299   0.060   0.429  1.2516  0.3681  0.3042
 7049TIP3   OH221110   2.892   3.259   3.590 -0.1656 -0.7426 -0.0692
 7049TIP3    H121111   2.986   3.253   3.571 -0.0381  0.8651 -0.1591
 7049TIP3    H221112   2.876   3.192   3.656  1.1782 -0.6303  0.4032
 7050TIP3   OH221113   1.851   6.770   0.435 -0.0796 -0.2539 -0.2114
 7050TIP3    H121114   1.821   6.861   0.428  0.6449 -0.0856 -1.3885
 7050TIP3    H221115   1.772   6.721   0.459 -1.0138  0.3655 -1.8762
 7051TIP3   OH221116   5.028   0.592   4.354 -0.9240  0.2365 -0.4609
 7051TIP3    H121117   4.978   0.521   4.394  0.3982 -1.1153 -1.1147
 7051TIP3    H221118   5.016   0.667   4.413 -1.5047 -0.8119  0.7871
 7052TIP3   OH221119   5.467   3.795   4.340 -0.0036 -0.2690 -0.1228
 7052TIP3    H121120   5.538   3.809   4.403  0.1800 -0.9740 -0.1624
 7052TIP3    H221121   5.400   3.858   4.366  0.2666 -0.2165  0.4771
 7053TIP3   OH221122   3.341   5.443   5.106  0.5001 -0.0363 -0.6119
 7053TIP3    H121123   3.436   5.428   5.098  0.6810  0.2825  0.6421
 7053TIP3    H221124   3.332   5.538   5.114  0.0400 -0.0388 -1.0806
 7054TIP3   OH221125   5.315   6.141   1.343  0.2580  0.5765 -0.7142
 7054TIP3    H121126   5.288   6.049   1.343  1.0624  0.3239 -1.7431
 7054TIP3    H221127   5.377   6.148   1.415  1.5816 -0.1384 -1.7443
 7055TIP3   OH221128   0.807   4.655   0.585 -0.4216  0.2637 -0.0313
 7055TIP3    H121129   0.895   4.677   0.553 -0.2675 -1.2823 -0.7604
 7055TIP3    H221130   0.822   4.603   0.664 -0.7682  2.2077  1.3810
 7056TIP3   OH221131   4.537   5.012   2.415 -0.6316  0.4654 -0.4834
 7056TIP3    H121132   4.470   5.059   2.465 -1.3413  2.6613 -3.2632
 7056TIP3    H221133   4.490   4.940   2.373 -0.6856  0.4603 -0.4149
 7057TIP3   OH221134   1.522   3.294   3.180 -0.5044  0.5456 -0.2436
 7057TIP3    H121135   1.533   3.321   3.089 -1.0519 -0.4709 -0.6366
 7057TIP3    H221136   1.495   3.202   3.174  0.2625  0.2168  0.9751
 7058TIP3   OH221137   4.954   4.271   2.560 -0.1732 -0.1219 -0.2203
 7058TIP3    H121138   5.002   4.296   2.639 -0.1927 -1.1645  0.1398
 7058TIP3    H221139   5.013   4.213   2.513  0.9875  2.5829 -2.4295
 7059TIP3   OH221140   5.961   6.707   0.187  0.0090  0.4749  0.4166
 7059TIP3    H121141   5.883   6.662   0.155 -0.2874  0.6772  0.8430
 7059TIP3    H221142   5.935   6.799   0.192  1.0086  0.9555 -1.7309
 7060TIP3   OH221143   5.192   4.903   4.333 -0.8711 -0.1960  0.1392
 7060TIP3    H121144   5.149   4.820   4.352 -1.4364  0.2507  0.8381
 7060TIP3    H221145   5.183   4.914   4.238 -0.2752 -1.2070 -0.0464
 7061TIP3   OH221146   4.119   6.448   3.481 -0.6783 -0.2340  0.0637
 7061TIP3    H121147   4.046   6.417   3.534 -0.4264 -1.4669 -0.2827
 7061TIP3    H221148   4.078   6.485   3.403 -0.9469 -0.6406  0.0111
 7062TIP3   OH221149   4.258   6.524   2.826 -0.4045 -0.0587  0.6750
 7062TIP3    H121150   4.218   6.472   2.896  0.8416 -0.0451  1.4263
 7062TIP3    H221151   4.295   6.600   2.872 -1.6210  1.1959 -0.3142
 7063TIP3   OH221152   5.072   0.220   1.129  0.2618 -0.0223 -0.7935
 7063TIP3    H121153   5.007   0.273   1.084  0.2154  0.7823  0.1731
 7063TIP3    H221154   5.113   0.280   1.191 -0.5907 -1.3757  1.1848
 7064TIP3   OH221155   2.329   6.493   3.175  0.2088 -0.3391  0.5920
 7064TIP3    H121156   2.327   6.412   3.125 -0.4946 -0.7721  1.2871
 7064TIP3    H221157   2.281   6.557   3.121 -1.3511 -1.0418  1.0722
 7065TIP3   OH221158   3.878   2.059   5.188  0.4728 -0.5815 -0.1418
 7065TIP3    H121159   3.930   1.985   5.156  0.2607 -0.0012 -1.9513
 7065TIP3    H221160   3.914   2.136   5.144 -1.1897 -0.0244 -0.6340
 7066TIP3   OH221161   3.889   6.145   5.571  0.6185  0.0620  0.3070
 7066TIP3    H121162   3.920   6.171   5.484  0.6166  0.1987  0.3483
 7066TIP3    H221163   3.864   6.053   5.560  0.4949  0.1147  0.1278
 7067TIP3   OH221164   0.199   5.454   3.398  0.1062 -0.2681 -0.6179
 7067TIP3    H121165   0.114   5.497   3.399  0.4424  0.4147 -1.0895
 7067TIP3    H221166   0.233   5.467   3.486  0.7204  1.5037 -1.0702
 7068TIP3   OH221167   6.899   2.879   4.445  0.6704 -0.3417  0.2847
 7068TIP3    H121168   6.989   2.903   4.466  0.6125  0.4685 -0.3257
 7068TIP3    H221169   6.862   2.958   4.405 -0.3807 -0.5932  0.7236
 7069TIP3   OH221170   2.800   4.123   5.522 -0.4709 -0.3138  0.1363
 7069TIP3    H121171   2.772   4.136   5.613 -1.2699 -0.2199 -0.1127
 7069TIP3    H221172   2.741   4.178   5.471 -0.6359 -1.0776 -0.5166
 7070TIP3   OH221173   6.729   2.261   4.278 -0.0890  0.0228  0.4208
 7070TIP3    H121174   6.693   2.208   4.207 -0.1524  2.9460 -1.9960
 7070TIP3    H221175   6.806   2.213   4.308  0.6576 -0.8404 -2.5410
 7071TIP3   OH221176   6.477   3.667   3.002 -0.4389  0.0224  0.0521
 7071TIP3    H121177   6.458   3.703   2.915 -0.0164  0.1564  0.0111
 7071TIP3    H221178   6.407   3.604   3.017  0.0801 -0.7956 -0.8484
 7072TIP3   OH221179   7.044   5.695   1.103 -0.0957  0.2941 -0.0357
 7072TIP3    H121180   7.012   5.609   1.130  1.1444 -0.4523 -0.8321
 7072TIP3    H221181   6.997   5.756   1.159 -0.1425 -0.9747  1.3891
 7073TIP3   OH221182   0.494   0.275   0.167 -0.1775 -0.1496  0.5362
 7073TIP3    H121183   0.507   0.266   0.073 -1.7583 -2.4975  0.4503
 7073TIP3    H221184   0.485   0.369   0.182  1.3499  0.3729 -1.4280
 7074TIP3   OH221185   2.882   3.237   5.419 -0.4118  0.4400  0.4280
 7074TIP3    H121186   2.819   3.217   5.488  0.3408  2.0948  1.6490
 7074TIP3    H221187   2.956   3.277   5.465  0.1842  1.4399 -1.3264
 7075TIP3   OH221188   2.227   5.508   0.506  0.4917  0.1935  0.0544
 7075TIP3    H121189   2.210   5.428   0.457 -0.7347 -1.2280  2.6442
 7075TIP3    H221190   2.141   5.539   0.533  1.0901  1.2448  0.8612
 7076TIP3   OH221191   1.913   4.555   0.063 -0.9850 -0.3323  0.3068
 7076TIP3    H121192   1.850   4.498   0.108 -0.6990 -1.1552 -0.3161
 7076TIP3    H221193   1.981   4.573   0.128 -0.9501 -0.9092  0.4274
 7077TIP3   OH221194   5.367   0.211   5.092 -0.0488 -0.3611 -0.0220
 7077TIP3    H121195   5.451   0.171   5.067 -1.5463 -1.9716 -3.1522
 7077TIP3    H221196   5.374   0.301   5.060 -0.2933 -1.1726 -2.6134
 7078TIP3   OH221197   1.088   4.656   0.910 -0.1867 -0.2500 -0.5098
 7078TIP3    H121198   1.152   4.690   0.973 -0.1578  0.0447 -0.6960
 7078TIP3    H221199   1.133   4.583   0.868  0.0566 -0.0043 -0.6841
 7079TIP3   OH221200   5.947   1.111   0.987  0.2394  0.0117  0.0862
 7079TIP3    H121201   5.946   1.112   1.082  1.1835 -0.8264  0.1245
 7079TIP3    H221202   5.896   1.188   0.961 -1.9795 -0.9638  1.2406
 7080TIP3   OH221203   0.435   1.646   0.598  0.1666 -0.4217  0.0055
 7080TIP3    H121204   0.451   1.552   0.591 -0.1041 -0.5110  0.5478
 7080TIP3    H221205   0.353   1.654   0.648 -0.0731  0.0902 -0.4519
 7081TIP3   OH221206   5.984   5.638   2.756 -0.0907  0.2155  0.2332
 7081TIP3    H121207   6.008   5.730   2.756  1.4061 -0.1474  0.6828
 7081TIP3    H221208   6.038   5.598   2.824 -2.6730 -0.5434  1.9688
 7082TIP3   OH221209   1.206   1.686   5.829 -0.4207 -0.1677  0.5182
 7082TIP3    H121210   1.178   1.692   5.738  1.1645 -1.0844 -0.0741
 7082TIP3    H221211   1.184   1.597   5.855  0.4366 -0.3880  0.5385
 7083TIP3   OH221212   6.667   3.392   3.460  0.0066  0.3479 -0.4408
 7083TIP3    H121213   6.597   3.350   3.410 -0.5511  0.4199  0.2683
 7083TIP3    H221214   6.622   3.439   3.530  0.8635 -1.1941  1.2072
 7084TIP3   OH221215   6.664   6.678   0.497  0.2508 -0.1413 -0.0906
 7084TIP3    H121216   6.592   6.615   0.507  0.6575 -0.4468  1.0947
 7084TIP3    H221217   6.630   6.743   0.435 -2.3032  1.4908  2.7353
 7085TIP3   OH221218   7.157   2.916   4.571 -0.1366  0.0171  0.3957
 7085TIP3    H121219   7.203   2.838   4.542  1.3695  0.5802  1.1495
 7085TIP3    H221220   7.133   2.897   4.662 -0.9284 -0.0555  0.1795
 7086TIP3   OH221221   3.365   1.054   2.541 -0.0522  0.3059 -0.1336
 7086TIP3    H121222   3.296   1.089   2.485 -0.2655 -0.3565 -0.2877
 7086TIP3    H221223   3.410   0.990   2.487 -0.8056 -0.9791  0.7166
 7087TIP3   OH221224   5.346   0.219   0.746 -0.2651  0.0296  0.9279
 7087TIP3    H121225   5.328   0.185   0.834  0.3980  0.0276  1.0645
 7087TIP3    H221226   5.345   0.141   0.690 -2.5348  0.2211  0.6072
 7088TIP3   OH221227   4.691   4.841   0.835 -0.1790 -1.0750  0.1332
 7088TIP3    H121228   4.635   4.919   0.836  0.6154 -0.4898  0.1948
 7088TIP3    H221229   4.706   4.825   0.742 -0.0830 -0.9621  0.1290
 7089TIP3   OH221230   1.126   2.669   4.735  0.0873 -0.1200  0.5894
 7089TIP3    H121231   1.208   2.686   4.780  0.3035 -0.9319  0.5086
 7089TIP3    H221232   1.073   2.622   4.799  0.5931 -1.7618 -0.1459
 7090TIP3   OH221233   6.272   3.381   3.838  0.6256 -0.2078  0.3270
 7090TIP3    H121234   6.257   3.476   3.842  0.7260 -0.2404  2.6813
 7090TIP3    H221235   6.352   3.371   3.787  1.3769  1.0886  1.2091
 7091TIP3   OH221236   5.761   1.217   5.252 -0.0032  0.2745 -0.4146
 7091TIP3    H121237   5.804   1.165   5.320 -0.2138 -0.1595 -0.6102
 7091TIP3    H221238   5.832   1.241   5.192  0.0791  0.1253 -0.3787
 7092TIP3   OH221239   4.862   3.443   4.955  0.5248 -0.5983  0.0298
 7092TIP3    H121240   4.879   3.461   4.862 -0.4814  0.5805  0.0476
 7092TIP3    H221241   4.814   3.361   4.956 -1.0779  0.2966 -0.6628
 7093TIP3   OH221242   0.832   4.390   0.162  0.1080 -0.5764  0.5190
 7093TIP3    H121243   0.810   4.307   0.120 -0.4796  0.4649 -1.3042
 7093TIP3    H221244   0.750   4.440   0.163  1.1784  1.4171 -1.8562
 7094TIP3   OH221245   0.527   0.799   5.172  0.4280  0.0384 -0.0164
 7094TIP3    H121246   0.474   0.807   5.252  1.7198 -1.0077  0.9786
 7094TIP3    H221247   0.564   0.886   5.159  0.5466  0.1174  0.7844
 7095TIP3   OH221248   6.626   0.170   3.105  0.4716  0.0546 -0.1587
 7095TIP3    H121249   6.670   0.095   3.146  0.8998  1.1171  1.4076
 7095TIP3    H221250   6.546   0.181   3.156  0.7881  1.1178  0.1323
 7096TIP3   OH221251   4.520   6.438   0.660  0.0531 -0.4388  0.1457
 7096TIP3    H121252   4.530   6.365   0.721  1.1238 -1.0744 -0.7434
 7096TIP3    H221253   4.472   6.402   0.586  1.3208 -0.4849 -0.6723
 7097TIP3   OH221254   4.136   2.919   5.775  0.3683 -0.1813  0.0581
 7097TIP3    H121255   4.207   2.967   5.732  0.7654  0.6031  1.5250
 7097TIP3    H221256   4.147   2.937   5.868 -1.7304 -0.0911  0.3483
 7098TIP3   OH221257   2.091   4.947   1.122 -0.5055 -0.3764  0.3904
 7098TIP3    H121258   2.088   5.010   1.049  1.1206 -0.6860  0.0232
 7098TIP3    H221259   2.172   4.899   1.109 -0.0787 -0.3226  2.5383
 7099TIP3   OH221260   1.903   4.834   0.240  0.7295  0.6581  0.2920
 7099TIP3    H121261   1.976   4.780   0.209  0.1743  0.1770 -0.1949
 7099TIP3    H221262   1.855   4.857   0.160 -1.6361 -1.9039  0.8376
 7100TIP3   OH221263   2.622   3.060   4.990  0.2785  0.2130  0.3745
 7100TIP3    H121264   2.647   3.109   5.068 -1.5667  2.7392 -0.5032
 7100TIP3    H221265   2.699   3.061   4.934  0.7041  0.8805  0.9665
 7101TIP3   OH221266   6.459   6.654   3.253  0.4145  0.3967 -0.3034
 7101TIP3    H121267   6.434   6.665   3.344  2.1753 -0.7479  0.3595
 7101TIP3    H221268   6.554   6.654   3.253  0.4770 -0.9786 -1.9431
 7102TIP3   OH221269   5.144   1.291   5.697 -0.2638  0.0648 -0.0194
 7102TIP3    H121270   5.086   1.305   5.771 -1.3267 -0.8383 -0.6546
 7102TIP3    H221271   5.230   1.276   5.736 -0.4721  1.2111  0.9408
 7103TIP3   OH221272   5.039   3.068   1.929 -0.0116 -0.3080 -0.7581
 7103TIP3    H121273   5.131   3.046   1.919  0.1960  0.8284 -1.7183
 7103TIP3    H221274   5.025   3.077   2.023  0.4499 -2.0167 -0.5007
 7104TIP3   OH221275   0.582   4.652   2.875 -0.0859 -0.0819 -0.2037
 7104TIP3    H121276   0.556   4.627   2.787  4.0442 -0.0261 -1.6245
 7104TIP3    H221277   0.610   4.571   2.917  2.7792  0.4396 -0.8889
 7105TIP3   OH221278   2.621   2.278   2.666 -0.8812 -0.3441 -0.0716
 7105TIP3    H121279   2.627   2.374   2.661 -2.9279 -0.2225 -1.3053
 7105TIP3    H221280   2.697   2.247   2.615 -1.1922  0.6730 -1.2221
 7106TIP3   OH221281   3.748   2.005   2.630 -0.1144  0.3970 -0.2251
 7106TIP3    H121282   3.776   1.987   2.540  1.1193  0.4082  0.1494
 7106TIP3    H221283   3.826   1.992   2.683  0.1922  3.9449  0.4306
 7107TIP3   OH221284   4.821   4.494   1.059 -0.0608 -0.0496 -0.0873
 7107TIP3    H121285   4.728   4.487   1.080  0.0574  1.6748  1.2516
 7107TIP3    H221286   4.846   4.406   1.031 -1.2873 -1.4922  2.9097
 7108TIP3   OH221287   4.054   3.550   2.347 -0.0352  0.5498 -0.0428
 7108TIP3    H121288   3.990   3.514   2.285  2.0952 -1.2727 -1.3537
 7108TIP3    H221289   4.115   3.599   2.292  1.8877 -1.0807  0.4969
 7109TIP3   OH221290   4.948   4.870   3.222  0.6238  0.0116 -0.1726
 7109TIP3    H121291   4.953   4.966   3.220  2.0368 -0.0276 -2.8791
 7109TIP3    H221292   4.862   4.850   3.186 -0.0647  0.2265  1.2845
 7110TIP3   OH221293   1.653   1.624   4.410  0.1195 -0.3868 -0.0119
 7110TIP3    H121294   1.727   1.685   4.419  0.2414 -0.4168 -0.7079
 7110TIP3    H221295   1.646   1.610   4.315 -0.6178 -0.5873  0.0687
 7111TIP3   OH221296   2.341   2.000   1.059  0.5616  0.6095  0.3122
 7111TIP3    H121297   2.411   1.972   1.118  0.5944 -1.6277 -0.6519
 7111TIP3    H221298   2.261   1.969   1.101  0.5063 -0.1458 -0.3217
 7112TIP3   OH221299   2.150   3.952   0.927 -0.1415 -0.1976  0.0856
 7112TIP3    H121300   2.108   3.898   0.860 -0.0433  1.0997 -1.0638
 7112TIP3    H221301   2.113   4.039   0.914 -0.2207  0.0610  1.8346
 7113TIP3   OH221302   4.006   2.566   3.893 -0.4810  0.6660  0.7625
 7113TIP3    H121303   4.084   2.545   3.841 -1.1665 -0.7552  0.2370
 7113TIP3    H221304   3.965   2.639   3.847  0.2966  1.1235  0.7870
 7114TIP3   OH221305   5.920   6.586   1.052 -0.1096  0.1266 -0.0350
 7114TIP3    H121306   5.829   6.610   1.073 -0.8077 -1.8578 -0.5889
 7114TIP3    H221307   5.968   6.605   1.132 -1.6102 -1.6719  1.3879
 7115TIP3   OH221308   3.785   1.213   3.598  0.6348 -0.5501 -0.5441
 7115TIP3    H121309   3.848   1.171   3.538 -1.0165 -2.3192 -1.1447
 7115TIP3    H221310   3.837   1.237   3.674  2.0733 -1.8747 -1.0497
 7116TIP3   OH221311   3.828   5.329   2.864 -0.2351  0.2599  0.1802
 7116TIP3    H121312   3.833   5.264   2.934 -0.9745  0.3241  0.3057
 7116TIP3    H221313   3.745   5.311   2.821 -0.8328  1.6085  0.7173
 7117TIP3   OH221314   3.225   5.320   5.383 -0.2437 -0.0957 -0.3109
 7117TIP3    H121315   3.184   5.390   5.332  0.5998  1.8214  1.5292
 7117TIP3    H221316   3.209   5.344   5.474  1.1332 -1.6550  0.3877
 7118TIP3   OH221317   6.488   2.870   3.978 -0.4089  0.2118  0.2329
 7118TIP3    H121318   6.534   2.954   3.979  2.2746 -1.1378  1.0229
 7118TIP3    H221319   6.464   2.857   3.886 -0.0615  1.4405 -0.0475
 7119TIP3   OH221320   5.161   5.181   4.367 -0.1600 -0.1964  0.7888
 7119TIP3    H121321   5.145   5.087   4.374  0.5503 -0.3344  0.6305
 7119TIP3    H221322   5.219   5.190   4.291 -0.6244  0.4200  0.4929
 7120TIP3   OH221323   6.130   1.777   1.379 -0.2806  0.3033 -0.2292
 7120TIP3    H121324   6.126   1.737   1.292  0.9585  1.4076 -0.8248
 7120TIP3    H221325   6.102   1.867   1.366 -0.8933  0.2657  0.6926
 7121TIP3   OH221326   6.000   0.858   0.883  0.5542 -0.4090 -0.1095
 7121TIP3    H121327   6.026   0.881   0.794 -2.3302 -1.4535 -1.3292
 7121TIP3    H221328   5.983   0.942   0.926 -0.7839  0.0696 -1.4934
 7122TIP3   OH221329   0.262   4.127   3.228  0.5283  0.3588  0.3816
 7122TIP3    H121330   0.314   4.117   3.308 -1.1202 -0.9939  1.3348
 7122TIP3    H221331   0.177   4.158   3.257 -0.6330 -1.6625 -0.6141
 7123TIP3   OH221332   1.661   6.051   3.684 -0.2175  0.5997  0.3399
 7123TIP3    H121333   1.581   6.102   3.696 -1.5934 -1.6130  1.1950
 7123TIP3    H221334   1.654   6.014   3.596 -0.0892  0.4610  0.3873
 7124TIP3   OH221335   1.626   4.925   2.403 -0.1090  0.2883  0.2730
 7124TIP3    H121336   1.601   4.971   2.323  0.4197 -0.2702 -0.2223
 7124TIP3    H221337   1.581   4.841   2.398 -3.5145  1.7298  2.5876
 7125TIP3   OH221338   2.729   6.006   1.787 -0.1685  0.0638 -0.7188
 7125TIP3    H121339   2.694   6.095   1.777 -0.8252 -0.2394 -1.1808
 7125TIP3    H221340   2.665   5.960   1.841 -0.0234 -0.2418 -0.8041
 7126TIP3   OH221341   4.482   1.277   1.257 -0.4253  0.1624  0.2211
 7126TIP3    H121342   4.438   1.358   1.286  0.9074  1.0103 -0.0334
 7126TIP3    H221343   4.510   1.296   1.167 -1.5214 -1.2045 -0.4552
 7127TIP3   OH221344   0.368   0.559   1.709 -0.3939  0.4091  0.1749
 7127TIP3    H121345   0.377   0.474   1.665  0.5028  0.7406 -0.3049
 7127TIP3    H221346   0.388   0.623   1.641 -1.4994  1.0288  0.4198
 7128TIP3   OH221347   3.563   5.710   2.858 -0.5699 -0.2485 -0.1126
 7128TIP3    H121348   3.513   5.727   2.938 -0.0358  0.0304  0.1625
 7128TIP3    H221349   3.524   5.770   2.793  1.0876  1.9309  0.7719
 7129TIP3   OH221350   2.324   4.004   1.479 -0.3297 -0.5020  0.2847
 7129TIP3    H121351   2.407   3.960   1.496  1.0107  1.9350  0.4347
 7129TIP3    H221352   2.323   4.017   1.384 -0.7937 -0.9551  0.2214
 7130TIP3   OH221353   6.063   2.774   3.376  0.1214 -0.4692  0.0818
 7130TIP3    H121354   6.140   2.765   3.319  0.2931 -1.8251  0.4876
 7130TIP3    H221355   6.006   2.835   3.329  1.0746 -0.0969 -0.6317
 7131TIP3   OH221356   2.103   4.336   5.639 -0.3176  0.2658 -0.3631
 7131TIP3    H121357   2.055   4.417   5.625 -0.2278  0.2992 -0.4762
 7131TIP3    H221358   2.193   4.364   5.654  0.0686  0.0944 -2.1450
 7132TIP3   OH221359   5.942   1.673   5.500  0.3346  0.2235 -0.1089
 7132TIP3    H121360   5.991   1.754   5.489  2.4628 -1.0785 -0.9266
 7132TIP3    H221361   5.929   1.640   5.411  0.0652 -0.6452  0.2373
 7133TIP3   OH221362   1.853   3.831   4.975  0.1899 -0.0349  0.4141
 7133TIP3    H121363   1.780   3.867   4.926 -0.1649 -0.4065  0.6677
 7133TIP3    H221364   1.892   3.766   4.916 -1.1804 -1.6133  1.1705
 7134TIP3   OH221365   3.637   2.585   3.996  0.3592  0.0902 -0.3786
 7134TIP3    H121366   3.690   2.533   3.936  0.3153 -0.2006 -0.1675
 7134TIP3    H221367   3.687   2.586   4.078 -0.8933 -1.9403  0.4978
 7135TIP3   OH221368   2.237   6.747   0.269  0.2637  0.0355  0.4253
 7135TIP3    H121369   2.202   6.768   0.356  0.8265 -0.1137  0.6919
 7135TIP3    H221370   2.159   6.732   0.215 -0.0763 -1.0688  1.1933
 7136TIP3   OH221371   0.417   6.449   0.982 -0.5383 -0.0046  0.0701
 7136TIP3    H121372   0.326   6.448   1.009 -0.2188  1.8366  1.3951
 7136TIP3    H221373   0.466   6.465   1.063  1.0001 -1.1604 -0.5724
 7137TIP3   OH221374   4.137   1.272   4.783 -0.3700 -0.0156 -0.1204
 7137TIP3    H121375   4.115   1.307   4.870 -1.1463  0.4416 -0.4885
 7137TIP3    H221376   4.197   1.336   4.746 -1.3792  0.6903 -0.5843
 7138TIP3   OH221377   4.579   4.101   3.483 -0.1001 -0.4639 -0.3376
 7138TIP3    H121378   4.655   4.149   3.514 -1.2839  0.1906  1.6888
 7138TIP3    H221379   4.503   4.150   3.516 -1.4263 -1.2204 -2.0793
 7139TIP3   OH221380   5.093   6.252   2.142  0.1467 -0.1381 -0.1522
 7139TIP3    H121381   5.054   6.182   2.195  1.4780 -0.1472  0.8621
 7139TIP3    H221382   5.179   6.219   2.119 -0.0891  0.2222 -1.6565
 7140TIP3   OH221383   6.383   2.314   0.957  0.1532 -0.7679 -0.0936
 7140TIP3    H121384   6.371   2.297   1.050  2.2938 -1.4086  0.1292
 7140TIP3    H221385   6.463   2.267   0.935  0.4426  0.5038 -1.9533
 7141TIP3   OH221386   0.839   4.914   2.734  0.4570 -0.3179  0.5245
 7141TIP3    H121387   0.762   4.925   2.789 -0.5736  1.4163 -1.1414
 7141TIP3    H221388   0.898   4.986   2.760 -0.8343  1.7278 -1.7359
 7142TIP3   OH221389   6.222   2.667   4.401  0.7613  0.3763  0.2395
 7142TIP3    H121390   6.311   2.651   4.435 -0.1425 -0.0025  2.6652
 7142TIP3    H221391   6.167   2.608   4.452 -1.1222  1.9780  0.1557
 7143TIP3   OH221392   5.753   1.701   1.142 -0.3700  0.9165  0.4428
 7143TIP3    H121393   5.688   1.764   1.172 -1.4032 -0.0489  0.2744
 7143TIP3    H221394   5.835   1.751   1.141 -1.2608  2.4501 -0.3110
 7144TIP3   OH221395   1.973   2.154   2.782 -0.2209 -0.1108  0.2977
 7144TIP3    H121396   1.895   2.167   2.727 -0.0117 -1.1693 -0.2889
 7144TIP3    H221397   1.939   2.148   2.871 -0.6651  0.7361  0.1974
 7145TIP3   OH221398   2.456   6.789   4.739 -0.4588  0.0150 -0.0864
 7145TIP3    H121399   2.401   6.725   4.694 -1.1040  0.0141  0.6685
 7145TIP3    H221400   2.405   6.813   4.817  0.1234  0.8541  0.0479
 7146TIP3   OH221401   6.614   3.674   1.879 -0.1726 -0.2570 -0.7118
 7146TIP3    H121402   6.615   3.641   1.969 -0.8151  0.0746 -0.5733
 7146TIP3    H221403   6.640   3.766   1.887 -1.5363  0.1456 -0.6875
 7147TIP3   OH221404   6.985   6.694   1.433 -0.2339 -0.1416  0.8480
 7147TIP3    H121405   7.002   6.669   1.524  0.2588  3.2113  1.7996
 7147TIP3    H221406   6.889   6.701   1.428 -0.2912 -0.8201  0.9523
 7148TIP3   OH221407   3.224   1.171   3.627  0.5222 -0.3613  0.5221
 7148TIP3    H121408   3.240   1.146   3.536 -0.0021  0.4812  0.1870
 7148TIP3    H221409   3.167   1.102   3.660 -0.4445  0.0497 -0.2227
 7149TIP3   OH221410   0.168   3.048   2.945  0.1364  0.3461 -0.3867
 7149TIP3    H121411   0.136   3.115   2.885 -1.2716  1.9713  2.0196
 7149TIP3    H221412   0.263   3.055   2.942  0.1003  0.6099 -2.0827
 7150TIP3   OH221413   6.196   2.200   1.534 -0.1231  0.5493 -0.0687
 7150TIP3    H121414   6.239   2.246   1.462  0.4168  0.1481 -0.0052
 7150TIP3    H221415   6.264   2.142   1.570 -1.1981 -1.4362 -1.0957
 7151TIP3   OH221416   1.354   5.404   1.210  0.1376 -0.3050 -0.3967
 7151TIP3    H121417   1.265   5.386   1.242  0.0549  0.9294  0.1475
 7151TIP3    H221418   1.340   5.451   1.128  0.0758  3.3379  1.4655
 7152TIP3   OH221419   3.791   0.496   3.544 -0.6206  0.2286  0.1512
 7152TIP3    H121420   3.878   0.504   3.584 -1.1080  1.6709  0.9974
 7152TIP3    H221421   3.788   0.567   3.480 -0.2514 -1.4084 -1.7804
 7153TIP3   OH221422   5.622   6.769   1.977 -0.5723 -0.5978 -0.2083
 7153TIP3    H121423   5.652   6.685   1.942 -0.9313 -0.1610 -1.6279
 7153TIP3    H221424   5.527   6.768   1.962 -0.9012 -0.7443  1.5829
 7154TIP3   OH221425   3.647   4.239   4.761 -0.0907  0.2053 -0.4017
 7154TIP3    H121426   3.600   4.214   4.681 -0.6983 -0.9030  0.2750
 7154TIP3    H221427   3.725   4.285   4.730  0.3794 -1.3681 -1.7112
 7155TIP3   OH221428   2.468   0.593   0.477 -0.0164 -0.0034  0.3218
 7155TIP3    H121429   2.392   0.646   0.501  0.2898  0.7505 -0.3575
 7155TIP3    H221430   2.532   0.656   0.444  0.5003 -0.7532 -0.1259
 7156TIP3   OH221431   0.945   5.559   2.850  0.0812 -1.0516  0.4830
 7156TIP3    H121432   0.938   5.565   2.755 -0.8867 -2.6601  0.4262
 7156TIP3    H221433   0.982   5.643   2.877 -0.9657 -0.0290 -1.1736
 7157TIP3   OH221434   4.168   5.362   0.668 -0.4544 -1.0302 -0.1119
 7157TIP3    H121435   4.096   5.372   0.605 -0.6078  1.1768  0.3361
 7157TIP3    H221436   4.125   5.357   0.753 -0.1020  1.5106  0.2738
 7158TIP3   OH221437   2.040   4.547   2.699  0.4425  0.0696 -0.5772
 7158TIP3    H121438   1.988   4.484   2.649 -0.6850  0.6817 -0.2123
 7158TIP3    H221439   2.108   4.575   2.638  0.0798 -0.4082 -1.2198
 7159TIP3   OH221440   5.935   3.481   1.849 -0.6138  0.0777  0.4258
 7159TIP3    H121441   5.902   3.399   1.886 -0.3968 -1.3476 -2.3033
 7159TIP3    H221442   6.023   3.491   1.886  1.5088 -3.7577 -2.8936
 7160TIP3   OH221443   4.187   5.010   0.971  0.3286 -0.1619 -0.0576
 7160TIP3    H121444   4.215   4.947   0.905  0.1073 -2.0851  1.5483
 7160TIP3    H221445   4.144   5.080   0.922  0.3021 -1.4251 -1.9406
 7161TIP3   OH221446   7.080   0.189   2.062  0.2857  0.1993  0.1906
 7161TIP3    H121447   7.053   0.111   2.111  0.2166  0.3605  0.4110
 7161TIP3    H221448   7.007   0.250   2.073  0.6986  0.6098  0.7251
 7162TIP3   OH221449   4.293   2.439   1.209  0.2406  0.1222  0.4611
 7162TIP3    H121450   4.383   2.441   1.243 -0.1708  0.1337  1.5732
 7162TIP3    H221451   4.238   2.453   1.286 -0.7843 -1.6821  0.0963
 7163TIP3   OH221452   0.431   3.958   3.887 -0.3725  0.5051  0.4981
 7163TIP3    H121453   0.483   3.893   3.935 -0.9111  0.8805  1.6088
 7163TIP3    H221454   0.393   4.014   3.954 -0.5053  1.5461 -0.4050
 7164TIP3   OH221455   6.094   4.443   5.141  0.8754  0.5391  0.3048
 7164TIP3    H121456   6.183   4.449   5.106  0.2813  2.0832 -1.0138
 7164TIP3    H221457   6.072   4.532   5.167 -0.3318  0.2000  0.4959
 7165TIP3   OH221458   2.716   3.850   1.688  0.6944 -0.1060 -0.3667
 7165TIP3    H121459   2.649   3.884   1.629  0.0482 -0.3327  0.2314
 7165TIP3    H221460   2.765   3.928   1.715  0.3692  0.1221 -0.4227
 7166TIP3   OH221461   2.246   3.708   4.168 -0.1647 -0.1098  0.0433
 7166TIP3    H121462   2.340   3.724   4.167  0.3470 -2.2911  2.4171
 7166TIP3    H221463   2.232   3.644   4.098  0.0192  0.4891 -0.5541
 7167TIP3   OH221464   0.239   0.909   1.693 -0.2253 -0.2630 -0.4826
 7167TIP3    H121465   0.192   0.834   1.730  1.4696 -0.6029  1.1233
 7167TIP3    H221466   0.327   0.876   1.676  0.5368  1.3222  0.1828
 7168TIP3   OH221467   2.266   4.895   1.892 -0.2821  0.1180 -0.0762
 7168TIP3    H121468   2.234   4.959   1.828 -1.1191  1.8877  1.9493
 7168TIP3    H221469   2.207   4.820   1.883 -2.6210  1.7255  0.8727
 7169TIP3   OH221470   6.438   5.572   4.015  0.0257 -0.3969 -0.4852
 7169TIP3    H121471   6.530   5.553   3.994  0.1070 -1.0575  0.4033
 7169TIP3    H221472   6.412   5.501   4.073  0.2156  1.9682  2.7471
 7170TIP3   OH221473   6.568   5.354   4.903 -0.1609  0.5196  0.4526
 7170TIP3    H121474   6.477   5.381   4.892 -0.0051  1.2513  0.9111
 7170TIP3    H221475   6.615   5.435   4.924  0.4307  0.0128  1.1589
 7171TIP3   OH221476   5.362   6.243   2.066 -0.2743 -0.4150  0.3743
 7171TIP3    H121477   5.449   6.222   2.098  0.6835 -1.8423 -2.7626
 7171TIP3    H221478   5.346   6.332   2.097  2.2008 -0.2042  1.2580
 7172TIP3   OH221479   6.301   4.098   1.046  0.1257 -0.2321 -0.0067
 7172TIP3    H121480   6.223   4.110   0.993  0.6826  2.9639 -0.2808
 7172TIP3    H221481   6.352   4.032   0.999  0.3849  2.0999 -3.3477
 7173TIP3   OH221482   1.110   2.262   3.587 -0.4507  0.0228  0.2347
 7173TIP3    H121483   1.161   2.182   3.593 -0.5494 -0.0908 -0.3661
 7173TIP3    H221484   1.158   2.317   3.525 -1.1542 -0.1631 -0.4837
 7174TIP3   OH221485   7.178   3.698   2.581  0.0532  0.0758  0.4737
 7174TIP3    H121486   7.256   3.740   2.544  1.3196 -2.0446  0.5816
 7174TIP3    H221487   7.140   3.649   2.509  0.1640 -0.7542  0.9631
 7175TIP3   OH221488   2.096   0.456   3.586 -0.0654  0.2537  0.2298
 7175TIP3    H121489   2.098   0.364   3.611  1.5154  0.0646 -0.4503
 7175TIP3    H221490   2.043   0.498   3.653 -0.3982 -1.0742  0.8296
 7176TIP3   OH221491   0.039   2.433   5.178  0.7005  0.0517  0.1967
 7176TIP3    H121492   0.096   2.380   5.234  2.4458  1.0097 -0.5952
 7176TIP3    H221493   0.092   2.509   5.155  1.5695 -1.7436 -5.4216
 7177TIP3   OH221494   2.351   2.344   0.303 -0.1870  0.4252 -0.1026
 7177TIP3    H121495   2.384   2.427   0.337 -0.9699  0.5343  0.4214
 7177TIP3    H221496   2.256   2.350   0.314 -0.3328 -0.1485 -0.9512
 7178TIP3   OH221497   6.598   5.423   2.476  0.2035  0.1345 -0.3632
 7178TIP3    H121498   6.686   5.457   2.462  0.2500 -0.4190 -1.5116
 7178TIP3    H221499   6.543   5.472   2.416 -0.3517  0.7303  0.6097
 7179TIP3   OH221500   4.390   6.628   4.508  0.0050  0.1168 -0.4762
 7179TIP3    H121501   4.394   6.563   4.438 -1.5382  0.3477 -0.8275
 7179TIP3    H221502   4.371   6.576   4.587  2.8893 -0.2766  0.0555
 7180TIP3   OH221503   4.758   5.794   2.553 -0.1214 -0.0533 -0.5117
 7180TIP3    H121504   4.847   5.758   2.558 -0.1432 -0.1340 -0.6840
 7180TIP3    H221505   4.768   5.886   2.577 -0.1080 -0.2360  0.2101
 7181TIP3   OH221506   4.737   0.042   0.563  0.3716 -0.0466 -1.1761
 7181TIP3    H121507   4.790  -0.035   0.546  0.1929 -0.3640 -0.3648
 7181TIP3    H221508   4.648   0.009   0.572  0.6218 -0.1960  1.8479
 7182TIP3   OH221509   0.397   2.111   4.738  0.6379  0.1062 -0.1951
 7182TIP3    H121510   0.463   2.178   4.717  0.7450  0.2298  0.4935
 7182TIP3    H221511   0.352   2.095   4.656  1.7677 -0.2335 -0.7707
 7183TIP3   OH221512   3.428   6.549   2.814 -0.4503 -0.5605 -0.5401
 7183TIP3    H121513   3.344   6.588   2.790 -1.2792 -2.7478 -1.3940
 7183TIP3    H221514   3.444   6.483   2.747  1.4991 -0.8707  0.1578
 7184TIP3   OH221515   1.345   0.638   0.196 -0.4776 -0.7320 -0.4613
 7184TIP3    H121516   1.307   0.680   0.119 -1.2572 -0.5023  0.0394
 7184TIP3    H221517   1.275   0.583   0.230 -1.0253  1.1147  1.5554
 7185TIP3   OH221518   6.226   0.895   4.177  0.7525 -0.4736 -0.2584
 7185TIP3    H121519   6.311   0.938   4.177 -0.2092  1.7896 -3.3192
 7185TIP3    H221520   6.240   0.813   4.128  1.1750 -0.0410 -0.8713
 7186TIP3   OH221521   0.075   0.173   0.745  0.4121 -0.2020 -0.1554
 7186TIP3    H121522   0.093   0.130   0.829 -0.0494 -1.2328 -0.5723
 7186TIP3    H221523  -0.014   0.148   0.724  0.0980  1.0467 -0.3807
 7187TIP3   OH221524   3.431   1.342   1.508  0.1533  0.2404 -0.3640
 7187TIP3    H121525   3.447   1.434   1.526  0.1214  0.1468  0.1388
 7187TIP3    H221526   3.518   1.306   1.489  0.4038 -0.0056  1.1831
 7188TIP3   OH221527   2.471   1.518   1.719 -0.4210 -0.2981 -0.0537
 7188TIP3    H121528   2.445   1.474   1.800 -1.8431 -2.0324 -1.3675
 7188TIP3    H221529   2.490   1.447   1.658 -0.8278  0.9283 -1.6784
 7189TIP3   OH221530   3.472   4.937   5.652  0.0973  0.0453  0.0953
 7189TIP3    H121531   3.485   4.942   5.557 -2.5739  1.0688 -0.3046
 7189TIP3    H221532   3.465   4.843   5.671 -1.0804 -0.1218 -1.0418
 7190TIP3   OH221533   2.737   2.079   5.659  0.1625 -0.6290  0.7210
 7190TIP3    H121534   2.771   2.060   5.571  0.0055 -1.8417  0.9069
 7190TIP3    H221535   2.803   2.042   5.718  0.5412  0.6645  1.1392
 7191TIP3   OH221536   5.859   3.076   0.391 -0.3097 -0.2599 -0.5346
 7191TIP3    H121537   5.948   3.093   0.361 -0.1554 -0.8633 -0.4293
 7191TIP3    H221538   5.806   3.143   0.349  0.0831 -0.3619 -1.2042
 7192TIP3   OH221539   5.052   5.814   4.902 -0.0534  0.1363 -0.3979
 7192TIP3    H121540   4.997   5.809   4.980  0.4210  0.0139 -0.0651
 7192TIP3    H221541   5.104   5.893   4.914  0.9651 -0.5706  0.0582
 7193TIP3   OH221542   2.162   2.070   2.585 -0.4738  0.4806 -0.0199
 7193TIP3    H121543   2.127   2.100   2.502  0.9134  1.0339 -0.4321
 7193TIP3    H221544   2.100   2.103   2.651 -1.8929 -0.4592 -0.8319
 7194TIP3   OH221545   5.714   1.904   3.809 -0.1134  0.1127  0.6178
 7194TIP3    H121546   5.648   1.970   3.788  0.6198  0.5380 -0.4180
 7194TIP3    H221547   5.741   1.870   3.724  1.0887  0.0272  1.0183
 7195TIP3   OH221548   6.963   1.454   1.998  0.1546 -0.0340 -0.8645
 7195TIP3    H121549   7.014   1.526   1.962  0.3932 -0.2163 -0.8905
 7195TIP3    H221550   6.924   1.490   2.078 -0.0003  0.2264 -1.0586
 7196TIP3   OH221551   0.187   1.134   1.081 -0.7094 -0.4152 -0.2052
 7196TIP3    H121552   0.101   1.092   1.078 -0.2244 -1.4603 -0.0730
 7196TIP3    H221553   0.168   1.228   1.086 -1.8258 -0.5856 -0.9002
 7197TIP3   OH221554   3.276   4.071   0.284  0.3879  0.0972 -0.2983
 7197TIP3    H121555   3.264   3.976   0.278 -0.0198  0.1868 -1.2118
 7197TIP3    H221556   3.334   4.092   0.210 -0.8066  0.7342 -1.0920
 7198TIP3   OH221557   5.140   4.122   3.073 -0.3496 -0.5733  0.0980
 7198TIP3    H121558   5.144   4.212   3.041 -0.7399  0.2585  2.1690
 7198TIP3    H221559   5.211   4.116   3.137 -0.1633 -1.8282 -0.2010
 7199TIP3   OH221560   6.480   1.264   0.944 -0.0852  0.2733 -0.0504
 7199TIP3    H121561   6.528   1.247   1.024 -2.0622  0.2521  1.1887
 7199TIP3    H221562   6.401   1.211   0.951 -0.2536  0.1470 -2.1101
 7200TIP3   OH221563   2.574   5.600   2.418  0.1417  0.3425 -0.2376
 7200TIP3    H121564   2.607   5.526   2.366  1.9023  0.3952  0.7314
 7200TIP3    H221565   2.494   5.567   2.459 -0.1845 -0.3493 -1.3811
 7201TIP3   OH221566   1.585   6.743   1.705 -0.1638 -0.0950 -0.3142
 7201TIP3    H121567   1.655   6.719   1.765 -0.6015 -0.7903 -0.0720
 7201TIP3    H221568   1.532   6.664   1.696 -1.1224  0.5057 -0.2042
 7202TIP3   OH221569   4.125   0.820   4.061 -0.4186  0.2892 -0.8153
 7202TIP3    H121570   4.195   0.806   4.125  0.2433  1.5019 -1.2449
 7202TIP3    H221571   4.087   0.734   4.049  1.6765 -0.6211 -1.3455
 7203TIP3   OH221572   1.826   5.429   3.480  0.1837  0.3377 -0.4699
 7203TIP3    H121573   1.879   5.365   3.433  1.0835  0.2066  0.6611
 7203TIP3    H221574   1.742   5.386   3.494  0.9075 -0.7966  0.6253
 7204TIP3   OH221575   0.139   4.406   0.102 -0.3880 -0.1390 -0.1646
 7204TIP3    H121576   0.146   4.483   0.158 -1.8200  0.9017 -1.3343
 7204TIP3    H221577   0.050   4.409   0.068  0.3393 -0.8454 -2.2969
 7205TIP3   OH221578   2.516   3.805   2.083  0.0036  0.0685  0.0437
 7205TIP3    H121579   2.595   3.763   2.050 -0.5321 -0.8391 -0.0966
 7205TIP3    H221580   2.482   3.854   2.008 -0.5615 -1.0272 -0.4328
 7206TIP3   OH221581   4.862   6.702   2.208 -0.5063  0.4292 -0.0652
 7206TIP3    H121582   4.812   6.704   2.126 -1.1959 -1.3410  0.2724
 7206TIP3    H221583   4.867   6.609   2.231  1.3811  0.7196  0.8861
 7207TIP3   OH221584   2.172   1.096   5.531  0.1917  0.1807 -0.8733
 7207TIP3    H121585   2.164   1.007   5.564 -2.0255  1.0408  1.1853
 7207TIP3    H221586   2.101   1.105   5.467 -0.5338  0.8560 -0.0036
 7208TIP3   OH221587   1.151   4.498   2.031 -0.2768  0.5060  0.5565
 7208TIP3    H121588   1.196   4.528   1.952 -0.5281  0.8849  0.5604
 7208TIP3    H221589   1.121   4.578   2.074 -2.8989  0.2165 -0.5491
 7209TIP3   OH221590   6.344   2.443   4.770 -0.2122  0.1830 -0.2336
 7209TIP3    H121591   6.381   2.364   4.810  0.4418  1.3594  1.6155
 7209TIP3    H221592   6.418   2.503   4.763 -1.2609  1.7503  1.3462
 7210TIP3   OH221593   2.346   5.275   0.637  0.1763  0.2459 -0.2079
 7210TIP3    H121594   2.276   5.277   0.703  0.0108 -0.8510 -0.3264
 7210TIP3    H221595   2.410   5.214   0.673 -0.2809 -0.9939 -1.3982
 7211TIP3   OH221596   5.262   1.650   3.543  0.0476  0.2456  0.1966
 7211TIP3    H121597   5.356   1.635   3.552 -0.2878 -1.6040  1.0983
 7211TIP3    H221598   5.221   1.573   3.584 -1.8545  0.8225 -0.4985
 7212TIP3   OH221599   2.801   4.204   0.907  0.2183  0.0633  0.2603
 7212TIP3    H121600   2.741   4.130   0.919 -0.5053  0.8181  1.5121
 7212TIP3    H221601   2.837   4.221   0.994  1.7106  0.1026 -0.3367
 7213TIP3   OH221602   3.976   4.455   4.164 -0.4001 -0.1396  0.2376
 7213TIP3    H121603   4.066   4.432   4.187  0.2773  0.4560 -1.6669
 7213TIP3    H221604   3.983   4.541   4.123 -1.9777  0.3309  0.8804
 7214TIP3   OH221605   2.283   5.993   1.804 -0.1309 -0.0266  0.4286
 7214TIP3    H121606   2.306   5.964   1.715 -0.9052 -0.6123  0.4024
 7214TIP3    H221607   2.192   6.021   1.797  0.1865  1.1355  0.7724
 7215TIP3   OH221608   4.056   0.509   0.770 -0.8032  0.7709  0.0165
 7215TIP3    H121609   4.087   0.549   0.851 -1.1797 -1.3878  1.3030
 7215TIP3    H221610   4.027   0.422   0.796 -0.3536 -0.2296 -2.5519
 7216TIP3   OH221611   6.626   6.463   4.996  0.0912  0.2148 -0.0410
 7216TIP3    H121612   6.651   6.376   5.027  0.4074 -0.0599 -1.0333
 7216TIP3    H221613   6.574   6.448   4.918 -0.9646  0.8887  0.5135
 7217TIP3   OH221614   2.950   5.670   1.898 -0.2372  0.3304 -0.1305
 7217TIP3    H121615   2.985   5.734   1.836  0.8838 -1.2790 -1.2487
 7217TIP3    H221616   2.945   5.589   1.848 -0.5244 -0.7272  1.5400
 7218TIP3   OH221617   0.132   5.593   1.172  0.3316 -0.0713  0.2114
 7218TIP3    H121618   0.114   5.656   1.242 -1.2313  0.1550 -0.3590
 7218TIP3    H221619   0.107   5.638   1.091 -1.2844 -1.5592 -0.1797
 7219TIP3   OH221620   2.816   3.758   3.659 -0.0962  0.3246 -0.3103
 7219TIP3    H121621   2.826   3.843   3.702 -1.3637  0.3623 -0.0685
 7219TIP3    H221622   2.883   3.703   3.700 -0.9633  0.4915  1.4168
 7220TIP3   OH221623   3.759   5.323   3.808  0.2776  0.0902 -0.3891
 7220TIP3    H121624   3.688   5.387   3.800 -0.5271 -0.5528  1.0787
 7220TIP3    H221625   3.743   5.281   3.893  2.2168 -0.3344 -0.1984
 7221TIP3   OH221626   3.467   2.108   0.142 -0.1976 -0.2244 -0.1769
 7221TIP3    H121627   3.435   2.022   0.114 -0.6224 -1.1715  2.8215
 7221TIP3    H221628   3.554   2.091   0.177 -0.4964  0.4446  0.9396
 7222TIP3   OH221629   0.202   2.625   1.285  0.2359  0.0432 -0.2151
 7222TIP3    H121630   0.132   2.688   1.267  0.1530  0.2483  0.7841
 7222TIP3    H221631   0.160   2.539   1.276  0.1146  0.1414 -0.6228
 7223TIP3   OH221632   5.413   2.665   1.123  0.2731  0.4514 -0.2517
 7223TIP3    H121633   5.425   2.674   1.028  0.9717 -0.4575 -0.2641
 7223TIP3    H221634   5.428   2.572   1.140  3.1917  1.0507  1.1523
 7224TIP3   OH221635   3.302   0.298   4.651 -0.0826 -0.0474 -0.3047
 7224TIP3    H121636   3.380   0.353   4.641  0.5936 -1.0758 -0.9119
 7224TIP3    H221637   3.232   0.348   4.607  0.8494 -0.3021 -2.2030
 7225TIP3   OH221638   6.700   1.391   1.931  0.3409 -0.0135 -0.8439
 7225TIP3    H121639   6.785   1.431   1.950 -0.2873  1.1391 -0.3296
 7225TIP3    H221640   6.640   1.465   1.923 -1.2100 -0.8167  1.7873
 7226TIP3   OH221641   3.801   3.596   4.471 -0.2432 -0.2275  0.5256
 7226TIP3    H121642   3.734   3.527   4.470  0.6003 -1.1271  2.5153
 7226TIP3    H221643   3.884   3.550   4.459  0.2711  0.5295  1.0919
 7227TIP3   OH221644   3.660   2.839   1.808 -0.5356  0.6740 -0.1433
 7227TIP3    H121645   3.687   2.872   1.893 -2.0753  1.0459  0.2332
 7227TIP3    H221646   3.632   2.916   1.759 -1.4478  0.2678 -0.2882
 7228TIP3   OH221647   0.614   3.098   3.675  0.2863 -0.1943  0.1264
 7228TIP3    H121648   0.538   3.140   3.635  0.3807 -0.2464 -0.1111
 7228TIP3    H221649   0.602   3.109   3.769  0.8297  1.2866  0.0445
 7229TIP3   OH221650   0.200   4.123   0.583  0.2985  0.4391 -0.6446
 7229TIP3    H121651   0.264   4.170   0.637  0.1869  0.3955 -0.4764
 7229TIP3    H221652   0.178   4.184   0.513  0.7701  0.3374 -0.8869
 7230TIP3   OH221653   5.163   5.012   3.648 -0.3166 -0.0695  0.2324
 7230TIP3    H121654   5.153   4.924   3.682  1.3755 -0.3537  0.1074
 7230TIP3    H221655   5.180   5.001   3.554 -1.9865  0.5244 -0.1716
 7231TIP3   OH221656   4.955   2.689   1.463  0.0779 -0.0719 -0.8135
 7231TIP3    H121657   5.017   2.718   1.530 -0.9365  0.2598  0.0091
 7231TIP3    H221658   5.000   2.705   1.380  0.9839  0.4035 -0.2481
 7232TIP3   OH221659   0.111   5.669   2.218 -0.5713  0.0368  0.6693
 7232TIP3    H121660   0.118   5.638   2.128 -1.8145 -0.8639  0.8585
 7232TIP3    H221661   0.148   5.757   2.216 -1.5264  0.4334 -0.9270
 7233TIP3   OH221662   5.786   4.604   2.700  0.1180  0.1752 -0.1858
 7233TIP3    H121663   5.780   4.699   2.710 -1.9906  0.4027 -2.6875
 7233TIP3    H221664   5.698   4.576   2.678  0.5275 -2.5216  1.1197
 7234TIP3   OH221665   7.193   5.170   1.449 -0.1321  0.2324  0.1373
 7234TIP3    H121666   7.098   5.182   1.459 -0.0696  0.3279  0.6337
 7234TIP3    H221667   7.231   5.244   1.496  0.1838  0.4205 -0.4098
 7235TIP3   OH221668   2.949   2.531   5.122 -0.2894  0.8039 -0.1296
 7235TIP3    H121669   2.876   2.592   5.115  1.4899  3.0373 -0.2620
 7235TIP3    H221670   2.939   2.472   5.047 -2.2500  0.6442  0.2023
 7236TIP3   OH221671   0.930   6.780   4.295  0.4231 -0.1668  0.4987
 7236TIP3    H121672   0.851   6.728   4.308 -0.2384  0.4678 -0.8320
 7236TIP3    H221673   0.927   6.846   4.365  0.4035 -0.8677  1.1683
 7237TIP3   OH221674   5.148   0.592   4.101  0.6089 -0.0421  0.1193
 7237TIP3    H121675   5.105   0.587   4.186  1.2718  0.2073  0.4783
 7237TIP3    H221676   5.078   0.611   4.039  0.1488 -0.0450  0.6382
 7238TIP3   OH221677   1.875   0.829   4.964  0.2855 -0.0160 -0.0510
 7238TIP3    H121678   1.821   0.773   5.021 -0.2768  1.4753  0.9477
 7238TIP3    H221679   1.890   0.776   4.886 -0.2473 -1.5437  0.8260
 7239TIP3   OH221680   5.646   4.643   0.987  0.2061 -0.4099 -0.5765
 7239TIP3    H121681   5.636   4.562   0.937  0.9879 -0.1951 -1.1094
 7239TIP3    H221682   5.574   4.699   0.957  0.5138 -0.3807 -1.2846
 7240TIP3   OH221683   5.524   1.581   3.603 -0.4503  0.3373 -0.4482
 7240TIP3    H121684   5.559   1.587   3.691  0.7877 -1.0580 -0.8027
 7240TIP3    H221685   5.550   1.664   3.561  1.1725 -0.0392 -0.2468
 7241TIP3   OH221686   7.039   5.500   2.654  0.3067  0.1968  0.3180
 7241TIP3    H121687   7.070   5.497   2.744 -0.7731 -1.9180  0.6617
 7241TIP3    H221688   7.075   5.421   2.613  2.9990  2.3364 -1.9678
 7242TIP3   OH221689   4.121   0.133   1.152 -0.0923 -0.0993  0.4393
 7242TIP3    H121690   4.158   0.216   1.183  1.0477 -0.5428  0.3056
 7242TIP3    H221691   4.172   0.113   1.073  0.8010 -1.7517  1.3795
 7243TIP3   OH221692   4.273   2.013   1.825 -0.0164 -0.3260  0.2182
 7243TIP3    H121693   4.202   2.033   1.765  0.5294 -2.3809 -1.2142
 7243TIP3    H221694   4.232   2.013   1.912 -1.7111 -1.1458 -0.5456
 7244TIP3   OH221695   2.113   3.731   2.125  0.2956  0.0337  0.1303
 7244TIP3    H121696   2.093   3.821   2.154  2.5613  0.6364 -0.0124
 7244TIP3    H221697   2.192   3.708   2.173  0.3857 -1.4736 -0.7051
 7245TIP3   OH221698   0.890   3.719   5.706 -0.4877 -0.6224  0.1749
 7245TIP3    H121699   0.966   3.777   5.693  0.0290 -1.9622 -4.2622
 7245TIP3    H221700   0.928   3.633   5.724 -1.0315 -0.8730  0.1397
 7246TIP3   OH221701   4.590   2.255   2.239  0.1700 -0.1985 -0.1812
 7246TIP3    H121702   4.585   2.168   2.279  0.5153  0.5782  1.6879
 7246TIP3    H221703   4.589   2.239   2.145 -1.7994 -2.0953  0.0775
 7247TIP3   OH221704   2.378   4.208   2.518  0.4925  0.2611  0.3932
 7247TIP3    H121705   2.438   4.241   2.584  0.3951 -1.8604  1.6543
 7247TIP3    H221706   2.403   4.116   2.508 -0.4946  0.1452 -1.4309
 7248TIP3   OH221707   6.566   4.323   2.783 -0.0498 -0.1979 -0.2579
 7248TIP3    H121708   6.482   4.306   2.739 -0.1845 -0.3707  0.0633
 7248TIP3    H221709   6.609   4.388   2.728 -0.0580 -0.6849 -0.8453
 7249TIP3   OH221710   0.923   5.566   2.423  0.1442  0.5004 -0.3204
 7249TIP3    H121711   0.944   5.477   2.450 -2.2202 -0.1487 -0.4462
 7249TIP3    H221712   0.968   5.577   2.339  3.2238  0.6881  1.2105
 7250TIP3   OH221713   0.861   0.692   5.869 -0.1876  0.4669  0.4688
 7250TIP3    H121714   0.914   0.767   5.843 -1.6051  1.4705  0.3517
 7250TIP3    H221715   0.889   0.621   5.811 -1.8598  2.0947 -2.6009
 7251TIP3   OH221716   0.256   4.491   3.391 -0.6435 -0.3400 -0.6810
 7251TIP3    H121717   0.344   4.474   3.356 -0.7305 -0.8521 -0.6557
 7251TIP3    H221718   0.227   4.569   3.344  0.6973  1.1847  0.8912
 7252TIP3   OH221719   6.054   4.204   1.009 -0.3635  0.0556 -0.6064
 7252TIP3    H121720   6.049   4.270   1.078 -0.7542  0.5794 -1.1295
 7252TIP3    H221721   5.971   4.157   1.014 -0.0466 -0.4778 -0.1696
 7253TIP3   OH221722   0.455   3.188   3.119 -0.2960  0.1215 -0.0284
 7253TIP3    H121723   0.472   3.154   3.032 -1.0503 -1.3780  0.3745
 7253TIP3    H221724   0.379   3.139   3.149  0.9344 -0.5764  2.1197
 7254TIP3   OH221725   2.426   5.683   2.093  0.2102  0.1666  0.2468
 7254TIP3    H121726   2.514   5.653   2.112 -0.1379 -2.1316 -1.3234
 7254TIP3    H221727   2.378   5.673   2.175  0.7472 -1.2977  0.3944
 7255TIP3   OH221728   2.808   1.543   2.828  0.8965  0.1622 -0.2985
 7255TIP3    H121729   2.724   1.535   2.783 -0.7501  1.9315  2.2097
 7255TIP3    H221730   2.844   1.626   2.796  0.8724  0.2283 -0.1567
 7256TIP3   OH221731   0.543   3.302   0.944 -0.1824 -0.1601  0.0027
 7256TIP3    H121732   0.626   3.311   0.991 -1.6338 -1.7571  3.1102
 7256TIP3    H221733   0.530   3.208   0.935 -1.7240  0.0590 -0.2864
 7257TIP3   OH221734   5.205   2.391   3.691 -0.1943 -0.3215 -0.8215
 7257TIP3    H121735   5.198   2.486   3.701 -4.2044 -0.5181  0.4486
 7257TIP3    H221736   5.277   2.366   3.749 -0.5448  1.7996  0.6748
 7258TIP3   OH221737   1.806   1.615   1.011  0.1554  0.2543  0.0930
 7258TIP3    H121738   1.885   1.668   1.002  1.4037 -1.5758 -0.2909
 7258TIP3    H221739   1.837   1.530   1.043 -1.8664  0.0175  1.6487
 7259TIP3   OH221740   5.351   4.648   4.113 -0.3509  0.0209  0.2572
 7259TIP3    H121741   5.398   4.589   4.055 -0.9777 -0.5950  0.3702
 7259TIP3    H221742   5.283   4.595   4.153 -0.9035  0.8058  0.3960
 7260TIP3   OH221743   2.230   3.548   5.733 -0.8851 -0.0544  0.3085
 7260TIP3    H121744   2.295   3.486   5.766 -0.8081  0.4902  1.2380
 7260TIP3    H221745   2.186   3.502   5.663 -0.2811 -0.8604  0.4417
 7261TIP3   OH221746   0.643   3.563   2.999  0.2298  0.5014 -0.6966
 7261TIP3    H121747   0.584   3.574   2.924 -1.1514  0.2812  0.2983
 7261TIP3    H221748   0.589   3.587   3.075  1.4645  0.3451  0.2604
 7262TIP3   OH221749   4.629   1.557   4.571  0.6177  0.0268 -0.3849
 7262TIP3    H121750   4.537   1.542   4.591  0.5537  0.3598 -0.4197
 7262TIP3    H221751   4.632   1.566   4.476  0.6666  0.1441 -0.3728
 7263TIP3   OH221752   6.350   4.809   4.680  0.0506 -0.1674 -0.6738
 7263TIP3    H121753   6.369   4.736   4.622  0.6547 -0.1954 -0.4436
 7263TIP3    H221754   6.431   4.824   4.728 -0.2412  0.2850 -0.3102
 7264TIP3   OH221755   1.265   2.300   3.333 -0.4365 -0.2387 -0.1540
 7264TIP3    H121756   1.358   2.310   3.315 -0.0929 -1.5401  0.8232
 7264TIP3    H221757   1.222   2.330   3.252  0.6748  2.7719  0.2459
 7265TIP3   OH221758   3.852   5.680   2.635 -0.5257  0.2826 -0.2386
 7265TIP3    H121759   3.933   5.726   2.655 -0.6371  0.5179 -0.3198
 7265TIP3    H221760   3.796   5.747   2.595 -0.8231  0.1670 -0.0199
 7266TIP3   OH221761   1.994   6.520   5.589 -0.3267  0.1077 -0.2800
 7266TIP3    H121762   2.077   6.496   5.630 -0.3424  1.5460  0.6396
 7266TIP3    H221763   1.930   6.517   5.660 -0.5765  1.4682 -0.4178
 7267TIP3   OH221764   6.447   3.640   4.686  0.1394  0.0430 -0.0633
 7267TIP3    H121765   6.359   3.629   4.650  0.1302 -1.4839  0.3352
 7267TIP3    H221766   6.506   3.622   4.613  0.1179 -0.5926  0.0730
 7268TIP3   OH221767   2.997   5.083   2.049 -0.1492  0.3430  0.0957
 7268TIP3    H121768   2.914   5.112   2.012 -1.0608  0.0677  1.8229
 7268TIP3    H221769   3.063   5.139   2.007 -1.0961  0.1188 -1.7937
 7269TIP3   OH221770   1.482   5.084   3.337  0.4565 -0.0804 -0.4348
 7269TIP3    H121771   1.387   5.072   3.347  0.4882 -2.0288 -1.8719
 7269TIP3    H221772   1.499   5.172   3.372 -1.7437  0.0171  0.5684
 7270TIP3   OH221773   1.783   2.381   5.703 -0.5468 -0.5000  0.1081
 7270TIP3    H121774   1.753   2.360   5.614 -3.3962  0.0369  0.8227
 7270TIP3    H221775   1.844   2.454   5.691 -1.9858  0.5540 -1.3719
 7271TIP3   OH221776   1.445   6.225   0.101 -0.5115  0.0435  0.1065
 7271TIP3    H121777   1.470   6.253   0.013 -0.1143 -0.2549  0.1205
 7271TIP3    H221778   1.528   6.214   0.147 -0.7238  0.5520  0.6344
 7272TIP3   OH221779   6.471   1.542   0.666 -0.6034  0.0798 -0.6642
 7272TIP3    H121780   6.548   1.489   0.687 -0.1192  1.7569  2.4241
 7272TIP3    H221781   6.506   1.629   0.646 -1.5914  0.3448 -1.3204
 7273TIP3   OH221782   3.346   1.361   2.147  0.5212  0.2925  1.0311
 7273TIP3    H121783   3.308   1.416   2.216  1.2146 -1.1704  2.6745
 7273TIP3    H221784   3.327   1.271   2.176  0.2925 -0.3793 -1.0368
 7274TIP3   OH221785   4.827   5.827   4.128 -0.2950  0.2766  0.0690
 7274TIP3    H121786   4.826   5.761   4.197 -0.5056 -0.6559 -0.8008
 7274TIP3    H221787   4.774   5.789   4.058  0.4583  0.9082 -0.8679
 7275TIP3   OH221788   0.917   6.562   4.514  0.0336 -0.7128  0.2666
 7275TIP3    H121789   1.004   6.557   4.473 -1.4061 -0.9105 -3.1636
 7275TIP3    H221790   0.917   6.646   4.559  1.8326 -0.4524 -0.1262
 7276TIP3   OH221791   4.151   1.222   3.806  0.5077 -0.4890 -0.5173
 7276TIP3    H121792   4.132   1.154   3.871 -1.8085  0.1002 -0.4887
 7276TIP3    H221793   4.195   1.291   3.856 -2.0460  0.3556  0.7569
 7277TIP3   OH221794   5.578   3.832   1.730 -0.2381  0.3861 -0.0330
 7277TIP3    H121795   5.670   3.857   1.720 -0.2602  1.5820  2.2296
 7277TIP3    H221796   5.556   3.856   1.820 -2.4693 -0.9078 -0.1664
 7278TIP3   OH221797   4.244   3.645   0.875 -0.5191 -0.8229 -0.2424
 7278TIP3    H121798   4.258   3.600   0.958  2.8351 -0.3516 -0.3980
 7278TIP3    H221799   4.319   3.620   0.821  0.0707  2.6852 -1.3059
 7279TIP3   OH221800   1.914   1.746   2.803 -0.2112  0.1269 -0.3539
 7279TIP3    H121801   2.002   1.784   2.803 -1.0414  2.2364 -2.0640
 7279TIP3    H221802   1.919   1.676   2.868  2.8416 -0.1397 -0.6958
 7280TIP3   OH221803   4.058   6.239   0.171  0.1843  0.3695 -0.2577
 7280TIP3    H121804   4.149   6.210   0.168  0.5962  1.6252 -0.6622
 7280TIP3    H221805   4.031   6.247   0.079  0.5143  2.4282 -0.2229
 7281TIP3   OH221806   3.767   0.845   5.696 -0.1690  0.1244  0.2017
 7281TIP3    H121807   3.727   0.834   5.610  0.3393 -0.1794  0.0013
 7281TIP3    H221808   3.861   0.850   5.679  0.0676 -1.4972  0.8558
 7282TIP3   OH221809   6.032   4.771   4.337 -0.1779  0.5127 -0.1986
 7282TIP3    H121810   6.061   4.787   4.247 -1.1061  1.2992 -0.3765
 7282TIP3    H221811   6.095   4.817   4.392  2.2716 -2.5148 -0.2021
 7283TIP3   OH221812   5.572   3.194   3.607  0.2192  0.0351  0.2219
 7283TIP3    H121813   5.619   3.217   3.528  0.4711  0.0666  0.3794
 7283TIP3    H221814   5.500   3.257   3.611  0.0183 -0.1704 -0.1477
 7284TIP3   OH221815   5.837   1.815   4.170  0.1360  0.1493 -0.5294
 7284TIP3    H121816   5.794   1.801   4.086 -1.0482  0.3708  0.0266
 7284TIP3    H221817   5.774   1.866   4.221  1.4185  1.2710  0.0010
 7285TIP3   OH221818   4.931   5.847   4.595 -0.0728 -0.0108  0.2490
 7285TIP3    H121819   4.935   5.757   4.627 -1.5570 -0.4925 -0.8518
 7285TIP3    H221820   4.956   5.900   4.671  0.0376 -1.2927  1.1390
 7286TIP3   OH221821   5.285   4.330   1.764  0.2129 -0.0171  0.4020
 7286TIP3    H121822   5.284   4.425   1.767  0.7141 -0.0329  1.3521
 7286TIP3    H221823   5.342   4.309   1.690  1.4946  0.4342  1.2268
 7287TIP3   OH221824   6.927   5.001   1.214 -0.2496  0.3103  0.1227
 7287TIP3    H121825   6.990   4.937   1.180 -0.8939 -0.2525 -0.0364
 7287TIP3    H221826   6.951   5.011   1.306  0.3326  0.4302 -0.0312
 7288TIP3   OH221827   4.037   1.034   4.720 -0.2472 -0.1869 -0.2233
 7288TIP3    H121828   4.114   1.016   4.666 -0.4170  0.5864 -0.7452
 7288TIP3    H221829   4.055   1.120   4.759 -0.8527  0.0136 -0.3685
 7289TIP3   OH221830   6.284   1.556   0.160 -0.0914  0.4659 -0.2784
 7289TIP3    H121831   6.312   1.633   0.209 -2.1992  0.1804  1.5308
 7289TIP3    H221832   6.305   1.482   0.217 -1.1107 -0.0116 -0.4964
 7290TIP3   OH221833   7.133   3.240   3.801  0.0792 -0.0318  0.0173
 7290TIP3    H121834   7.143   3.177   3.730  0.4326 -0.5492  0.5236
 7290TIP3    H221835   7.168   3.322   3.766  0.2004 -0.2735 -0.4226
 7291TIP3   OH221836   1.937   5.123   1.730 -0.0356 -0.4744  0.1090
 7291TIP3    H121837   1.888   5.130   1.648 -0.2274 -1.0510  0.1700
 7291TIP3    H221838   2.026   5.101   1.703  0.7641  2.5889 -0.1346
 7292TIP3   OH221839   5.919   0.189   4.116  0.3443 -0.7352  0.2423
 7292TIP3    H121840   5.846   0.219   4.061 -0.2603 -1.5564  0.5742
 7292TIP3    H221841   5.986   0.257   4.106  0.6819 -1.3680 -2.3290
 7293TIP3   OH221842   2.883   0.800   0.051  0.2299  0.4221  0.3019
 7293TIP3    H121843   2.933   0.720   0.036 -1.4482 -0.4882 -0.7726
 7293TIP3    H221844   2.795   0.770   0.073 -0.5611  1.9583 -0.5383
 7294TIP3   OH221845   6.773   4.610   1.587 -0.0064 -0.0457  1.0239
 7294TIP3    H121846   6.756   4.609   1.681 -0.0653  1.0411  1.0383
 7294TIP3    H221847   6.772   4.703   1.564  0.0130 -0.3035 -0.0499
 7295TIP3   OH221848   1.524   4.129   0.037 -0.2177  0.0917 -0.7006
 7295TIP3    H121849   1.501   4.216   0.070 -1.6488  0.7602 -3.1927
 7295TIP3    H221850   1.620   4.128   0.038 -0.1877  1.3171  0.2779
 7296TIP3   OH221851   0.779   4.270   3.069 -0.0275  0.7189  0.0014
 7296TIP3    H121852   0.775   4.176   3.084 -0.4402  0.2764 -2.4330
 7296TIP3    H221853   0.817   4.306   3.149  2.3255 -1.7522  0.1342
 7297TIP3   OH221854   6.947   0.970   3.989  0.2527 -0.3861  0.1797
 7297TIP3    H121855   7.041   0.956   3.998  0.8715  0.8656 -3.0777
 7297TIP3    H221856   6.934   1.062   4.015 -0.1337 -0.6118  0.8109
 7298TIP3   OH221857   6.061   1.310   0.693 -0.4495  0.2804  0.1209
 7298TIP3    H121858   6.034   1.328   0.783 -0.3998  1.4847 -0.0902
 7298TIP3    H221859   6.003   1.363   0.640  0.7066  0.9910 -0.4677
 7299TIP3   OH221860   6.589   0.286   0.977 -0.0127  0.3937  0.6825
 7299TIP3    H121861   6.615   0.375   0.954 -2.6376  1.8268  2.6982
 7299TIP3    H221862   6.525   0.261   0.910  1.2459 -0.3217 -0.2905
 7300TIP3   OH221863   5.587   4.267   4.722 -0.0511  0.0521 -0.3445
 7300TIP3    H121864   5.653   4.328   4.754  0.5711 -0.3260 -0.8948
 7300TIP3    H221865   5.506   4.295   4.764  0.1524  1.4730 -0.8631
 7301TIP3   OH221866   2.234   6.663   2.970  0.0990  0.2193 -0.3606
 7301TIP3    H121867   2.226   6.718   2.892  1.2721  0.5370 -0.2763
 7301TIP3    H221868   2.229   6.573   2.937 -0.1061  0.3591 -0.7115
 7302TIP3   OH221869   2.792   2.560   5.525 -0.5354 -0.8023 -0.0459
 7302TIP3    H121870   2.874   2.539   5.480  0.4589 -0.0814  1.3587
 7302TIP3    H221871   2.766   2.644   5.489  1.9648  1.4033  2.7905
 7303TIP3   OH221872   2.102   2.658   2.198  0.7591 -0.3022 -0.4976
 7303TIP3    H121873   2.168   2.724   2.176  2.5590 -1.8348  0.0400
 7303TIP3    H221874   2.132   2.579   2.154 -1.5594 -0.7342 -1.4615
 7304TIP3   OH221875   3.862   6.626   3.625 -0.0207 -0.3524 -0.2984
 7304TIP3    H121876   3.858   6.631   3.721  0.3143 -0.5488 -0.2705
 7304TIP3    H221877   3.775   6.652   3.596 -0.5221 -1.4855  0.1147
 7305TIP3   OH221878   6.671   5.501   3.912  0.1716  0.4739 -0.1422
 7305TIP3    H121879   6.651   5.451   3.833 -1.1344 -1.7421  1.4650
 7305TIP3    H221880   6.763   5.482   3.930  0.2074  0.2118 -0.5863
 7306TIP3   OH221881   6.055   2.579   3.104 -0.1539  0.3306 -0.2888
 7306TIP3    H121882   6.105   2.499   3.091 -1.0759 -1.1052  3.6856
 7306TIP3    H221883   6.117   2.641   3.143 -0.4613 -0.0041  0.7484
 7307TIP3   OH221884   0.041   3.133   4.087  0.1267 -0.5462  0.6405
 7307TIP3    H121885  -0.008   3.139   4.005  1.3054  0.1035 -0.0382
 7307TIP3    H221886   0.069   3.042   4.092  2.0915 -0.1032 -0.9422
 7308TIP3   OH221887   5.108   3.113   2.313 -0.2394  0.3713  0.0790
 7308TIP3    H121888   5.188   3.140   2.359  0.8818  0.2144 -1.6856
 7308TIP3    H221889   5.069   3.196   2.283 -0.5090  0.4246  0.5783
 7309TIP3   OH221890   4.240   6.173   4.136 -0.3050 -0.4267  0.1553
 7309TIP3    H121891   4.282   6.092   4.164 -0.2731  0.0666  1.6451
 7309TIP3    H221892   4.209   6.155   4.047  3.4316 -0.6891 -1.2769
 7310TIP3   OH221893   5.617   4.964   5.132  0.0401 -0.3993  0.2274
 7310TIP3    H121894   5.562   4.914   5.192  1.3617 -0.1237  1.7533
 7310TIP3    H221895   5.660   4.898   5.078 -0.7794 -0.6862 -0.0818
 7311TIP3   OH221896   4.096   1.399   2.678  0.7356  0.2043  0.1349
 7311TIP3    H121897   4.020   1.457   2.685  0.8972  0.2626  1.7562
 7311TIP3    H221898   4.170   1.458   2.665  1.0058  0.5005  2.5338
 7312TIP3   OH221899   2.357   3.199   1.650 -0.1383 -0.0455 -1.1378
 7312TIP3    H121900   2.266   3.216   1.673  0.7205  2.0423  1.2354
 7312TIP3    H221901   2.397   3.286   1.646  1.9774 -0.9526 -0.9816
 7313TIP3   OH221902   3.379   3.300   0.382  0.5067 -0.2135 -0.2354
 7313TIP3    H121903   3.381   3.210   0.416  0.6336 -0.9946 -2.1805
 7313TIP3    H221904   3.305   3.340   0.426 -0.2678 -1.6470 -0.1722
 7314TIP3   OH221905   4.706   1.730   4.801 -0.4328 -0.1427  0.0043
 7314TIP3    H121906   4.710   1.817   4.760  1.6207 -0.0944  0.1679
 7314TIP3    H221907   4.700   1.669   4.728  1.4085  0.0308 -0.3559
 7315TIP3   OH221908   4.057   6.805   3.532  0.7090 -0.2785 -0.4451
 7315TIP3    H121909   3.994   6.734   3.546  0.3328 -0.2974 -1.9739
 7315TIP3    H221910   4.118   6.798   3.605 -0.5805 -0.7892  0.6336
 7316TIP3   OH221911   0.365   2.049   2.093  0.0466 -0.1758  0.0640
 7316TIP3    H121912   0.295   1.986   2.109  0.5635 -0.3095  2.1220
 7316TIP3    H221913   0.409   2.058   2.178  3.0254 -0.6926 -1.3226
 7317TIP3   OH221914   7.167   5.321   4.043 -0.6642 -0.3292  0.1108
 7317TIP3    H121915   7.260   5.305   4.029 -0.9760 -0.3535 -2.4184
 7317TIP3    H221916   7.164   5.385   4.114  1.2058 -0.9166  0.7985
 7318TIP3   OH221917   4.891   2.230   1.970  0.1735 -0.4440  0.2817
 7318TIP3    H121918   4.968   2.284   1.953  0.6747 -1.5749 -1.2480
 7318TIP3    H221919   4.912   2.183   2.050  0.2999  0.5752  0.8679
 7319TIP3   OH221920   5.242   5.009   5.389  0.0354 -0.1228 -0.3667
 7319TIP3    H121921   5.293   5.075   5.342  0.9860 -1.5950 -1.5032
 7319TIP3    H221922   5.254   4.929   5.338  0.7061 -1.7136  2.1429
 7320TIP3   OH221923   6.313   6.705   0.558 -0.6585 -0.1631 -0.1094
 7320TIP3    H121924   6.237   6.756   0.584 -0.5982  0.0346 -0.3225
 7320TIP3    H221925   6.362   6.762   0.499  0.5136  0.3307  1.3033
 7321TIP3   OH221926   1.901   0.482   3.344  0.3823  0.3575  0.2313
 7321TIP3    H121927   1.922   0.563   3.390  0.2923  1.0435 -0.8999
 7321TIP3    H221928   1.895   0.507   3.252  0.1457 -0.8977 -0.1191
 7322TIP3   OH221929   2.214   0.345   4.321  0.1091  0.5584  0.0334
 7322TIP3    H121930   2.301   0.310   4.306 -0.1872  0.2182 -0.9997
 7322TIP3    H221931   2.201   0.340   4.416  0.5613 -0.9622  0.0382
 7323TIP3   OH221932   6.218   2.567   1.010 -1.0084 -0.0234 -0.1140
 7323TIP3    H121933   6.158   2.497   1.037 -0.8515  0.4853  1.7081
 7323TIP3    H221934   6.281   2.524   0.952 -1.3143 -1.2593  0.4364
 7324TIP3   OH221935   6.419   1.991   0.120  0.2591 -0.3050 -0.3703
 7324TIP3    H121936   6.389   2.077   0.148 -0.3495 -0.4301 -0.6051
 7324TIP3    H221937   6.488   1.967   0.182  2.0501  1.3194 -1.6299
 7325TIP3   OH221938   6.915   5.200   1.454 -0.4701  0.2446 -0.2211
 7325TIP3    H121939   6.878   5.255   1.523 -2.7603  0.4591 -1.5092
 7325TIP3    H221940   6.912   5.254   1.375 -0.3152 -0.8454 -0.9968
 7326TIP3   OH221941   4.054   1.716   1.245  0.0501 -0.3444  0.4499
 7326TIP3    H121942   4.131   1.770   1.227 -1.2859  1.4053 -0.2675
 7326TIP3    H221943   4.029   1.681   1.159 -0.2717 -0.4633  0.5917
 7327TIP3   OH221944   3.851   0.584   5.338  0.2591  0.3286 -0.1516
 7327TIP3    H121945   3.937   0.611   5.306  1.3228 -3.1758 -0.6911
 7327TIP3    H221946   3.862   0.577   5.433  0.3606  0.5104 -0.1495
 7328TIP3   OH221947   0.559   3.698   1.133 -0.0780 -0.5401 -0.4991
 7328TIP3    H121948   0.469   3.721   1.157  0.3267  0.6410 -0.0357
 7328TIP3    H221949   0.552   3.665   1.044 -0.8848  0.2163 -0.7289
 7329TIP3   OH221950   1.437   2.292   0.320 -0.4009 -0.3265  0.3948
 7329TIP3    H121951   1.527   2.311   0.348 -0.4560 -1.9090  1.8213
 7329TIP3    H221952   1.411   2.218   0.375 -1.2288 -2.4402 -2.6209
 7330TIP3   OH221953   0.852   1.922   2.543  0.7171 -0.0615  0.4971
 7330TIP3    H121954   0.818   2.007   2.513  0.7485 -0.7969 -1.8981
 7330TIP3    H221955   0.774   1.867   2.550  0.8086 -0.1322  0.9915
 7331TIP3   OH221956   1.015   5.501   5.762  0.6019  0.2199  0.2966
 7331TIP3    H121957   0.985   5.592   5.770 -0.7258 -0.2627  1.0886
 7331TIP3    H221958   0.938   5.453   5.733  1.0028 -0.8381  0.9404
 7332TIP3   OH221959   3.115   3.584   4.214 -0.0376  0.4159  0.0241
 7332TIP3    H121960   3.043   3.632   4.173 -0.6390 -1.3310 -1.0545
 7332TIP3    H221961   3.120   3.501   4.167  0.6235 -0.8422  2.1369
 7333TIP3   OH221962   5.726   6.631   0.392 -0.1612 -0.0646  0.2723
 7333TIP3    H121963   5.673   6.563   0.352 -0.8915  0.1128  0.9177
 7333TIP3    H221964   5.816   6.600   0.383 -0.3706 -0.4182 -0.7365
 7334TIP3   OH221965   5.492   5.401   4.238  0.4774 -0.2133 -0.2448
 7334TIP3    H121966   5.553   5.386   4.165  1.2478  0.0220  0.3360
 7334TIP3    H221967   5.424   5.335   4.225  1.3150 -1.0674 -0.4233
 7335TIP3   OH221968   0.471   2.567   2.814  0.0774  0.5330  0.1340
 7335TIP3    H121969   0.468   2.565   2.910  0.0261  0.4120  0.1295
 7335TIP3    H221970   0.546   2.622   2.794  0.6161 -0.1520  0.2449
 7336TIP3   OH221971   0.487   1.108   4.657 -0.1445 -0.6726 -0.0114
 7336TIP3    H121972   0.492   1.017   4.686 -1.2480 -0.5085  0.7486
 7336TIP3    H221973   0.532   1.108   4.572  0.9527 -1.6591  0.5397
 7337TIP3   OH221974   5.842   2.829   5.570 -0.2372  0.2755  0.0068
 7337TIP3    H121975   5.783   2.799   5.639 -1.0084 -1.1346 -1.2006
 7337TIP3    H221976   5.912   2.764   5.567 -0.7543 -0.2654 -1.1795
 7338TIP3   OH221977   4.983   3.378   1.438 -0.3878 -0.4531  0.9012
 7338TIP3    H121978   4.995   3.293   1.480  1.8591 -1.0277 -0.7039
 7338TIP3    H221979   4.960   3.356   1.348  0.4598  0.6112  0.4082
 7339TIP3   OH221980   3.273   3.754   2.293  0.0401 -0.2789  1.0837
 7339TIP3    H121981   3.348   3.719   2.245 -0.2369 -1.3870  1.4438
 7339TIP3    H221982   3.261   3.842   2.256  2.3941  0.5108  1.9937
 7340TIP3   OH221983   1.541   6.536   3.765  0.6346  0.3363  0.1397
 7340TIP3    H121984   1.454   6.496   3.765  1.1742 -1.0163  2.3496
 7340TIP3    H221985   1.550   6.573   3.678 -1.3757 -1.1887 -0.8114
 7341TIP3   OH221986   0.988   4.344   1.807 -0.0261 -0.2080  0.1276
 7341TIP3    H121987   0.897   4.330   1.834 -0.3346  1.1419 -0.1739
 7341TIP3    H221988   1.024   4.401   1.875  0.4272 -0.2521 -0.0753
 7342TIP3   OH221989   1.830   0.248   5.269 -0.0237 -0.5102  0.0661
 7342TIP3    H121990   1.910   0.257   5.217  0.8911 -3.7622  0.6584
 7342TIP3    H221991   1.768   0.206   5.209 -1.3728  1.9690 -0.3828
 7343TIP3   OH221992   4.395   6.731   2.968 -0.2875 -0.1006 -0.8379
 7343TIP3    H121993   4.347   6.752   3.048 -0.3479 -1.4312 -0.4909
 7343TIP3    H221994   4.474   6.785   2.973 -0.2159 -0.2771  0.2092
 7344TIP3   OH221995   2.519   4.633   5.843  0.3928 -0.5216 -0.6570
 7344TIP3    H121996   2.520   4.714   5.894 -0.3729 -1.3908  0.7934
 7344TIP3    H221997   2.553   4.659   5.757  0.3503  1.2871 -0.1735
 7345TIP3   OH221998   6.292   5.950   5.553  0.0131 -0.2558  0.0320
 7345TIP3    H121999   6.343   6.029   5.571 -0.3615 -0.2017  0.8943
 7345TIP3    H222000   6.221   5.952   5.616  0.2213 -1.4858  0.3431
 7346TIP3   OH222001   6.829   4.349   4.801  0.2768  0.1091  0.1209
 7346TIP3    H122002   6.757   4.327   4.742 -0.7670  0.6575  1.1406
 7346TIP3    H222003   6.820   4.287   4.874 -1.2481  2.2457  1.8677
 7347TIP3   OH222004   3.098   0.201   2.835 -0.2275  0.2224  0.2390
 7347TIP3    H122005   3.086   0.147   2.758 -1.1851  0.8447 -0.0714
 7347TIP3    H222006   3.016   0.191   2.884 -0.1766  0.9021  0.4754
 7348TIP3   OH222007   3.862   0.364   3.163 -0.3225  0.1995 -0.1810
 7348TIP3    H122008   3.773   0.328   3.156 -0.6822  0.9284  0.5845
 7348TIP3    H222009   3.914   0.292   3.199 -0.5607 -0.2805 -0.7711
 7349TIP3   OH222010   1.175   5.335   3.502 -0.5616  0.1683 -0.1893
 7349TIP3    H122011   1.228   5.392   3.446  1.7461 -1.9680 -0.3352
 7349TIP3    H222012   1.207   5.354   3.591 -2.2845  1.5618  0.1853
 7350TIP3   OH222013   4.645   5.082   0.069  0.3049  0.2805  0.0078
 7350TIP3    H122014   4.717   5.077   0.005 -0.0609  0.4618 -0.4204
 7350TIP3    H222015   4.570   5.114   0.019 -0.3609 -0.8815  0.2154
 7351TIP3   OH222016   0.103   2.701   4.487  0.7810 -0.6024  0.0568
 7351TIP3    H122017   0.190   2.662   4.480  0.6581 -1.1351  1.3545
 7351TIP3    H222018   0.051   2.636   4.533 -0.4996 -0.5527 -1.2439
 7352TIP3   OH222019   5.079   1.017   0.657 -0.4708  0.3360 -0.1762
 7352TIP3    H122020   5.071   1.029   0.752 -1.7141  1.3817 -0.3886
 7352TIP3    H222021   5.127   1.095   0.627 -1.8540  1.0371 -0.6346
 7353TIP3   OH222022   3.413   5.409   1.358  0.3499  0.0470 -0.1328
 7353TIP3    H122023   3.420   5.445   1.447 -1.3350  1.1742 -0.4233
 7353TIP3    H222024   3.321   5.384   1.349  0.2535  0.8441 -1.8698
 7354TIP3   OH222025   2.020   2.855   5.213 -0.5004 -0.2780  0.0508
 7354TIP3    H122026   2.069   2.796   5.156  0.7292  0.3100  0.4646
 7354TIP3    H222027   2.043   2.827   5.302  0.8174  1.3386  0.2688
 7355TIP3   OH222028   0.431   6.237   0.298  1.0259  0.2925 -0.0743
 7355TIP3    H122029   0.339   6.262   0.300 -0.1613 -3.5735  0.7877
 7355TIP3    H222030   0.457   6.246   0.207 -0.0255  1.8324 -0.2500
 7356TIP3   OH222031   6.851   2.018   0.369 -0.1324 -0.1068  0.0628
 7356TIP3    H122032   6.946   2.006   0.366  0.1333  1.8103 -0.4734
 7356TIP3    H222033   6.837   2.091   0.429 -1.0266  1.4029 -1.8517
 7357TIP3   OH222034   5.243   1.331   2.212 -0.2684  0.4230  0.5015
 7357TIP3    H122035   5.313   1.273   2.240 -0.0984 -0.8967 -2.3518
 7357TIP3    H222036   5.166   1.301   2.260  0.3604 -0.4926  0.9583
 7358TIP3   OH222037   0.875   4.656   4.693 -0.0691 -0.4134  0.2798
 7358TIP3    H122038   0.905   4.567   4.673  0.6226  0.0799 -1.0206
 7358TIP3    H222039   0.859   4.696   4.607  3.1591  1.8847  0.5410
 7359TIP3   OH222040   4.304   4.358   5.362  0.4181  0.4054 -0.5463
 7359TIP3    H122041   4.363   4.305   5.415  0.2579  0.0192 -0.7494
 7359TIP3    H222042   4.350   4.369   5.279  1.2116  2.0317  0.0608
 7360TIP3   OH222043   7.018   1.299   1.108  0.4513 -0.0360  0.4806
 7360TIP3    H122044   6.967   1.335   1.035  2.6006  0.8825 -0.6716
 7360TIP3    H222045   7.039   1.209   1.081  1.5831  0.4283 -0.3016
 7361TIP3   OH222046   0.761   4.058   4.571  0.5429 -0.2214  0.8647
 7361TIP3    H122047   0.748   4.113   4.648 -2.7087 -0.2614  0.4728
 7361TIP3    H222048   0.751   3.968   4.603  2.5968 -0.4773  0.9232
 7362TIP3   OH222049   3.598   5.214   2.781 -0.4363 -0.0568 -0.6275
 7362TIP3    H122050   3.509   5.248   2.779 -0.0450  1.1401 -4.0921
 7362TIP3    H222051   3.608   5.167   2.698  2.6252  1.3171 -1.1689
 7363TIP3   OH222052   6.976   0.471   5.575  0.1189 -0.5075 -0.2899
 7363TIP3    H122053   7.054   0.465   5.630  1.5281  0.7980 -2.0261
 7363TIP3    H222054   6.968   0.564   5.555 -2.8323 -0.3723  1.0397
 7364TIP3   OH222055   1.968   1.542   0.433 -0.5324  0.7259 -0.0724
 7364TIP3    H122056   2.055   1.507   0.419 -0.1946  1.3446  0.4281
 7364TIP3    H222057   1.909   1.478   0.392  0.1495  0.3215 -0.4375
 7365TIP3   OH222058   4.370   5.384   1.904 -0.1392  0.3980 -0.2628
 7365TIP3    H122059   4.407   5.317   1.961 -0.7438  0.6152  0.4049
 7365TIP3    H222060   4.303   5.427   1.958 -1.4284 -0.0395 -1.4381
 7366TIP3   OH222061   5.025   2.443   2.973  0.8768 -0.1251  0.2062
 7366TIP3    H122062   5.101   2.473   2.923  0.9590  0.8376  0.8724
 7366TIP3    H222063   4.960   2.421   2.907  0.5891  2.1637 -0.3687
 7367TIP3   OH222064   2.190   5.213   5.684 -0.1400 -0.0678  0.0272
 7367TIP3    H122065   2.183   5.253   5.597 -0.5233 -1.1969 -0.4800
 7367TIP3    H222066   2.218   5.285   5.741 -0.9062  0.9420 -0.8243
 7368TIP3   OH222067   3.267   5.607   1.594 -0.7905  0.1040  0.3386
 7368TIP3    H122068   3.196   5.651   1.547  0.0654  1.2855  0.0868
 7368TIP3    H222069   3.276   5.657   1.676  1.3802  1.6406 -0.7308
 7369TIP3   OH222070   5.614   3.373   0.367  0.2265 -0.5219  0.1880
 7369TIP3    H122071   5.536   3.369   0.312  0.5101 -1.1354 -0.1811
 7369TIP3    H222072   5.681   3.328   0.316  1.2818  1.4136 -0.2186
 7370TIP3   OH222073   3.644   0.100   4.571  0.3944 -0.2141  0.3275
 7370TIP3    H122074   3.581   0.123   4.502  0.6522  0.4237  0.3038
 7370TIP3    H222075   3.730   0.119   4.533  0.5309  0.3357  0.8914
 7371TIP3   OH222076   6.328   4.798   4.221  0.0531  0.2291  0.2408
 7371TIP3    H122077   6.371   4.859   4.280 -0.1331  1.4207 -0.8198
 7371TIP3    H222078   6.285   4.853   4.155 -0.3742 -1.0279 -0.5850
 7372TIP3   OH222079   3.568   1.872   1.785  0.0168 -0.0909  0.5276
 7372TIP3    H122080   3.649   1.897   1.740 -0.3221 -1.2386 -0.8114
 7372TIP3    H222081   3.596   1.812   1.854  0.5284  1.5643  1.8311
 7373TIP3   OH222082   2.576   6.531   4.569  0.0090  0.3854 -0.0877
 7373TIP3    H122083   2.569   6.527   4.664 -2.5258 -0.4935 -0.2231
 7373TIP3    H222084   2.636   6.604   4.552  0.9789  0.1960  2.1516
 7374TIP3   OH222085   0.197   6.183   2.068 -0.1294 -0.0643  0.2963
 7374TIP3    H122086   0.169   6.194   1.977 -2.9043 -0.0951  1.0739
 7374TIP3    H222087   0.164   6.260   2.113 -0.0724 -0.7496  1.5488
 7375TIP3   OH222088   5.897   2.244   1.606 -0.1094  0.0750 -0.0063
 7375TIP3    H122089   5.908   2.210   1.694  1.6906 -1.2232 -0.6715
 7375TIP3    H222090   5.910   2.168   1.549  0.7867  1.2503 -1.4522
 7376TIP3   OH222091   1.376   3.223   2.669  0.3825 -0.2013  0.7245
 7376TIP3    H122092   1.354   3.151   2.611 -1.1861 -0.5120  1.6450
 7376TIP3    H222093   1.410   3.291   2.611 -3.0276  0.2991 -0.9347
 7377TIP3   OH222094   4.104   2.873   5.156 -0.3671  0.5553  0.0616
 7377TIP3    H122095   4.026   2.881   5.211 -0.4295 -0.4977  0.1572
 7377TIP3    H222096   4.162   2.816   5.205  0.0895  0.5961 -0.4194
 7378TIP3   OH222097   4.725   1.844   2.411 -0.5383 -0.5558  0.3098
 7378TIP3    H122098   4.820   1.836   2.399 -0.5082 -0.3709  0.4157
 7378TIP3    H222099   4.716   1.897   2.490 -0.7286  1.3202 -0.9053
 7379TIP3   OH222100   1.786   6.234   2.773 -0.1728 -0.5175  0.3255
 7379TIP3    H122101   1.860   6.289   2.748  0.4876 -1.2445  0.6695
 7379TIP3    H222102   1.819   6.145   2.769 -1.8863 -1.1752 -2.6950
 7380TIP3   OH222103   2.778   5.163   0.050 -0.3217  0.0435 -1.1291
 7380TIP3    H122104   2.726   5.083   0.037  0.4621 -0.7386  0.3258
 7380TIP3    H222105   2.721   5.220   0.102  0.2221 -0.8184  0.4777
 7381TIP3   OH222106   2.026   0.440   2.870 -0.0488  0.5414  0.2027
 7381TIP3    H122107   2.042   0.370   2.807 -2.4301 -0.8406  0.9798
 7381TIP3    H222108   2.085   0.510   2.844  3.2291 -2.0711  0.0094
 7382TIP3   OH222109   3.714   2.738   1.415 -0.6749  0.3773 -0.2238
 7382TIP3    H122110   3.638   2.792   1.436 -0.3679  0.2260  1.4235
 7382TIP3    H222111   3.710   2.727   1.320 -0.7392  3.2829 -0.6615
 7383TIP3   OH222112   1.434   0.744   1.888  0.4467  0.1182  0.1868
 7383TIP3    H122113   1.495   0.699   1.830 -1.4971  0.8660 -2.6290
 7383TIP3    H222114   1.366   0.680   1.906 -0.3267  0.6981 -0.6123
 7384TIP3   OH222115   2.872   5.286   1.187 -0.3510 -0.4637 -0.3970
 7384TIP3    H122116   2.877   5.341   1.265  1.3295  1.9769 -2.0845
 7384TIP3    H222117   2.912   5.203   1.212  0.0808  0.2439  1.3414
 7385TIP3   OH222118   5.402   1.360   3.812  0.3361  0.3907 -0.5482
 7385TIP3    H122119   5.376   1.430   3.872  1.1278 -0.2091  0.5338
 7385TIP3    H222120   5.331   1.356   3.748  0.0101  1.8023 -0.3130
 7386TIP3   OH222121   3.675   3.675   2.902  0.4800 -0.0231 -0.3524
 7386TIP3    H122122   3.748   3.680   2.840  0.7523 -1.2088 -0.1501
 7386TIP3    H222123   3.614   3.613   2.862 -1.9372  3.0941 -2.0002
 7387TIP3   OH222124   1.804   3.614  -0.004  0.2677 -0.5080  0.3989
 7387TIP3    H122125   1.891   3.581   0.018 -0.3304 -0.6478  2.7349
 7387TIP3    H222126   1.792   3.690   0.052 -0.9869 -0.2554 -0.1761
 7388TIP3   OH222127   6.289   2.793   0.832 -0.6151 -0.4284  0.1303
 7388TIP3    H122128   6.313   2.737   0.759 -0.2350 -1.4891  1.0468
 7388TIP3    H222129   6.193   2.792   0.833 -0.6073 -1.0578  0.1338
 7389TIP3   OH222130   4.994   0.120   3.492 -0.2933 -0.2477 -0.0391
 7389TIP3    H122131   5.028   0.149   3.577  1.9517 -0.1616 -0.8802
 7389TIP3    H222132   5.004   0.197   3.435 -0.7158 -0.6343 -0.6427
 7390TIP3   OH222133   1.533   0.141   1.697  0.0155 -0.4055  0.5960
 7390TIP3    H122134   1.502   0.077   1.761  0.6300 -2.7586 -1.2975
 7390TIP3    H222135   1.454   0.177   1.657 -0.3389 -0.9161  0.8358
 7391TIP3   OH222136   2.699   4.724   4.061  0.2961 -0.2900 -0.2959
 7391TIP3    H122137   2.710   4.739   4.155  0.4247  1.4971 -0.5615
 7391TIP3    H222138   2.786   4.738   4.024  0.1351 -0.4781 -0.7506
 7392TIP3   OH222139   3.863   2.875   5.845  0.0561 -0.0283  0.1286
 7392TIP3    H122140   3.828   2.788   5.864 -1.0564  0.7963  2.0860
 7392TIP3    H222141   3.951   2.858   5.811  0.4000 -1.8902  1.7858
 7393TIP3   OH222142   6.873   5.160   0.478  0.1127  0.3760 -0.8550
 7393TIP3    H122143   6.797   5.211   0.451 -0.2059  0.8350  0.7679
 7393TIP3    H222144   6.920   5.217   0.540 -1.2244 -1.7900  2.4811
 7394TIP3   OH222145   5.668   5.755   3.062  0.1193  0.1666  0.1821
 7394TIP3    H122146   5.617   5.692   3.010 -2.6520  2.1714  0.2384
 7394TIP3    H222147   5.703   5.704   3.134 -2.7982 -1.2596  0.7548
 7395TIP3   OH222148   1.640   1.337   4.555 -0.2421  0.4461 -0.2735
 7395TIP3    H122149   1.635   1.420   4.507 -2.2395  2.0357  2.3591
 7395TIP3    H222150   1.731   1.334   4.587  0.1031  1.1593 -1.1351
 7396TIP3   OH222151   3.625   2.857   5.260  0.3517 -0.2042 -0.3384
 7396TIP3    H122152   3.695   2.808   5.216 -0.6889 -0.8454 -1.3061
 7396TIP3    H222153   3.550   2.850   5.202 -0.7297 -0.0700  1.0007
 7397TIP3   OH222154   6.675   0.590   3.201 -0.2175  0.6770 -0.2848
 7397TIP3    H122155   6.709   0.668   3.156 -1.3614  0.8083 -0.9493
 7397TIP3    H222156   6.727   0.518   3.167  0.9958  1.1550  0.4886
 7398TIP3   OH222157   6.194   4.065   1.318 -0.4140 -0.3408 -0.2117
 7398TIP3    H122158   6.248   4.138   1.287 -0.1390 -0.5692 -0.2828
 7398TIP3    H222159   6.130   4.051   1.249  1.8806 -2.6337 -2.0586
 7399TIP3   OH222160   4.290   4.935   3.090 -0.1278  0.0427 -0.4037
 7399TIP3    H122161   4.227   4.994   3.131  0.2556 -0.5815  1.1359
 7399TIP3    H222162   4.262   4.848   3.117  0.6341 -0.3335 -0.7934
 7400TIP3   OH222163   6.410   1.669   1.615  0.5658 -0.1445 -0.5090
 7400TIP3    H122164   6.385   1.758   1.637  1.4502 -0.0286  0.0778
 7400TIP3    H222165   6.334   1.633   1.569 -0.7737  0.1002  1.4264
 7401TIP3   OH222166   4.903   0.924   3.866 -0.4630  0.4500  0.1229
 7401TIP3    H122167   4.932   0.976   3.941  1.1979 -0.2944  0.0463
 7401TIP3    H222168   4.947   0.964   3.791 -0.5393 -0.0125 -0.1713
 7402TIP3   OH222169   3.569   4.647   0.475  0.6883  0.6317 -0.2504
 7402TIP3    H122170   3.534   4.612   0.557 -0.0344 -0.0265 -0.8237
 7402TIP3    H222171   3.494   4.686   0.432  0.9365  0.4358 -0.8692
 7403TIP3   OH222172   3.704   4.264   1.705 -0.2969  0.3861 -0.2383
 7403TIP3    H122173   3.733   4.196   1.766  1.0887  0.1197 -1.1348
 7403TIP3    H222174   3.629   4.305   1.748 -0.0446 -0.5200  1.1263
 7404TIP3   OH222175   4.919   6.714   5.189  0.1988 -0.1250  0.0036
 7404TIP3    H122176   4.971   6.635   5.173 -0.6534 -0.6998  0.0095
 7404TIP3    H222177   4.884   6.737   5.103 -1.7339 -1.3333  0.3983
 7405TIP3   OH222178   0.515   5.431   2.127  0.3092 -0.1077 -0.1320
 7405TIP3    H122179   0.483   5.381   2.202  1.2832 -2.5612 -1.2647
 7405TIP3    H222180   0.475   5.390   2.051 -2.6329  3.8241 -1.0545
 7406TIP3   OH222181   0.417   5.834   2.436 -0.0679 -0.1047  0.4688
 7406TIP3    H122182   0.370   5.765   2.389 -0.0416 -0.2513  0.6586
 7406TIP3    H222183   0.349   5.899   2.457 -0.0818 -0.0417  0.2393
 7407TIP3   OH222184   0.404   5.576   1.465  0.1810  0.1970 -0.0081
 7407TIP3    H122185   0.474   5.567   1.401  0.1579 -0.8448  0.0960
 7407TIP3    H222186   0.382   5.670   1.464 -0.1714  0.1426 -1.8999
 7408TIP3   OH222187   3.054   0.727   2.126  0.4314  0.4775  0.5460
 7408TIP3    H122188   3.062   0.658   2.192  2.6117  0.7852  0.6724
 7408TIP3    H222189   2.960   0.734   2.111  0.0144 -1.1079  2.0116
 7409TIP3   OH222190   0.875   2.546   1.111 -0.6964 -0.0284  0.7281
 7409TIP3    H122191   0.872   2.491   1.190 -3.0451 -0.1609  0.6165
 7409TIP3    H222192   0.893   2.634   1.144 -0.9335 -0.2020  1.3368
 7410TIP3   OH222193   5.600   2.053   3.240 -0.3849  0.5298 -0.0275
 7410TIP3    H122194   5.598   1.958   3.234  0.4631  0.3940  1.4167
 7410TIP3    H222195   5.693   2.076   3.235 -0.3500  1.0524  2.1739
 7411TIP3   OH222196   4.073   1.874   0.751  0.0400  0.4527 -0.1906
 7411TIP3    H122197   4.164   1.845   0.760 -0.0493 -0.3546 -1.6153
 7411TIP3    H222198   4.036   1.864   0.839  1.2797  0.6492  0.3727
 7412TIP3   OH222199   5.824   5.229   4.279 -0.2951 -0.2734 -0.4203
 7412TIP3    H122200   5.800   5.265   4.194 -1.2412  1.5577  0.5585
 7412TIP3    H222201   5.746   5.180   4.307  0.1887 -1.2820 -0.7805
 7413TIP3   OH222202   1.490   4.825   1.720  0.3670 -0.4008  0.0139
 7413TIP3    H122203   1.530   4.903   1.759  3.2170 -1.8072  0.1039
 7413TIP3    H222204   1.535   4.751   1.759 -1.6841 -2.1397 -0.6866
 7414TIP3   OH222205   5.698   5.816   4.138 -0.3251  0.4609 -0.7292
 7414TIP3    H122206   5.709   5.751   4.068 -0.2774  0.9070 -1.1404
 7414TIP3    H222207   5.699   5.764   4.219  0.9263  0.0593 -0.9646
 7415TIP3   OH222208   0.548   6.015   2.704 -0.0314 -0.0815 -0.2022
 7415TIP3    H122209   0.469   6.018   2.650 -0.2848 -1.0510  0.1053
 7415TIP3    H222210   0.516   6.017   2.794  0.0958 -3.0575 -0.0088
 7416TIP3   OH222211   6.796   6.569   2.655  0.4532  0.4101 -0.2010
 7416TIP3    H122212   6.768   6.483   2.689  0.1655  0.8455  0.6897
 7416TIP3    H222213   6.826   6.616   2.732  0.8649  1.0224 -0.7304
 7417TIP3   OH222214   4.470   0.823   1.265  0.2034 -0.0694 -0.3506
 7417TIP3    H122215   4.485   0.912   1.299  0.0953 -0.4399  0.7113
 7417TIP3    H222216   4.507   0.825   1.177  1.4554  0.6338  0.1591
 7418TIP3   OH222217   3.586   1.210   5.352 -0.5011 -0.7069 -0.2729
 7418TIP3    H122218   3.613   1.298   5.378  0.3052 -0.8734 -0.5462
 7418TIP3    H222219   3.654   1.152   5.387 -0.3562 -1.1002 -1.1908
 7419TIP3   OH222220   3.365   2.360   2.150  1.1611 -0.2816  0.3639
 7419TIP3    H122221   3.337   2.441   2.107  0.0803 -1.2701 -0.8856
 7419TIP3    H222222   3.423   2.318   2.086 -0.2509 -1.6387 -0.1036
 7420TIP3   OH222223   1.304   4.062   3.642 -0.4747 -0.3348 -0.2862
 7420TIP3    H122224   1.353   4.139   3.611 -0.4902 -0.4759 -0.6621
 7420TIP3    H222225   1.258   4.094   3.720 -3.2984  1.0750 -2.3666
 7421TIP3   OH222226   2.557   5.482   0.564  0.0018 -0.4497 -0.0354
 7421TIP3    H122227   2.595   5.473   0.651  0.2811 -2.5290 -0.3119
 7421TIP3    H222228   2.483   5.422   0.564  0.4212 -1.0099 -1.4403
 7422TIP3   OH222229   6.311   5.999   1.430  0.5970 -0.4157 -0.4689
 7422TIP3    H122230   6.326   5.917   1.382  1.2227 -0.0870 -0.8595
 7422TIP3    H222231   6.231   6.035   1.391  0.9331 -0.3023 -1.0684
 7423TIP3   OH222232   6.979   0.073   0.675 -0.5040 -0.0585  0.5454
 7423TIP3    H122233   6.895   0.026   0.671 -1.1779  0.9766  1.7086
 7423TIP3    H222234   6.956   0.160   0.709  1.0524  0.2264  0.9541
 7424TIP3   OH222235   6.428   4.846   5.586  0.4131 -0.2971  0.1174
 7424TIP3    H122236   6.462   4.774   5.639 -1.4924 -2.2766 -1.1731
 7424TIP3    H222237   6.338   4.858   5.617  0.4933  1.1583 -0.1207
 7425TIP3   OH222238   2.873   2.730   1.581  0.1916 -0.1820 -0.2144
 7425TIP3    H122239   2.843   2.740   1.491 -2.4803 -0.6361  0.5241
 7425TIP3    H222240   2.900   2.818   1.607  0.0735  0.1472 -1.1690
 7426TIP3   OH222241   3.700   3.772   5.521  0.3771 -0.0771 -0.4279
 7426TIP3    H122242   3.663   3.748   5.436  3.7376 -0.9527 -1.8164
 7426TIP3    H222243   3.696   3.691   5.572  0.1919 -0.1135 -0.4988
 7427TIP3   OH222244   4.239   0.496   5.011 -0.2161 -0.1247  0.3644
 7427TIP3    H122245   4.224   0.569   5.071  1.2093  0.2919  0.2521
 7427TIP3    H222246   4.320   0.518   4.965  0.0675 -1.6088  0.0725
 7428TIP3   OH222247   4.125   3.951   4.087  0.5623  0.7954  0.2756
 7428TIP3    H122248   4.188   4.003   4.037 -0.1319  0.9960 -0.4033
 7428TIP3    H222249   4.073   4.015   4.135  0.7248  0.6398  0.6677
 7429TIP3   OH222250   6.004   0.871   3.818  0.3976 -0.0057 -0.3793
 7429TIP3    H122251   5.915   0.882   3.852  0.2031 -1.5267 -0.3519
 7429TIP3    H222252   6.032   0.960   3.797  0.2754  0.9858  3.0718
 7430TIP3   OH222253   4.937   2.133   2.565  0.0003  0.3649  0.0046
 7430TIP3    H122254   5.020   2.089   2.542 -1.6603 -2.4765 -1.0754
 7430TIP3    H222255   4.911   2.177   2.485 -0.2373  0.0515 -0.0895
 7431TIP3   OH222256   4.187   6.132   5.809  0.0153 -0.9762 -0.6090
 7431TIP3    H122257   4.221   6.128   5.720  2.7338  1.6431  0.1495
 7431TIP3    H222258   4.131   6.210   5.810  0.9789 -0.2715  0.2227
 7432TIP3   OH222259   5.505   0.666   5.356  0.7508 -0.2519 -0.2907
 7432TIP3    H122260   5.560   0.594   5.326  0.9299 -1.3811  2.4254
 7432TIP3    H222261   5.417   0.642   5.328  1.1176 -0.2720 -1.4970
 7433TIP3   OH222262   3.348   6.349   0.643 -0.3653 -0.3250 -0.1054
 7433TIP3    H122263   3.417   6.409   0.616  1.0636 -1.5075  0.7521
 7433TIP3    H222264   3.392   6.287   0.702 -1.7226 -2.2922 -1.0460
 7434TIP3   OH222265   6.121   5.920   3.359  0.2926 -0.4898  0.0923
 7434TIP3    H122266   6.048   5.979   3.377  1.2367  1.1145 -1.0642
 7434TIP3    H222267   6.098   5.877   3.277  0.5536 -0.1157 -0.1805
 7435TIP3   OH222268   1.394   4.808   2.605 -0.2430 -0.4893  0.3732
 7435TIP3    H122269   1.412   4.898   2.629 -0.7545 -0.7422  1.7995
 7435TIP3    H222270   1.386   4.762   2.688 -2.6601 -1.3199 -0.2276
 7436TIP3   OH222271   5.027   0.103  -0.014  0.6218  0.0174  0.3379
 7436TIP3    H122272   5.063   0.029   0.035  0.7195  0.3400  0.7703
 7436TIP3    H222273   4.970   0.147   0.050 -0.9198 -0.7392 -0.4534
 7437TIP3   OH222274   5.689   3.055   4.090 -0.4686  0.0260  0.0236
 7437TIP3    H122275   5.693   2.988   4.158 -0.6040  0.6256  0.6384
 7437TIP3    H222276   5.778   3.060   4.056 -0.3922 -0.2533  0.1771
 7438TIP3   OH222277   6.003   5.762   3.167  0.2144 -0.5377 -0.7378
 7438TIP3    H122278   5.958   5.750   3.251  1.3515  0.0138 -0.0404
 7438TIP3    H222279   6.010   5.673   3.132  2.0525 -1.1587  0.9880
 7439TIP3   OH222280   5.011   6.553   2.757  0.4341 -0.0485 -0.2642
 7439TIP3    H122281   4.942   6.491   2.779  0.2914  0.0814 -0.3478
 7439TIP3    H222282   4.967   6.637   2.748  0.6566  0.1006  0.0264
 7440TIP3   OH222283   0.275   3.438   5.044  0.3799 -0.0624 -0.2154
 7440TIP3    H122284   0.351   3.426   5.102 -1.0439 -2.2747  1.3794
 7440TIP3    H222285   0.202   3.457   5.104 -0.3702  2.2293 -1.7209
 7441TIP3   OH222286   1.468   2.444   4.773  0.3188  0.0074  0.0099
 7441TIP3    H122287   1.462   2.537   4.793  1.5026  0.1260 -0.1029
 7441TIP3    H222288   1.521   2.407   4.844 -0.1027 -0.5779  0.0321
 7442TIP3   OH222289   4.977   0.683   5.170  0.6716 -0.3669  0.5939
 7442TIP3    H122290   4.965   0.774   5.197  1.8337 -0.5528  1.8323
 7442TIP3    H222291   4.895   0.660   5.126  0.5306  1.3959 -0.1238
 7443TIP3   OH222292   2.806   5.766   2.241 -0.7130  0.0511  0.8736
 7443TIP3    H122293   2.748   5.836   2.211  1.0742  0.3225 -2.4287
 7443TIP3    H222294   2.788   5.693   2.182  0.3722 -0.8132  1.5709
 7444TIP3   OH222295   2.999   5.745   4.111 -0.0603  0.0786 -0.0149
 7444TIP3    H122296   2.920   5.691   4.108 -0.6292  0.7797  1.4105
 7444TIP3    H222297   2.970   5.832   4.085  0.5455  0.0339 -0.8571
 7445TIP3   OH222298   6.623   0.376   2.322  0.7018  0.0257  0.0822
 7445TIP3    H122299   6.590   0.455   2.364  0.8393  1.0816 -1.7046
 7445TIP3    H222300   6.613   0.392   2.228 -0.0541 -2.4250 -0.3293
 7446TIP3   OH222301   2.663   5.994   2.173 -0.0462 -0.0043 -0.2630
 7446TIP3    H122302   2.686   6.072   2.224  0.1665 -0.1372 -0.1538
 7446TIP3    H222303   2.612   6.028   2.099  0.2666  0.2646 -0.3593
 7447TIP3   OH222304   4.869   1.894   0.619 -0.0015 -0.0607 -0.3131
 7447TIP3    H122305   4.879   1.826   0.552 -0.1940 -0.0366 -0.3664
 7447TIP3    H222306   4.801   1.952   0.584 -0.5281 -0.3733  0.1705
 7448TIP3   OH222307   2.648   2.898   2.757  0.2195 -0.3163 -0.2078
 7448TIP3    H122308   2.644   2.941   2.672  0.1115  1.1037  0.4821
 7448TIP3    H222309   2.561   2.862   2.771  0.0763 -0.0647 -0.4562
 7449TIP3   OH222310   5.211   1.632   5.678  0.5345 -0.2013  0.8723
 7449TIP3    H122311   5.146   1.679   5.626  0.4972  1.1333  2.0846
 7449TIP3    H222312   5.261   1.581   5.613  1.5307  2.6011 -0.7376
 7450TIP3   OH222313   5.122   5.826   3.448 -0.1362 -0.1989  0.0980
 7450TIP3    H122314   5.189   5.877   3.494 -1.6203  1.7035  0.2294
 7450TIP3    H222315   5.136   5.736   3.479  2.4896  0.0662 -0.0760
 7451TIP3   OH222316   4.331   2.092   2.507 -0.4716  0.0006 -0.0935
 7451TIP3    H122317   4.409   2.075   2.454  0.8820  2.2644  0.9737
 7451TIP3    H222318   4.265   2.122   2.444  0.0559 -0.4027 -0.8519
 7452TIP3   OH222319   3.569   3.387   0.982  0.1383 -0.1919  0.2612
 7452TIP3    H122320   3.642   3.363   1.039  0.6461 -0.3980 -0.4601
 7452TIP3    H222321   3.602   3.371   0.894 -0.8419 -0.4355 -0.0638
 7453TIP3   OH222322   0.278   5.789   0.094  0.1288  0.1657  0.0784
 7453TIP3    H122323   0.351   5.777   0.034 -1.3915 -0.8037 -1.6623
 7453TIP3    H222324   0.313   5.762   0.179  2.2841  1.4315 -0.3338
 7454TIP3   OH222325   6.359   6.195   2.584 -0.1826 -0.3219  0.0547
 7454TIP3    H122326   6.397   6.127   2.529 -0.3926 -1.9040  1.7788
 7454TIP3    H222327   6.265   6.176   2.584 -0.1914 -0.3361  0.9078
 7455TIP3   OH222328   2.138   5.366   0.058 -0.2394 -0.5394  0.0863
 7455TIP3    H122329   2.124   5.452   0.018 -1.1317 -0.6727  0.1010
 7455TIP3    H222330   2.175   5.313  -0.013  1.1844  0.0837  0.3167
 7456TIP3   OH222331   0.532   1.353   4.749 -0.1050 -0.1137 -0.1505
 7456TIP3    H122332   0.510   1.411   4.677 -0.3891 -0.7362 -0.5728
 7456TIP3    H222333   0.545   1.268   4.708  0.2915 -0.3519  0.4622
 7457TIP3   OH222334   5.249   4.269   3.336  0.1102 -0.1720 -0.8298
 7457TIP3    H122335   5.201   4.194   3.372 -3.2795  0.7642 -2.9616
 7457TIP3    H222336   5.341   4.245   3.347 -0.7090 -2.4850  2.8291
 7458TIP3   OH222337   6.999   5.956   2.772  0.4186 -0.0073  0.9809
 7458TIP3    H122338   6.915   6.001   2.762  1.3335  1.8488  1.1878
 7458TIP3    H222339   6.985   5.870   2.731 -1.2246  0.6922 -0.0440
 7459TIP3   OH222340   2.706   0.156   0.527  0.8415  0.2977  0.2136
 7459TIP3    H122341   2.747   0.147   0.613 -0.6520  3.0049  1.3324
 7459TIP3    H222342   2.636   0.220   0.540  0.6178  0.9083 -3.0687
 7460TIP3   OH222343   2.322   4.801   1.147  0.1776  0.1596 -0.0267
 7460TIP3    H122344   2.391   4.861   1.120 -0.2295  0.0480 -1.3660
 7460TIP3    H222345   2.333   4.725   1.091 -0.6971 -0.0872  0.1234
 7461TIP3   OH222346   4.053   1.837   5.147 -0.2768 -0.2796 -0.2691
 7461TIP3    H122347   4.125   1.862   5.205  0.0535 -1.8914  0.0671
 7461TIP3    H222348   4.083   1.860   5.059  1.2133 -2.0107 -0.2751
 7462TIP3   OH222349   6.831   3.240   0.614  0.1757  0.2233 -0.0050
 7462TIP3    H122350   6.822   3.229   0.709 -3.0687  0.0178 -0.2063
 7462TIP3    H222351   6.757   3.191   0.578  1.1565  0.5534 -2.6382
 7463TIP3   OH222352   6.340   2.969   5.779 -0.2804  0.1149  0.3665
 7463TIP3    H122353   6.402   3.025   5.826  0.2652  0.5768 -0.8497
 7463TIP3    H222354   6.396   2.909   5.729 -0.7293  1.3858 -1.7679
 7464TIP3   OH222355   6.644   5.028   5.748  0.0485  0.3704 -0.6218
 7464TIP3    H122356   6.650   5.083   5.670  2.5205 -1.3899 -1.8056
 7464TIP3    H222357   6.695   4.950   5.727 -0.7293 -1.0177  2.1139
 7465TIP3   OH222358   4.391   4.211   1.741  0.0604 -0.1519  0.7415
 7465TIP3    H122359   4.456   4.278   1.720  0.7786 -0.8465  0.7237
 7465TIP3    H222360   4.349   4.243   1.821  0.8723 -0.0016  1.1192
 7466TIP3   OH222361   3.652   6.451   4.081 -0.1332 -0.0934 -0.2496
 7466TIP3    H122362   3.643   6.426   4.172  1.7745  1.0037  0.2920
 7466TIP3    H222363   3.677   6.543   4.084 -1.5149  0.3937 -1.9538
 7467TIP3   OH222364   3.791   4.453   4.373 -0.2070  0.0166  0.5974
 7467TIP3    H122365   3.722   4.411   4.322  1.3833 -0.6645 -1.0799
 7467TIP3    H222366   3.860   4.473   4.310  0.7824  1.5292  2.0507
 7468TIP3   OH222367   2.873   0.196   1.180 -0.0499 -0.4384  0.2758
 7468TIP3    H122368   2.862   0.200   1.275 -1.2167  0.3516  0.1270
 7468TIP3    H222369   2.815   0.124   1.153 -0.6818  0.1519  0.0425
 7469TIP3   OH222370   0.485   4.611   2.634  0.6568 -0.2330  0.0039
 7469TIP3    H122371   0.411   4.638   2.580 -0.8299 -1.5215  1.3103
 7469TIP3    H222372   0.523   4.536   2.587 -0.6614 -1.3848  0.7280
 7470TIP3   OH222373   7.168   3.819   2.151 -0.2815 -0.5755  0.2489
 7470TIP3    H122374   7.226   3.752   2.113 -0.5095 -1.6423  1.7045
 7470TIP3    H222375   7.219   3.900   2.146  1.2808 -1.4452  1.2632
 7471TIP3   OH222376   7.020   4.507   3.473  0.0928 -0.3062  0.0334
 7471TIP3    H122377   7.107   4.535   3.503  1.1211 -0.4163 -2.5328
 7471TIP3    H222378   6.998   4.433   3.528  2.3085 -1.1754 -0.1138
 7472TIP3   OH222379   1.886   0.590   0.253  0.1294 -0.2864  0.0146
 7472TIP3    H122380   1.961   0.636   0.290 -0.2446 -0.5068  1.0707
 7472TIP3    H222381   1.873   0.632   0.167  2.1134 -0.9889 -0.6872
 7473TIP3   OH222382   3.472   1.166   3.413 -0.5499  0.6638 -0.1732
 7473TIP3    H122383   3.469   1.071   3.417  0.4549  0.5434 -1.4087
 7473TIP3    H222384   3.497   1.194   3.501 -1.3376 -0.1691  0.3279
 7474TIP3   OH222385   3.963   6.778   0.236  0.3882 -0.3129 -0.0413
 7474TIP3    H122386   4.002   6.732   0.310  1.2466  0.2194 -0.1492
 7474TIP3    H222387   3.876   6.802   0.266  0.5513 -0.5297  0.6218
 7475TIP3   OH222388   4.019   5.092   3.018 -0.3248  0.3058  0.6424
 7475TIP3    H122389   4.101   5.050   2.995 -0.1799  0.5118  0.7815
 7475TIP3    H222390   4.014   5.087   3.113 -1.4876 -1.6064  0.5282
 7476TIP3   OH222391   6.078   0.399   4.055 -0.2505 -0.2306  0.2780
 7476TIP3    H122392   6.174   0.407   4.059 -0.0674 -2.1246  1.0492
 7476TIP3    H222393   6.050   0.475   4.005  1.6705  0.3473 -0.0315
 7477TIP3   OH222394   6.529   2.194   1.653  0.1867 -0.3182  0.0158
 7477TIP3    H122395   6.611   2.176   1.607  1.7189 -1.2124  2.8337
 7477TIP3    H222396   6.518   2.289   1.646  1.0132 -0.2813 -1.0888
 7478TIP3   OH222397   4.686   0.426   4.123  0.0650  0.6573 -0.1731
 7478TIP3    H122398   4.731   0.451   4.043 -0.4104  1.9175 -0.0687
 7478TIP3    H222399   4.595   0.414   4.097  0.5075 -2.8231 -0.5821
 7479TIP3   OH222400   1.273   2.563   2.220  0.0667  0.3005  0.2377
 7479TIP3    H122401   1.243   2.511   2.145  0.6273  0.3539 -0.0266
 7479TIP3    H222402   1.282   2.500   2.291 -0.4336  0.2431  0.2570
 7480TIP3   OH222403   3.261   0.253   1.948 -0.0591 -0.4139 -0.4237
 7480TIP3    H122404   3.258   0.248   1.853 -0.3522 -0.5910 -0.4064
 7480TIP3    H222405   3.170   0.261   1.976  0.0587  0.1231 -0.1782
 7481TIP3   OH222406   6.318   4.973   3.154  0.2329  0.3289  0.0432
 7481TIP3    H122407   6.297   4.904   3.091  1.7509  0.8865 -1.1574
 7481TIP3    H222408   6.256   4.960   3.226 -1.0712 -0.8166 -1.2071
 7482TIP3   OH222409   0.198   2.186   5.428 -0.7617  0.1406 -0.2914
 7482TIP3    H122410   0.132   2.248   5.460  0.1430  0.2039  1.5469
 7482TIP3    H222411   0.278   2.210   5.474  0.3904 -0.4363 -1.8975
 7483TIP3   OH222412   2.994   3.682   4.751  0.1970 -0.4328  0.0321
 7483TIP3    H122413   2.921   3.698   4.810  0.7206  0.1801  0.5200
 7483TIP3    H222414   2.954   3.637   4.676 -0.9192  0.9908 -0.2863
 7484TIP3   OH222415   0.287   5.549   5.119 -0.2396 -0.0166 -0.0245
 7484TIP3    H122416   0.304   5.534   5.026 -0.7207 -0.6074 -0.0206
 7484TIP3    H222417   0.221   5.619   5.121  2.3994  2.6724 -0.0310
 7485TIP3   OH222418   0.050   4.542   5.176  0.5396 -0.3320 -0.1483
 7485TIP3    H122419   0.114   4.593   5.226  1.3530 -0.0445 -1.4379
 7485TIP3    H222420   0.024   4.601   5.105 -1.5548 -0.2543  0.6005
 7486TIP3   OH222421   3.246   5.214   0.527 -0.2175 -0.2811 -0.0758
 7486TIP3    H122422   3.301   5.157   0.582 -1.8914 -0.0438  1.9779
 7486TIP3    H222423   3.157   5.188   0.548 -0.9625 -0.4505 -3.1005
 7487TIP3   OH222424   4.995   4.369   1.718  0.3375  0.0175 -0.2153
 7487TIP3    H122425   5.060   4.360   1.648  0.4079  0.4730 -0.2170
 7487TIP3    H222426   5.037   4.427   1.781 -0.0830  0.3521 -0.2373
 7488TIP3   OH222427   4.135   2.956   4.259  0.2408  0.4745 -0.0708
 7488TIP3    H122428   4.197   2.899   4.215  0.7198  1.1428 -0.2891
 7488TIP3    H222429   4.176   3.043   4.256 -1.1146  1.1278 -1.0937
 7489TIP3   OH222430   6.635   5.714   0.658  0.3074 -0.2504 -0.0588
 7489TIP3    H122431   6.565   5.702   0.593 -0.5726 -0.5273  0.9129
 7489TIP3    H222432   6.685   5.789   0.626 -0.7168  0.2511 -0.5396
 7490TIP3   OH222433   6.053   2.139   2.945 -0.2573 -0.0649 -0.1297
 7490TIP3    H122434   6.146   2.119   2.952 -0.8992 -3.5327  0.2355
 7490TIP3    H222435   6.048   2.210   2.880  2.7184  2.0734  1.7410
 7491TIP3   OH222436   0.390   3.052   4.867 -0.0629  0.7806 -0.2564
 7491TIP3    H122437   0.452   3.019   4.932  0.7094  2.2331 -0.2117
 7491TIP3    H222438   0.418   3.142   4.850 -1.2672  0.9864 -1.3585
 7492TIP3   OH222439   1.822   0.637   3.828  0.0330  0.4078 -0.0869
 7492TIP3    H122440   1.783   0.637   3.740 -0.2648 -0.3147  0.0398
 7492TIP3    H222441   1.752   0.607   3.886  0.3474  0.4967  0.3446
 7493TIP3   OH222442   2.214   0.690   1.444  0.1831  0.3732 -0.0187
 7493TIP3    H122443   2.165   0.757   1.491  1.2706  1.4337 -0.3523
 7493TIP3    H222444   2.148   0.641   1.395 -0.5796  1.5331 -0.1630
 7494TIP3   OH222445   2.388   6.420   0.684  0.4084  0.5224 -0.0792
 7494TIP3    H122446   2.467   6.367   0.679 -0.5046 -0.8868 -0.4031
 7494TIP3    H222447   2.339   6.384   0.758  0.1964  1.5669  0.3088
 7495TIP3   OH222448   5.627   5.901   1.309 -0.0142 -0.1077  0.0800
 7495TIP3    H122449   5.627   5.884   1.215  1.0250  0.8279 -0.1078
 7495TIP3    H222450   5.558   5.966   1.322 -2.6326 -2.7465  0.5230
 7496TIP3   OH222451   2.549   2.456   1.877  0.6915  0.2929 -0.4378
 7496TIP3    H122452   2.585   2.521   1.816  1.0655  0.7118  0.2252
 7496TIP3    H222453   2.624   2.405   1.906  0.7080  0.9048  0.6361
 7497TIP3   OH222454   3.735   3.851   4.028  0.8373 -0.5426 -0.3733
 7497TIP3    H122455   3.706   3.919   4.089 -1.1488 -0.1764 -1.6216
 7497TIP3    H222456   3.750   3.774   4.083 -1.5638 -0.4279  0.5645
 7498TIP3   OH222457   4.564   2.533   3.208  0.2373 -0.2736 -0.1137
 7498TIP3    H122458   4.582   2.542   3.302 -0.7298  0.5237  0.0125
 7498TIP3    H222459   4.538   2.441   3.198  1.7929 -0.7768  0.1132
 7499TIP3   OH222460   5.620   6.376   1.721  0.1399 -0.1489  0.1398
 7499TIP3    H122461   5.684   6.307   1.705 -0.2283 -0.4137 -0.2167
 7499TIP3    H222462   5.542   6.329   1.753  0.1381  0.1719  0.6072
 7500TIP3   OH222463   3.792   3.842   3.101 -0.0349 -0.0744 -0.6935
 7500TIP3    H122464   3.793   3.937   3.090  1.4099 -0.2395 -2.6449
 7500TIP3    H222465   3.739   3.810   3.027  0.5792 -0.8210 -0.8283
 7501TIP3   OH222466   4.072   5.805   0.997 -0.5308 -0.3864  0.1221
 7501TIP3    H122467   4.104   5.862   0.928  0.5400 -1.9557 -0.7412
 7501TIP3    H222468   3.977   5.801   0.983 -0.7200  1.6513  0.6147
 7502TIP3   OH222469   1.057   3.377   2.690 -0.1649  0.7047  0.2618
 7502TIP3    H122470   1.077   3.364   2.783 -0.6830  1.2045  0.4476
 7502TIP3    H222471   1.141   3.403   2.651  0.1950 -0.1269  0.4628
 7503TIP3   OH222472   0.540   1.743   3.149 -0.2533 -0.2852  0.0676
 7503TIP3    H122473   0.485   1.782   3.080 -0.2635  0.7784  0.6522
 7503TIP3    H222474   0.617   1.800   3.152  0.9815 -1.8311 -0.8367
 7504TIP3   OH222475   4.223   0.535   3.094 -0.2523 -0.0848 -0.2138
 7504TIP3    H122476   4.291   0.481   3.054 -0.0837  1.0530 -1.5484
 7504TIP3    H222477   4.266   0.577   3.168  0.6235  0.7999 -1.1777
 7505TIP3   OH222478   5.177   5.591   4.804 -0.3497  0.6617  0.3174
 7505TIP3    H122479   5.138   5.672   4.836 -2.3099  0.6197 -1.7187
 7505TIP3    H222480   5.248   5.572   4.865 -0.8213  3.0783  1.7116
 7506TIP3   OH222481   6.615   3.409   1.789  0.2009  0.1490  0.5341
 7506TIP3    H122482   6.596   3.500   1.811 -4.2188 -0.2493 -0.6906
 7506TIP3    H222483   6.625   3.409   1.694  1.2951 -0.5624  0.6276
 7507TIP3   OH222484   6.731   5.626   1.353 -0.4394  0.4883 -0.4664
 7507TIP3    H122485   6.817   5.634   1.395 -0.4700 -2.4918  0.4025
 7507TIP3    H222486   6.673   5.680   1.406  0.2585 -0.2508  1.1040
 7508TIP3   OH222487   0.373   2.083   5.026  0.3717  0.2249  0.3847
 7508TIP3    H122488   0.295   2.096   5.080 -0.1003 -0.6743 -0.0502
 7508TIP3    H222489   0.345   2.103   4.937  0.9327  0.9360  0.3635
 7509TIP3   OH222490   6.225   0.182   2.988 -0.0818 -0.3262  0.1291
 7509TIP3    H122491   6.157   0.247   3.007 -0.9445 -1.0718 -0.3101
 7509TIP3    H222492   6.241   0.140   3.073  0.2611  0.2426  0.3530
 7510TIP3   OH222493   5.680   2.005   4.325  0.0786  0.2915 -0.3148
 7510TIP3    H122494   5.598   2.053   4.310  0.1297  0.7486  0.7792
 7510TIP3    H222495   5.655   1.933   4.383  0.5598  0.8314  0.5806
 7511TIP3   OH222496   2.180   4.510   4.591  0.4986 -0.1054 -0.7112
 7511TIP3    H122497   2.264   4.486   4.630  0.4727 -0.4131 -0.8391
 7511TIP3    H222498   2.115   4.465   4.644  0.3983  0.3133 -0.4754
 7512TIP3   OH222499   6.260   6.557   2.470 -0.5664 -0.2737  0.2398
 7512TIP3    H122500   6.355   6.553   2.483 -0.6638  0.3049  1.1564
 7512TIP3    H222501   6.225   6.583   2.554 -1.5666 -0.6491 -0.0499
 7513TIP3   OH222502   0.879   2.368   4.413 -0.0723  0.3641  0.0634
 7513TIP3    H122503   0.840   2.404   4.493 -0.0241  1.7132 -0.4884
 7513TIP3    H222504   0.884   2.443   4.354  0.8435 -0.3872 -0.8416
 7514TIP3   OH222505   3.096   2.863   2.344  0.1835  0.4607 -0.2773
 7514TIP3    H122506   3.159   2.931   2.318  0.0909  0.1329 -1.3756
 7514TIP3    H222507   3.150   2.792   2.377  0.2462  1.6317  2.4175
 7515TIP3   OH222508   0.737   3.976   3.015  0.0813  0.1213 -0.6418
 7515TIP3    H122509   0.722   3.956   2.923 -3.0916  0.3711 -0.2851
 7515TIP3    H222510   0.764   3.892   3.053  2.6318  0.2603 -1.8919
 7516TIP3   OH222511   5.327   3.645   0.280  0.1585 -0.1717  0.5334
 7516TIP3    H122512   5.279   3.596   0.214 -0.1265 -1.8319  1.9125
 7516TIP3    H222513   5.298   3.736   0.268  1.3067 -0.1037 -2.6167
 7517TIP3   OH222514   6.230   4.302   2.981  0.3885  0.2556  0.3894
 7517TIP3    H122515   6.184   4.340   3.056  0.3951 -0.7982  0.9466
 7517TIP3    H222516   6.162   4.256   2.932  0.6246 -0.2333  0.5171
 7518TIP3   OH222517   6.064   4.543   1.794 -0.1216  0.4245 -0.6378
 7518TIP3    H122518   6.064   4.600   1.718  0.0970  0.1390 -0.8499
 7518TIP3    H222519   5.998   4.581   1.852 -0.9856  0.0967 -1.3777
 7519TIP3   OH222520   3.436   0.321   5.335 -0.2015 -0.0257  0.2577
 7519TIP3    H122521   3.531   0.308   5.334 -0.3979 -1.8411  0.5844
 7519TIP3    H222522   3.414   0.344   5.245  0.3834 -1.2396 -0.2200
 7520TIP3   OH222523   3.295   1.306   5.427  0.2096  0.1386  0.3049
 7520TIP3    H122524   3.355   1.318   5.501 -1.0862  1.2288  1.2384
 7520TIP3    H222525   3.314   1.218   5.395  2.5898  0.5948  0.2697
 7521TIP3   OH222526   1.262   0.736   4.428 -0.1074 -0.0507 -0.3834
 7521TIP3    H122527   1.274   0.812   4.371  1.3346  0.8016  0.9728
 7521TIP3    H222528   1.235   0.666   4.370 -1.3554  1.4479 -1.7082
 7522TIP3   OH222529   4.121   3.710   3.918 -0.1398 -0.2865  0.0029
 7522TIP3    H122530   4.117   3.774   3.989  0.6546 -1.5337  1.2341
 7522TIP3    H222531   4.122   3.763   3.839 -1.1835  1.1546  0.8951
 7523TIP3   OH222532   1.508   2.335   3.221 -0.2254  0.3149  0.4176
 7523TIP3    H122533   1.550   2.402   3.167  1.5405 -1.9859 -1.2474
 7523TIP3    H222534   1.564   2.327   3.298 -0.8249  1.1582  0.9677
 7524TIP3   OH222535   0.964   2.780   1.212 -0.2196 -0.6157 -0.0394
 7524TIP3    H122536   1.023   2.840   1.167 -1.0996 -0.1844 -0.6654
 7524TIP3    H222537   0.972   2.802   1.304  0.0782 -0.1002 -0.1854
 7525TIP3   OH222538   5.069   1.828   5.486  0.1755 -0.3287 -0.3868
 7525TIP3    H122539   5.089   1.885   5.412  1.2487 -1.2188 -0.8141
 7525TIP3    H222540   5.069   1.886   5.562  0.6737  0.3331 -0.8803
 7526TIP3   OH222541   0.051   1.713   4.409 -0.1906  0.1922 -0.0207
 7526TIP3    H122542   0.075   1.623   4.431 -0.1945  0.1570 -0.1632
 7526TIP3    H222543  -0.002   1.706   4.330 -0.3978  0.2991  0.1076
 7527TIP3   OH222544   3.307   3.440   1.089  0.5221  0.0761  0.0203
 7527TIP3    H122545   3.289   3.521   1.042  1.1506 -0.1670 -0.6566
 7527TIP3    H222546   3.391   3.410   1.054  0.5431 -0.6036  0.6275
 7528TIP3   OH222547   3.999   6.293   3.965 -0.0205 -0.0731 -0.3130
 7528TIP3    H122548   4.069   6.252   3.914 -1.4422 -0.6103 -1.9064
 7528TIP3    H222549   3.992   6.239   4.043  1.5858  0.2210  0.0660
 7529TIP3   OH222550   5.078   0.544   5.578  0.5999 -0.4035  0.1307
 7529TIP3    H122551   4.992   0.572   5.547  0.5498  0.7877  1.2566
 7529TIP3    H222552   5.121   0.625   5.606  2.0127 -1.0076 -0.2108
 7530TIP3   OH222553   0.951   0.714   0.555  0.4530 -0.3237  0.3301
 7530TIP3    H122554   0.859   0.730   0.579 -0.3986 -0.8568 -2.2391
 7530TIP3    H222555   0.999   0.787   0.595 -1.0423 -0.0866  1.8148
 7531TIP3   OH222556   3.728   3.997   1.794 -0.2447 -0.2786 -0.4313
 7531TIP3    H122557   3.736   3.902   1.803 -2.0179 -0.4564 -0.4104
 7531TIP3    H222558   3.797   4.021   1.732  1.5363 -1.2734  1.0875
 7532TIP3   OH222559   3.144   3.135   3.086  0.1917  0.3831 -0.4665
 7532TIP3    H122560   3.089   3.058   3.101  0.3568 -0.0920 -2.1039
 7532TIP3    H222561   3.206   3.108   3.018  1.6121  1.3259  0.4078
 7533TIP3   OH222562   6.301   0.824   0.363 -0.0342  0.6108 -0.4133
 7533TIP3    H122563   6.369   0.817   0.296  0.1405 -0.5054 -0.1463
 7533TIP3    H222564   6.328   0.897   0.418  1.5202 -0.4371  0.2790
 7534TIP3   OH222565   3.978   6.400   5.271 -0.4599  0.0701 -0.5439
 7534TIP3    H122566   3.966   6.465   5.340 -0.1956 -0.3707 -0.0785
 7534TIP3    H222567   4.042   6.440   5.212  1.1813 -0.5225  0.7419
 7535TIP3   OH222568   0.756   6.101   5.183 -0.4834  0.2575 -0.5483
 7535TIP3    H122569   0.690   6.045   5.142 -1.0478  0.6783 -0.2214
 7535TIP3    H222570   0.826   6.107   5.118 -0.2387 -1.1218 -0.4616
 7536TIP3   OH222571   5.757   2.290   2.651  0.1457  0.4565  0.1168
 7536TIP3    H122572   5.763   2.354   2.580 -2.0295  1.2394  0.5880
 7536TIP3    H222573   5.753   2.206   2.606  0.0067  0.8585 -0.6415
 7537TIP3   OH222574   1.656   6.790   5.446  0.2432 -0.7327 -0.2456
 7537TIP3    H122575   1.627   6.808   5.356  2.1850  0.1374 -0.7568
 7537TIP3    H222576   1.743   6.751   5.435  1.2298  0.9067  1.2705
 7538TIP3   OH222577   5.312   4.766   3.828  0.7004  0.4619 -0.1360
 7538TIP3    H122578   5.320   4.729   3.916 -0.6812  1.4352  0.4364
 7538TIP3    H222579   5.367   4.845   3.830  1.1200  0.1797 -0.3410
 7539TIP3   OH222580   0.038   5.371   4.516  0.1603  0.0355 -0.1266
 7539TIP3    H122581   0.025   5.363   4.611  1.7411 -1.1643  0.0366
 7539TIP3    H222582   0.095   5.298   4.494 -0.4344  0.1079 -2.0834
 7540TIP3   OH222583   2.649   6.016   0.975 -0.2613  0.0594 -0.1059
 7540TIP3    H122584   2.664   6.082   1.043 -1.3504  0.2925 -0.0868
 7540TIP3    H222585   2.735   5.975   0.962  0.0941  0.4596  0.9425
 7541TIP3   OH222586   3.479   1.380   0.648 -0.1462 -0.1927 -0.3907
 7541TIP3    H122587   3.530   1.348   0.723  0.3560  0.3398 -0.4935
 7541TIP3    H222588   3.405   1.320   0.642 -0.2584 -0.1677  0.6082
 7542TIP3   OH222589   1.779   4.872   3.666 -0.7634  0.0071  0.0238
 7542TIP3    H122590   1.840   4.818   3.718  0.7204  0.7449 -0.8667
 7542TIP3    H222591   1.693   4.852   3.702 -0.1661 -2.1427  0.4466
 7543TIP3   OH222592   6.713   5.277   3.640 -0.0907 -0.4220 -0.1521
 7543TIP3    H122593   6.760   5.195   3.657 -1.0822 -1.2020 -1.0221
 7543TIP3    H222594   6.624   5.249   3.620 -0.6866  0.9550  0.4819
 7544TIP3   OH222595   0.164   2.221   3.443 -0.2037 -0.0376 -0.1450
 7544TIP3    H122596   0.205   2.191   3.362 -1.9308  0.5843 -1.3299
 7544TIP3    H222597   0.147   2.142   3.493  1.0481 -0.4166 -0.2891
 7545TIP3   OH222598   4.455   6.541   2.092  0.3869  0.0359  0.0071
 7545TIP3    H122599   4.449   6.470   2.156  1.0651  0.8492  0.9994
 7545TIP3    H222600   4.473   6.619   2.144 -0.3740  0.9580 -1.0609
 7546TIP3   OH222601   5.214   4.377   2.720  0.2065  0.6732 -0.1494
 7546TIP3    H122602   5.279   4.326   2.672 -0.2287 -0.3818  0.3441
 7546TIP3    H222603   5.223   4.466   2.686 -0.5245 -0.1303 -2.6863
 7547TIP3   OH222604   2.254   0.325   0.435  0.9681  0.1604  0.5181
 7547TIP3    H122605   2.184   0.319   0.501  1.2089 -0.2084  0.7462
 7547TIP3    H222606   2.331   0.353   0.485  1.2505 -0.5127  0.4729
 7548TIP3   OH222607   7.144   2.992   5.452  0.2333  0.2367 -0.6077
 7548TIP3    H122608   7.154   3.073   5.400 -2.4883 -0.7988 -3.0003
 7548TIP3    H222609   7.050   2.984   5.467  0.5077 -2.0718  0.3189
 7549TIP3   OH222610   2.496   0.627   5.386  0.5551  0.0431  0.1088
 7549TIP3    H122611   2.512   0.547   5.337 -0.2704  0.4607 -0.8599
 7549TIP3    H222612   2.570   0.684   5.363  0.6191 -0.0802  0.0102
 7550TIP3   OH222613   5.042   5.447   4.432 -0.5613  0.3829  0.0347
 7550TIP3    H122614   5.078   5.360   4.417 -0.3302  0.1480  1.7114
 7550TIP3    H222615   5.113   5.496   4.475 -0.5324  1.5597 -1.2739
 7551TIP3   OH222616   5.383   4.616   1.861  0.1015  0.0177 -0.0269
 7551TIP3    H122617   5.389   4.618   1.766  1.2118 -0.4667  0.0127
 7551TIP3    H222618   5.474   4.625   1.891 -0.1575 -0.4929  0.9690
 7552TIP3   OH222619   2.444   6.747   1.865  0.0894  0.0388  0.2117
 7552TIP3    H122620   2.353   6.767   1.842  0.1949  0.2210 -0.0571
 7552TIP3    H222621   2.465   6.809   1.934  0.3431  0.7308 -0.4655
 7553TIP3   OH222622   1.726   4.729   0.408 -0.4299  0.6334 -0.6707
 7553TIP3    H122623   1.655   4.779   0.449 -0.0195  0.1327  0.7222
 7553TIP3    H222624   1.781   4.795   0.367  0.3333  1.4203  1.4933
 7554TIP3   OH222625   7.009   1.291   0.122 -0.5771 -0.4007  0.1732
 7554TIP3    H122626   6.998   1.196   0.115 -0.7952 -0.3455 -0.3261
 7554TIP3    H222627   6.985   1.324   0.035 -0.2295  0.0866  0.2561
 7555TIP3   OH222628   2.919   2.500   1.760 -0.1464 -0.7086  0.1251
 7555TIP3    H122629   2.915   2.516   1.855 -2.8409 -1.3461  0.2068
 7555TIP3    H222630   2.886   2.580   1.720 -0.4928 -0.9967 -0.1760
 7556TIP3   OH222631   6.346   3.943   2.214 -0.6728  0.2308  0.0006
 7556TIP3    H122632   6.301   3.864   2.244  0.4845 -0.3237  0.3403
 7556TIP3    H222633   6.283   3.986   2.155 -1.1679 -1.1455 -0.5116
 7557TIP3   OH222634   6.658   3.831   4.664  0.0841 -0.3510  0.3041
 7557TIP3    H122635   6.693   3.882   4.737 -0.9812 -0.5518  0.9805
 7557TIP3    H222636   6.579   3.791   4.699  0.0534 -1.1983 -0.6958
 7558TIP3   OH222637   3.790   3.658   4.205 -0.0085  0.1940 -0.4729
 7558TIP3    H122638   3.732   3.599   4.158 -1.3372  0.8347  0.2917
 7558TIP3    H222639   3.788   3.627   4.296  1.7105 -0.4108 -0.6028
 7559TIP3   OH222640   2.418   1.415   1.277  0.7156  0.3083 -0.4371
 7559TIP3    H122641   2.496   1.460   1.245 -0.9153  2.9002 -1.0874
 7559TIP3    H222642   2.365   1.401   1.199  0.2212 -0.8310  0.0782
 7560TIP3   OH222643   1.640   0.408   0.934 -0.2181 -0.7758 -0.5500
 7560TIP3    H122644   1.733   0.421   0.917 -0.4017  2.8197  0.4870
 7560TIP3    H222645   1.601   0.401   0.846  0.8575 -1.3033 -1.0134
 7561TIP3   OH222646   1.852   5.936   2.793  0.2997  0.1535  0.4296
 7561TIP3    H122647   1.893   5.882   2.725  0.0818 -0.4194  0.7410
 7561TIP3    H222648   1.917   5.938   2.864  0.3942  0.4833  0.3372
 7562TIP3   OH222649   2.542   6.463   2.167  0.3449 -0.2361  0.1198
 7562TIP3    H122650   2.447   6.450   2.178  0.4142 -1.5958 -0.6784
 7562TIP3    H222651   2.580   6.376   2.180  1.3888  0.1078 -0.4993
 7563TIP3   OH222652   2.403   2.907   0.080  0.0772 -0.4500  0.5065
 7563TIP3    H122653   2.317   2.892   0.039 -0.6745  1.0945  1.4120
 7563TIP3    H222654   2.451   2.959   0.016 -0.3349  0.1907  0.7038
 7564TIP3   OH222655   5.527   1.080   2.717  0.0849  0.4623 -0.0597
 7564TIP3    H122656   5.493   0.997   2.683  0.2022  0.5801 -0.4717
 7564TIP3    H222657   5.585   1.112   2.647  1.1729  0.1870  0.6871
 7565TIP3   OH222658   3.489   6.355   5.275 -0.2688 -0.0428  0.0175
 7565TIP3    H122659   3.474   6.410   5.351  1.0319  1.7073 -0.9198
 7565TIP3    H222660   3.539   6.280   5.308  0.9978  1.0953  0.7801
 7566TIP3   OH222661   1.402   1.212   2.070  0.3351 -0.3183  0.6021
 7566TIP3    H122662   1.322   1.240   2.115  1.6599  1.4397  2.0238
 7566TIP3    H222663   1.402   1.117   2.078 -0.5136 -0.2012  2.5708
 7567TIP3   OH222664   0.730   2.224   0.105  0.1293  1.0399 -0.6033
 7567TIP3    H122665   0.797   2.160   0.082 -0.3405 -0.0779  0.9901
 7567TIP3    H222666   0.647   2.175   0.100 -0.3688  1.8638 -0.6033
 7568TIP3   OH222667   7.081   5.012   3.702  0.2234  0.0342 -0.2907
 7568TIP3    H122668   7.058   5.102   3.726  0.0459  0.3024 -1.3958
 7568TIP3    H222669   7.026   4.958   3.758 -2.0800  0.6511 -1.8035
 7569TIP3   OH222670   3.308   3.878   1.952  0.2654  0.0242  0.5532
 7569TIP3    H122671   3.325   3.785   1.939 -0.4501 -0.3492  2.0458
 7569TIP3    H222672   3.213   3.885   1.955  0.2540  1.0774 -1.1829
 7570TIP3   OH222673   4.969   0.109   1.630 -0.0554 -0.2570  0.9049
 7570TIP3    H122674   4.903   0.057   1.675  1.6672 -0.3763  3.5402
 7570TIP3    H222675   5.028   0.045   1.590 -0.1112 -0.2190  0.7604
 7571TIP3   OH222676   5.763   1.241   5.691 -0.8562 -0.4927 -0.0514
 7571TIP3    H122677   5.810   1.324   5.699  0.8183 -1.2604 -1.3980
 7571TIP3    H222678   5.671   1.266   5.678 -0.1289  1.2646 -2.4896
 7572TIP3   OH222679   3.957   1.530   2.426  0.1550 -0.7005 -0.1534
 7572TIP3    H122680   3.918   1.528   2.514  0.4029  2.1848  0.1173
 7572TIP3    H222681   3.882   1.535   2.367 -0.0359 -3.2181 -0.2288
 7573TIP3   OH222682   0.489   6.497   0.719  0.5820  0.2484 -0.0363
 7573TIP3    H122683   0.497   6.409   0.684 -0.5176 -0.1445  0.6384
 7573TIP3    H222684   0.493   6.486   0.814  1.2948  1.0307  0.0327
 7574TIP3   OH222685   4.575   0.701   3.116 -0.3024 -0.2995 -0.6294
 7574TIP3    H122686   4.518   0.673   3.188  0.9617  0.3984  0.7008
 7574TIP3    H222687   4.639   0.630   3.108 -0.1967 -0.1837 -0.7986
 7575TIP3   OH222688   3.488   4.633   2.062 -0.4507  0.2963 -0.5331
 7575TIP3    H122689   3.501   4.722   2.028 -3.5945 -0.0799 -3.1725
 7575TIP3    H222690   3.572   4.590   2.051  1.3386  3.0162  1.3455
 7576TIP3   OH222691   1.619   3.870   1.107 -0.4566 -0.6699 -0.3023
 7576TIP3    H122692   1.676   3.797   1.084  0.9364  0.4813 -0.6596
 7576TIP3    H222693   1.614   3.923   1.028 -0.2203  0.3860  0.3680
 7577TIP3   OH222694   3.816   0.647   2.143 -0.6017 -0.0771 -0.0383
 7577TIP3    H122695   3.759   0.711   2.100  0.4252  2.0573  1.5936
 7577TIP3    H222696   3.893   0.642   2.087 -0.1289  1.1491  0.4711
 7578TIP3   OH222697   4.264   4.635   1.253 -0.0661  0.3081  0.5231
 7578TIP3    H122698   4.202   4.630   1.180  1.5991  1.4534 -1.0622
 7578TIP3    H222699   4.342   4.675   1.215  1.2728 -0.0828  2.6999
 7579TIP3   OH222700   0.099   0.781   5.043  0.4957  0.2430  0.0542
 7579TIP3    H122701   0.188   0.787   5.009  0.8695  1.5992  1.1534
 7579TIP3    H222702   0.096   0.697   5.089  0.2316 -1.2312 -2.4705
 7580TIP3   OH222703   1.692   4.549   2.963 -0.3715 -0.0552 -0.2132
 7580TIP3    H122704   1.628   4.555   3.034 -1.5803 -0.6965 -1.2129
 7580TIP3    H222705   1.676   4.625   2.909  1.2571  1.0144  0.7031
 7581TIP3   OH222706   1.999   3.832   1.881  0.5427 -0.1400  0.0487
 7581TIP3    H122707   1.964   3.904   1.935  1.0777 -0.3479  0.6926
 7581TIP3    H222708   2.014   3.761   1.944 -0.8134 -1.1364 -0.7118
 7582TIP3   OH222709   5.857   6.465   2.134  0.0210 -0.1297 -0.3720
 7582TIP3    H122710   5.780   6.503   2.176 -0.0958 -0.4317 -0.3088
 7582TIP3    H222711   5.845   6.484   2.041  0.3240  0.6188 -0.2678
 7583TIP3   OH222712   6.228   4.334   3.416 -0.1061 -0.6760  0.6717
 7583TIP3    H122713   6.271   4.282   3.348  0.8008  0.0113  0.7045
 7583TIP3    H222714   6.298   4.361   3.475 -0.3243  1.5281  0.0241
 7584TIP3   OH222715   5.601   2.177   1.588  0.0118 -0.4606  0.1657
 7584TIP3    H122716   5.615   2.261   1.632  0.4834 -0.7302  0.5310
 7584TIP3    H222717   5.683   2.129   1.599  0.1800 -0.5021 -1.0799
 7585TIP3   OH222718   0.642   6.497   5.079  0.2111  0.4426  0.4045
 7585TIP3    H122719   0.622   6.421   5.134  0.1703  1.1085  1.3312
 7585TIP3    H222720   0.580   6.491   5.006  1.3615 -1.3536 -0.4761
 7586TIP3   OH222721   5.612   1.332   3.552 -0.3782  0.0337 -0.1222
 7586TIP3    H122722   5.693   1.372   3.521  0.3549  0.2764  1.9368
 7586TIP3    H222723   5.566   1.404   3.596 -1.3779 -0.2890 -0.6014
 7587TIP3   OH222724   3.375   2.539   0.089 -0.1407  0.1407  0.1628
 7587TIP3    H122725   3.430   2.588   0.028 -1.0451  0.5195 -0.3757
 7587TIP3    H222726   3.352   2.602   0.157 -0.5827  0.2291 -0.0618
 7588TIP3   OH222727   2.555   5.195   2.963 -0.1178  0.2035 -0.0536
 7588TIP3    H122728   2.486   5.217   2.901  0.7399  2.2830 -0.3396
 7588TIP3    H222729   2.514   5.135   3.025 -1.8084  0.4078 -0.9364
 7589TIP3   OH222730   0.966   1.428   5.269  0.7011 -0.2524  0.3206
 7589TIP3    H122731   1.054   1.412   5.305  0.6198  0.3956  0.8218
 7589TIP3    H222732   0.914   1.453   5.345 -0.1882 -1.6416  0.1971
 7590TIP3   OH222733   0.950   3.781   2.313  0.2384 -0.1646 -0.3575
 7590TIP3    H122734   0.922   3.871   2.299 -0.6346 -0.3141  0.3829
 7590TIP3    H222735   0.952   3.770   2.408  1.6618 -0.5322 -0.3985
 7591TIP3   OH222736   5.824   1.523   3.431 -0.3885  0.4004 -0.5843
 7591TIP3    H122737   5.742   1.548   3.390 -0.4168  0.3497 -0.5592
 7591TIP3    H222738   5.883   1.505   3.358 -0.5645 -0.1012 -0.6105
 7592TIP3   OH222739   7.156   3.233   3.331 -0.0816  0.7777  0.6078
 7592TIP3    H122740   7.063   3.231   3.310 -0.7309  1.2923  3.1292
 7592TIP3    H222741   7.191   3.306   3.280 -0.5884 -0.5826 -1.8466
 7593TIP3   OH222742   0.657   6.810   2.576 -0.3511  0.1733 -0.0709
 7593TIP3    H122743   0.582   6.785   2.629  0.8906  0.8032  2.1017
 7593TIP3    H222744   0.637   6.777   2.488 -2.0980 -1.6922  0.9539
 7594TIP3   OH222745   6.175   2.983   0.637 -0.2834 -0.0470 -0.3171
 7594TIP3    H122746   6.215   2.936   0.564  1.4779 -0.9942  1.1755
 7594TIP3    H222747   6.207   2.939   0.715 -1.6427  1.2909  1.0785
 7595TIP3   OH222748   5.849   1.703   4.832  0.5191 -0.1543 -0.5520
 7595TIP3    H122749   5.889   1.632   4.882 -0.7198 -0.2814  0.3059
 7595TIP3    H222750   5.790   1.658   4.771  0.0249  0.1216 -0.2776
 7596TIP3   OH222751   6.964   4.693   1.876  0.1124 -0.1423  0.8825
 7596TIP3    H122752   6.985   4.760   1.942  0.7275  0.4302  0.1226
 7596TIP3    H222753   7.050   4.661   1.848 -0.1524 -0.4259  0.4080
 7597TIP3   OH222754   3.459   1.379   5.649  0.3134 -0.0550 -0.2268
 7597TIP3    H122755   3.531   1.368   5.712 -0.0550 -0.3475  0.1506
 7597TIP3    H222756   3.393   1.430   5.698  0.2613  0.2073 -0.5684
 7598TIP3   OH222757   0.754   0.416   1.396 -0.1880  0.2237  0.1665
 7598TIP3    H122758   0.848   0.414   1.415 -0.3340 -0.7438  0.8926
 7598TIP3    H222759   0.725   0.325   1.410 -1.0864  0.3372 -0.8395
 7599TIP3   OH222760   5.043   5.298   2.492  0.4022  0.3893  0.4308
 7599TIP3    H122761   4.957   5.272   2.526  0.3786 -0.6949 -0.3932
 7599TIP3    H222762   5.067   5.227   2.433  0.6816  1.9410 -1.3981
 7600TIP3   OH222763   0.693   2.841   3.778  0.2771  0.5842  0.2432
 7600TIP3    H122764   0.662   2.906   3.714  0.1524  0.9704  0.6878
 7600TIP3    H222765   0.774   2.808   3.740  0.1377  0.7118 -0.1803
 7601TIP3   OH222766   4.302   3.837   1.071  0.2698 -0.0780 -0.0487
 7601TIP3    H122767   4.392   3.834   1.039  0.0679  2.0148 -0.9657
 7601TIP3    H222768   4.250   3.804   0.998  0.2028 -0.5530  0.2041
 7602TIP3   OH222769   5.211   2.131   4.215  0.0476  0.3119  0.0732
 7602TIP3    H122770   5.181   2.153   4.304  0.0531  1.0449 -0.0943
 7602TIP3    H222771   5.185   2.040   4.202 -3.2448  1.2064 -0.5010
 7603TIP3   OH222772   0.836   2.604   4.256 -0.0801 -0.0838 -0.1164
 7603TIP3    H122773   0.788   2.617   4.338  2.2339  1.6449  1.0668
 7603TIP3    H222774   0.838   2.691   4.215  1.2377 -0.2951 -0.5574
 7604TIP3   OH222775   0.290   2.359   5.048  0.0755 -0.1201  0.4354
 7604TIP3    H122776   0.319   2.448   5.026  1.1276 -0.6869 -0.5933
 7604TIP3    H222777   0.363   2.322   5.098  0.0033 -0.6875  0.1277
 7605TIP3   OH222778   4.349   5.140   3.324  0.3231 -0.6222 -0.5177
 7605TIP3    H122779   4.421   5.078   3.318  1.0330  0.1502 -0.2319
 7605TIP3    H222780   4.383   5.220   3.284  0.2891  0.3189  1.2407
 7606TIP3   OH222781   0.980   4.862   4.261 -0.1925  0.3222  0.5643
 7606TIP3    H122782   0.944   4.829   4.343  1.4427 -1.1778  0.7214
 7606TIP3    H222783   0.926   4.820   4.193 -0.5814  0.3834  0.8286
 7607TIP3   OH222784   1.773   0.483   1.163 -0.0813 -0.5066 -0.5462
 7607TIP3    H122785   1.738   0.544   1.228 -0.4401 -0.1213 -1.0963
 7607TIP3    H222786   1.706   0.479   1.095 -0.3886 -2.0747 -0.1738
 7608TIP3   OH222787   6.844   3.763   0.776  0.3766  0.1944  0.3732
 7608TIP3    H122788   6.770   3.707   0.753  0.5473  0.3853 -0.7008
 7608TIP3    H222789   6.920   3.719   0.738  0.8364 -0.0290  1.5128
 7609TIP3   OH222790   4.477   2.034   3.425 -0.3782 -0.1965  0.4232
 7609TIP3    H122791   4.413   2.102   3.404  2.0690  1.7421 -1.4111
 7609TIP3    H222792   4.512   2.059   3.510 -0.5853 -0.0358  0.4626
 7610TIP3   OH222793   3.286   1.493   2.402 -0.2504 -0.1348 -0.7083
 7610TIP3    H122794   3.196   1.493   2.370 -0.4527 -1.0671 -0.1767
 7610TIP3    H222795   3.296   1.408   2.446  0.9577 -0.1455 -0.9653
 7611TIP3   OH222796   6.867   2.656   2.555  0.2141  0.1704  0.2370
 7611TIP3    H122797   6.947   2.691   2.593  0.9846 -0.7002 -0.5433
 7611TIP3    H222798   6.843   2.582   2.612  0.0736  0.2987  0.3468
 7612TIP3   OH222799   6.568   0.609   2.488 -1.1153 -0.1944  0.0017
 7612TIP3    H122800   6.514   0.650   2.556  1.0133  1.2522  0.9594
 7612TIP3    H222801   6.658   0.625   2.516 -0.1479 -1.2879 -2.1846
 7613TIP3   OH222802   1.406   2.881   3.707  0.1720 -0.2106 -0.6869
 7613TIP3    H122803   1.317   2.848   3.718  0.4670 -0.6832  0.3924
 7613TIP3    H222804   1.462   2.805   3.719  0.8276  0.4886  1.0459
 7614TIP3   OH222805   1.321   5.436   0.579 -0.2602 -0.2494  0.0454
 7614TIP3    H122806   1.344   5.529   0.585  0.2036 -0.2246 -1.6990
 7614TIP3    H222807   1.405   5.390   0.582 -0.3960 -0.5321 -0.3168
 7615TIP3   OH222808   5.595   5.408   5.244  0.3890 -0.1274 -0.9014
 7615TIP3    H122809   5.639   5.339   5.294 -2.0725  0.4163  2.3902
 7615TIP3    H222810   5.551   5.363   5.172  1.1147 -1.5636 -0.4657
 7616TIP3   OH222811   6.325   2.390   4.203  0.3789 -0.2187 -0.2060
 7616TIP3    H122812   6.315   2.442   4.284  1.9167 -1.5734  0.9110
 7616TIP3    H222813   6.366   2.450   4.141 -3.0437  1.6553 -0.9450
 7617TIP3   OH222814   1.644   0.216   4.178 -0.6409 -0.7187 -0.2217
 7617TIP3    H122815   1.594   0.258   4.108  0.7940 -0.1394 -0.9341
 7617TIP3    H222816   1.639   0.123   4.159 -2.5740 -0.8174  0.5137
 7618TIP3   OH222817   2.688   2.130   3.912  0.3706 -0.4797 -0.4716
 7618TIP3    H122818   2.724   2.180   3.838  0.4468 -2.7647 -2.0981
 7618TIP3    H222819   2.593   2.136   3.900  0.3821 -0.8226 -0.7700
 7619TIP3   OH222820   0.290   3.054   0.730 -0.2788  0.5909  0.1220
 7619TIP3    H122821   0.385   3.043   0.731 -0.2851  0.3320  2.2900
 7619TIP3    H222822   0.277   3.149   0.737 -0.1742  0.5830  0.4350
 7620TIP3   OH222823   2.077   4.690   2.211 -0.1450 -0.2174 -0.6761
 7620TIP3    H122824   2.127   4.663   2.134  0.4627  0.1786 -0.4267
 7620TIP3    H222825   1.990   4.651   2.198  0.2723 -1.0603 -1.0320
 7621TIP3   OH222826   2.325   6.309   3.847 -0.7889 -0.2053  0.1788
 7621TIP3    H122827   2.271   6.386   3.826 -1.4368 -0.4723  0.8094
 7621TIP3    H222828   2.375   6.293   3.767 -1.0347  0.5536 -0.1432
 7622TIP3   OH222829   3.580   2.432   2.396  0.7118 -0.2819  0.5685
 7622TIP3    H122830   3.501   2.416   2.345  0.0473 -0.5359  1.6516
 7622TIP3    H222831   3.565   2.516   2.439  0.7768 -0.6062  1.2370
 7623TIP3   OH222832   5.843   6.761   2.970  0.1296 -0.4993  0.2289
 7623TIP3    H122833   5.841   6.667   2.991  0.4346 -0.6819 -0.5282
 7623TIP3    H222834   5.931   6.789   2.995 -0.2071 -0.2375  1.1589
 7624TIP3   OH222835   1.492   1.125   0.343 -0.0117 -0.3468  0.3730
 7624TIP3    H122836   1.467   1.134   0.252  0.4664  1.1173  0.3591
 7624TIP3    H222837   1.411   1.103   0.389 -0.7115  1.0930 -0.1147
 7625TIP3   OH222838   5.954   3.766   0.162 -0.7601 -0.3929  0.5522
 7625TIP3    H122839   6.044   3.799   0.159 -0.7996 -0.1806 -3.1249
 7625TIP3    H222840   5.956   3.696   0.227  2.0545 -0.3638  0.6111
 7626TIP3   OH222841   2.442   1.618   5.675  0.2019  0.0508 -0.1856
 7626TIP3    H122842   2.505   1.547   5.689  2.3673  1.7171 -0.9278
 7626TIP3    H222843   2.393   1.591   5.597 -1.0432 -1.9026  1.1697
 7627TIP3   OH222844   3.051   6.089   1.102  0.1926 -0.6886 -0.5902
 7627TIP3    H122845   3.056   6.146   1.026 -2.4809 -0.0942 -0.4053
 7627TIP3    H222846   3.015   6.007   1.069 -3.3630  0.3611  0.2607
 7628TIP3   OH222847   2.547   6.688   5.640  0.0512 -0.2317  0.0985
 7628TIP3    H122848   2.583   6.777   5.649  0.3407 -0.1871 -1.2233
 7628TIP3    H222849   2.455   6.697   5.664 -0.5238  0.9719 -2.1609
 7629TIP3   OH222850   5.743   0.681   5.671  0.5632  0.0510 -0.2454
 7629TIP3    H122851   5.661   0.728   5.659 -0.4772 -1.0005  2.1334
 7629TIP3    H222852   5.716   0.590   5.686  2.1169 -0.2454  1.0084
 7630TIP3   OH222853   3.741   3.067   1.617 -0.6263 -0.1730 -0.4097
 7630TIP3    H122854   3.665   3.125   1.621 -2.1499 -2.0754 -0.5629
 7630TIP3    H222855   3.711   2.990   1.569  1.6820 -0.6324 -1.2763
 7631TIP3   OH222856   2.687   2.211   5.897 -0.6665 -0.1379 -0.2711
 7631TIP3    H122857   2.606   2.162   5.883  0.0547 -1.8432  1.0885
 7631TIP3    H222858   2.725   2.222   5.810 -1.3434 -1.1868 -0.7068
 7632TIP3   OH222859   1.095   3.299   1.604 -0.2265  0.0422  0.1767
 7632TIP3    H122860   1.082   3.363   1.534  0.5645  1.5475  1.3519
 7632TIP3    H222861   1.182   3.263   1.588  0.2027  0.8139  0.6658
 7633TIP3   OH222862   5.540   1.766   4.435 -0.7494  0.2070  0.3009
 7633TIP3    H122863   5.506   1.798   4.519 -0.3373  2.2038 -0.2519
 7633TIP3    H222864   5.582   1.683   4.456 -2.5216 -0.3943  1.6863
 7634TIP3   OH222865   0.914   3.621   1.035 -0.0686 -0.5247 -0.0975
 7634TIP3    H122866   0.847   3.678   0.996  0.2042  0.0853  0.3166
 7634TIP3    H222867   0.994   3.672   1.032 -0.0895 -0.3354  1.5053
 7635TIP3   OH222868   6.296   0.128   1.982  0.3440  0.1317 -0.3467
 7635TIP3    H122869   6.269   0.037   1.975 -1.5291  0.6600 -0.4020
 7635TIP3    H222870   6.290   0.148   2.076  0.8396  0.1881 -0.3217
 7636TIP3   OH222871   4.012   3.417   4.439  0.0876 -0.2914  0.0267
 7636TIP3    H122872   4.092   3.444   4.485  0.8258  0.3731 -1.5808
 7636TIP3    H222873   4.039   3.406   4.348 -1.1973 -2.1719 -0.1885
 7637TIP3   OH222874   5.919   2.448   5.532  0.0428 -0.1683  0.5620
 7637TIP3    H122875   5.959   2.520   5.483  0.3173  0.5503  1.8071
 7637TIP3    H222876   5.964   2.449   5.616 -0.8224 -1.0109  1.0455
 7638TIP3   OH222877   0.836   1.993   3.569 -0.0172  0.1260  0.1041
 7638TIP3    H122878   0.863   1.919   3.623 -2.3469 -1.0510 -0.2254
 7638TIP3    H222879   0.838   2.068   3.628  0.0183 -0.6589  1.1303
 7639TIP3   OH222880   3.347   2.952   5.521  0.0901 -0.3866  0.1760
 7639TIP3    H122881   3.355   3.040   5.559 -1.9593 -0.3330  0.5884
 7639TIP3    H222882   3.428   2.908   5.546  0.7968  1.1087  0.6777
 7640TIP3   OH222883   5.349   3.783   5.699  0.1697 -0.2948  0.2963
 7640TIP3    H122884   5.310   3.755   5.617  0.4823 -1.2190  0.4551
 7640TIP3    H222885   5.399   3.707   5.729 -0.7860 -0.3429  1.8614
 7641TIP3   OH222886   2.672   0.046   2.388 -0.7145 -0.1458 -0.6965
 7641TIP3    H122887   2.698   0.108   2.319  0.5134  0.0700 -0.0767
 7641TIP3    H222888   2.591   0.007   2.356 -0.7120  0.6905 -1.7945
 7642TIP3   OH222889   0.398   4.143   2.561  0.1233 -0.1603 -0.0868
 7642TIP3    H122890   0.309   4.165   2.534 -0.1226  1.0570  1.5517
 7642TIP3    H222891   0.387   4.067   2.619  0.0818  0.2672  0.4751
 7643TIP3   OH222892   3.011   3.597   0.295  0.8346  0.4536  0.1328
 7643TIP3    H122893   2.991   3.518   0.345 -0.8386  0.4292 -0.5182
 7643TIP3    H222894   3.014   3.666   0.361 -1.3318  0.4168  0.3400
 7644TIP3   OH222895   1.642   0.393   3.257  0.1562 -0.1132  0.5353
 7644TIP3    H122896   1.607   0.321   3.309  1.0655  0.2193  1.6429
 7644TIP3    H222897   1.731   0.405   3.290 -0.6806  3.0341  1.9966
 7645TIP3   OH222898   5.006   4.913   5.208  1.0957  0.4390 -0.4102
 7645TIP3    H122899   4.916   4.939   5.190  0.5814  0.0539  1.4160
 7645TIP3    H222900   5.058   4.992   5.189  0.2447  1.0168 -0.3875
 7646TIP3   OH222901   2.528   2.743   2.282 -0.1983  0.1834 -0.0883
 7646TIP3    H122902   2.580   2.819   2.307  2.6152 -1.2160 -1.2701
 7646TIP3    H222903   2.474   2.773   2.209  0.4911  1.1703 -0.2078
 7647TIP3   OH222904   5.769   0.208   5.886  0.2339 -0.0090 -0.5370
 7647TIP3    H122905   5.861   0.204   5.860 -0.0617 -1.2095 -1.5346
 7647TIP3    H222906   5.740   0.117   5.883 -0.4914  0.0768  1.7474
 7648TIP3   OH222907   2.390   0.686   5.629 -0.2329  0.0374  0.4525
 7648TIP3    H122908   2.411   0.650   5.542 -1.4821  1.3812 -0.4543
 7648TIP3    H222909   2.375   0.609   5.684 -0.3457 -0.8419 -0.7617
 7649TIP3   OH222910   6.534   1.523   2.474  0.3593  0.3386  0.4131
 7649TIP3    H122911   6.579   1.451   2.431  0.7468  1.5757 -1.3714
 7649TIP3    H222912   6.445   1.522   2.438 -0.0591 -0.0507  1.4092
 7650TIP3   OH222913   1.871   6.763   4.922  0.5940  0.3323  0.3364
 7650TIP3    H122914   1.964   6.768   4.945  0.2700  0.5112  1.7054
 7650TIP3    H222915   1.833   6.709   4.991 -0.6894  2.0569  1.0235
 7651TIP3   OH222916   5.608   4.258   4.205 -0.2959  0.4346 -0.5749
 7651TIP3    H122917   5.627   4.291   4.293  0.2854  1.7389 -1.1731
 7651TIP3    H222918   5.604   4.163   4.216  1.6534  0.4392  0.5187
 7652TIP3   OH222919   6.954   4.962   0.021  0.4000 -0.0763  0.1544
 7652TIP3    H122920   6.925   5.013   0.097 -0.9505  0.3735 -0.6212
 7652TIP3    H222921   6.987   5.026  -0.041  1.3891 -0.4306  0.3034
 7653TIP3   OH222922   0.268   6.543   4.139  0.6282 -0.3953 -0.1955
 7653TIP3    H122923   0.203   6.608   4.166 -1.3536 -1.8425 -1.1707
 7653TIP3    H222924   0.280   6.488   4.216  2.1465  0.9266  0.5631
 7654TIP3   OH222925   6.946   1.620   5.367 -0.1230  0.0320 -0.5184
 7654TIP3    H122926   6.935   1.607   5.273  1.8357  0.0871 -0.7886
 7654TIP3    H222927   6.942   1.715   5.378 -3.0311 -0.0249 -0.1024
 7655TIP3   OH222928   6.123   5.316   3.372  0.0024  0.3423  0.2213
 7655TIP3    H122929   6.186   5.282   3.435  0.0111 -0.7137 -0.3421
 7655TIP3    H222930   6.111   5.245   3.309 -1.0214  0.8807 -0.2166
 7656TIP3   OH222931   3.351   6.410   4.123 -0.2283  0.0462  0.1658
 7656TIP3    H122932   3.315   6.494   4.153  1.8777  0.1738  2.7029
 7656TIP3    H222933   3.435   6.403   4.168 -0.9226 -4.0500  1.2245
 7657TIP3   OH222934   3.821   1.417   2.001 -0.1457  0.1140  0.4568
 7657TIP3    H122935   3.905   1.414   2.046  0.1660  2.5449  0.1414
 7657TIP3    H222936   3.763   1.463   2.061 -0.4314  1.0510 -0.5072
 7658TIP3   OH222937   3.666   3.013   5.726  0.2500 -0.6714 -0.5216
 7658TIP3    H122938   3.737   2.983   5.784 -0.5127  0.7839  1.2580
 7658TIP3    H222939   3.595   2.951   5.742  0.3570 -0.8269 -0.6367
 7659TIP3   OH222940   4.000   2.774   0.292  0.4243  0.1876 -0.0179
 7659TIP3    H122941   4.045   2.700   0.251  0.5044 -0.7818  1.7245
 7659TIP3    H222942   3.946   2.811   0.222  0.0396 -1.7773 -0.8243
 7660TIP3   OH222943   3.109   3.607   5.482 -0.4055 -0.0978  0.6893
 7660TIP3    H122944   3.095   3.617   5.388  0.9846  1.8209  0.6263
 7660TIP3    H222945   3.108   3.512   5.496  0.8830 -0.5305 -1.5428
 7661TIP3   OH222946   0.581   5.115   3.219 -0.1790  0.3034  0.2732
 7661TIP3    H122947   0.625   5.168   3.152 -1.3604  1.6265  0.5116
 7661TIP3    H222948   0.488   5.128   3.202 -0.4895 -0.6891  1.1525
 7662TIP3   OH222949   4.769   2.765   5.079  0.0993 -0.5486 -0.5205
 7662TIP3    H122950   4.689   2.799   5.117 -1.5718 -3.0647 -1.4935
 7662TIP3    H222951   4.832   2.763   5.152 -1.6164 -1.0992  1.0145
 7663TIP3   OH222952   4.472   2.506   0.219 -0.4637  0.6366 -0.7045
 7663TIP3    H122953   4.502   2.460   0.297 -0.5000 -0.1099 -1.1283
 7663TIP3    H222954   4.454   2.595   0.249  0.8882  0.7513 -0.1526
 7664TIP3   OH222955   1.629   3.969   5.210  0.1561 -0.0453  0.2079
 7664TIP3    H122956   1.600   4.000   5.124 -0.5165 -1.9655 -0.2968
 7664TIP3    H222957   1.658   4.049   5.255  1.3919  0.9101 -2.0858
 7665TIP3   OH222958   0.877   0.530   1.862  0.0185 -0.0544 -0.6137
 7665TIP3    H122959   0.830   0.601   1.818 -0.5073 -0.7859 -1.2851
 7665TIP3    H222960   0.867   0.455   1.802  0.5555 -0.6858  0.0715
 7666TIP3   OH222961   7.125   4.769   5.030  0.3656 -0.7303 -0.6076
 7666TIP3    H122962   7.120   4.823   4.951  0.7861  0.2980  0.0564
 7666TIP3    H222963   7.046   4.714   5.027 -0.3567  0.3049 -1.0078
 7667TIP3   OH222964   6.794   0.802   3.089  0.1886 -0.1150  0.1876
 7667TIP3    H122965   6.775   0.876   3.147 -2.1058 -0.0021 -0.6108
 7667TIP3    H222966   6.805   0.842   3.003  0.1533 -0.6068 -0.0455
 7668TIP3   OH222967   6.790   1.973   4.724  0.0558  0.0835 -0.0473
 7668TIP3    H122968   6.885   1.977   4.720  0.0279  0.0287 -1.2115
 7668TIP3    H222969   6.763   2.064   4.735  0.2383  0.1383 -0.0496
 7669TIP3   OH222970   3.418   2.689   1.715 -0.1753 -0.4659  0.1501
 7669TIP3    H122971   3.335   2.680   1.761 -0.1873 -1.1838  0.0003
 7669TIP3    H222972   3.464   2.759   1.762 -1.3199  0.7549 -0.4586
 7670TIP3   OH222973   0.487   1.053   1.642  0.5865  0.6087 -0.3632
 7670TIP3    H122974   0.462   0.976   1.591  0.1891  0.8258 -0.5020
 7670TIP3    H222975   0.529   1.111   1.578  1.0246  0.4443 -0.2275
 7671TIP3   OH222976   2.489   1.681   3.989  0.5237 -0.3460  0.0105
 7671TIP3    H122977   2.534   1.720   3.914 -1.2969  1.3093 -0.2869
 7671TIP3    H222978   2.504   1.744   4.060  0.8564 -1.0921  0.6112
 7672TIP3   OH222979   0.248   5.847   5.661 -0.1739  0.2714  0.2949
 7672TIP3    H122980   0.327   5.800   5.635 -0.3923  0.3657 -0.5771
 7672TIP3    H222981   0.213   5.881   5.578 -1.9553 -1.0546  0.4610
 7673TIP3   OH222982   5.281   5.095   2.106  0.0267  0.0381 -0.0576
 7673TIP3    H122983   5.251   5.111   2.196 -0.4213  2.6703 -0.5977
 7673TIP3    H222984   5.202   5.071   2.059  0.5018 -2.9481  0.4862
 7674TIP3   OH222985   4.568   6.134   4.531  0.0094  0.5448 -0.1437
 7674TIP3    H122986   4.489   6.086   4.505 -0.6374  0.5603  1.6490
 7674TIP3    H222987   4.641   6.077   4.504 -0.6337  0.2126 -1.2106
 7675TIP3   OH222988   3.250   1.762   1.460  0.3662 -0.2459  0.1734
 7675TIP3    H122989   3.207   1.703   1.521  0.2164  0.0085  0.3168
 7675TIP3    H222990   3.270   1.840   1.512  0.3366 -0.0706 -0.0744
 7676TIP3   OH222991   5.100   0.755   1.798 -0.0043 -0.1758 -0.3633
 7676TIP3    H122992   5.037   0.690   1.768 -0.4248  1.2165 -2.6951
 7676TIP3    H222993   5.177   0.704   1.822 -1.5238 -1.7984  1.4143
 7677TIP3   OH222994   0.119   3.953   2.785 -0.0913 -0.0550 -0.0373
 7677TIP3    H122995   0.029   3.960   2.754 -1.1156 -2.0891  2.1885
 7677TIP3    H222996   0.157   3.881   2.735 -0.1896 -0.1884  0.0808
 7678TIP3   OH222997   2.979   2.214   2.996 -0.2621 -0.2935 -0.2686
 7678TIP3    H122998   2.894   2.256   3.010 -0.3353 -0.5808  0.1589
 7678TIP3    H222999   3.043   2.274   3.036 -0.1274  0.5108 -1.6181
 7679TIP3   OH223000   3.022   0.240   2.108  0.0318 -0.1521  0.0957
 7679TIP3    H123001   3.014   0.159   2.159  1.3505 -0.4535 -0.1228
 7679TIP3    H223002   3.009   0.310   2.172  0.2687 -0.5354  0.5725
 7680TIP3   OH223003   0.225   3.181   1.799  0.1565 -0.1957  0.2096
 7680TIP3    H123004   0.310   3.209   1.834  0.1636  1.0647 -0.7250
 7680TIP3    H223005   0.204   3.247   1.733 -0.9885 -1.1563 -0.4245
 7681TIP3   OH223006   4.270   2.719   1.037 -0.6668  0.0828 -0.1513
 7681TIP3    H123007   4.259   2.810   1.012 -4.1184  0.6386  2.4616
 7681TIP3    H223008   4.342   2.719   1.100  1.9806  0.1730 -2.9919
 7682TIP3   OH223009   4.115   0.311   2.359 -0.4100 -0.4065  0.3053
 7682TIP3    H123010   4.083   0.401   2.350 -2.0453 -0.8284  1.4434
 7682TIP3    H223011   4.074   0.279   2.440  0.3156 -2.0989  0.0433
 7683TIP3   OH223012   3.932   6.290   1.453  0.5897 -0.6333  0.1536
 7683TIP3    H123013   3.874   6.365   1.463  0.6592 -0.5955  0.2770
 7683TIP3    H223014   3.903   6.228   1.521 -0.0531 -1.0962 -0.5317
 7684TIP3   OH223015   3.706   3.715   2.018 -0.3811  0.1945  0.0545
 7684TIP3    H123016   3.795   3.749   2.010 -0.2113 -0.3518 -0.5240
 7684TIP3    H223017   3.710   3.628   1.977 -0.9819 -0.1909  0.7946
 7685TIP3   OH223018   7.080   4.199   1.987  0.2280  0.7602  0.3024
 7685TIP3    H123019   7.080   4.145   1.907 -0.9915 -0.3456  1.0064
 7685TIP3    H223020   7.126   4.278   1.962 -1.0612  0.9148 -1.8521
 7686TIP3   OH223021   3.407   0.075   5.839  0.1818  0.8043  0.0786
 7686TIP3    H123022   3.467   0.144   5.868  0.4298  0.3369  0.6913
 7686TIP3    H223023   3.380   0.103   5.752  1.7280  0.7678 -0.4549
 7687TIP3   OH223024   6.344   5.819   2.021  0.5052 -0.3329 -0.2753
 7687TIP3    H123025   6.283   5.852   2.087  0.1528 -2.0756  0.3194
 7687TIP3    H223026   6.290   5.808   1.942  0.5092  0.0038 -0.3265
 7688TIP3   OH223027   3.950   6.707   5.133 -0.0159  0.2496  0.0041
 7688TIP3    H123028   3.966   6.748   5.218 -0.9890 -0.0423  0.3463
 7688TIP3    H223029   4.025   6.733   5.079 -0.6966  2.6791  0.1221
 7689TIP3   OH223030   0.272   4.478   2.172 -0.3916  0.2864 -0.2456
 7689TIP3    H123031   0.238   4.565   2.148 -1.7074  0.1837  1.1158
 7689TIP3    H223032   0.194   4.425   2.186  0.3672 -0.6273  0.6506
 7690TIP3   OH223033   6.597   0.612   0.459  0.4457  0.7542  0.1774
 7690TIP3    H123034   6.523   0.562   0.423  1.8076  0.5754 -2.6179
 7690TIP3    H223035   6.570   0.632   0.548 -1.1923 -2.9379  0.7180
 7691TIP3   OH223036   2.956   3.786   5.800 -0.1261 -1.0215 -0.2608
 7691TIP3    H123037   2.880   3.804   5.745 -0.5724 -3.3545 -0.5033
 7691TIP3    H223038   3.030   3.816   5.749 -0.7594 -0.2768 -0.7665
 7692TIP3   OH223039   4.393   3.062   4.246  0.2442  0.2840  0.1430
 7692TIP3    H123040   4.399   3.152   4.214  0.8105 -0.0011 -0.5562
 7692TIP3    H223041   4.436   3.065   4.332 -0.3783  0.8260  0.4489
 7693TIP3   OH223042   3.612   1.357   4.627 -0.0454  0.1919  0.1356
 7693TIP3    H123043   3.636   1.265   4.623 -1.5819 -0.3019  1.5023
 7693TIP3    H223044   3.621   1.381   4.719 -1.9018  0.7272  0.2287
 7694TIP3   OH223045   2.547   4.498   0.431 -0.5046  0.1040 -0.7951
 7694TIP3    H123046   2.627   4.456   0.463 -1.2754 -0.8887 -0.1118
 7694TIP3    H223047   2.546   4.477   0.337 -0.3172 -0.4790 -0.6726
 7695TIP3   OH223048   1.943   0.500   4.797  0.0163 -0.1007  0.4617
 7695TIP3    H123049   1.847   0.499   4.794  0.0290  0.0012 -1.2526
 7695TIP3    H223050   1.969   0.530   4.710  1.6197 -0.2361  0.8619
 7696TIP3   OH223051   4.258   2.681   1.567  0.2188  0.0817 -0.6992
 7696TIP3    H123052   4.243   2.683   1.661 -0.0306 -1.7127 -0.6600
 7696TIP3    H223053   4.218   2.761   1.534 -1.4285 -0.1954  0.5143
 7697TIP3   OH223054   0.683   6.637   0.992 -0.0282  0.4472  0.2087
 7697TIP3    H123055   0.672   6.666   0.901 -0.6105  0.8439  0.3991
 7697TIP3    H223056   0.593   6.623   1.023  0.0112  2.5615  1.4464
 7698TIP3   OH223057   3.928   3.794   1.676  0.5226  0.0742  0.0574
 7698TIP3    H123058   3.943   3.775   1.583 -1.8660  1.7298 -0.7644
 7698TIP3    H223059   3.915   3.708   1.716  1.7914 -0.6853 -1.0770
 7699TIP3   OH223060   2.118   1.143   4.869 -0.5169  0.0940 -0.0460
 7699TIP3    H123061   2.096   1.118   4.779 -1.2334 -1.2037  0.4527
 7699TIP3    H223062   2.044   1.196   4.898 -1.8316 -2.0259  0.7368
 7700TIP3   OH223063   0.812   3.023   2.116 -0.3776 -0.0703  0.0800
 7700TIP3    H123064   0.791   2.962   2.045  3.3768 -1.7841  0.1779
 7700TIP3    H223065   0.898   3.058   2.092 -0.3320  1.5851  2.3787
 7701TIP3   OH223066   5.759   6.765   3.263  0.0271  0.0215 -0.1675
 7701TIP3    H123067   5.680   6.731   3.221 -0.6319 -1.7094  2.2038
 7701TIP3    H223068   5.728   6.806   3.343  1.3551  1.6866 -0.4438
 7702TIP3   OH223069   3.251   0.414   2.963  0.1943  0.0549 -0.0721
 7702TIP3    H123070   3.192   0.401   2.889  0.5079  0.1101 -0.3327
 7702TIP3    H223071   3.322   0.352   2.949  0.7107  0.6824 -0.2948
 7703TIP3   OH223072   1.407   2.906   1.753 -0.0257  0.2569  0.1500
 7703TIP3    H123073   1.313   2.916   1.740 -0.1430  1.6542  1.6767
 7703TIP3    H223074   1.417   2.821   1.795 -0.4433 -0.4698 -1.1601
 7704TIP3   OH223075   0.656   0.382   4.753  0.2474  0.1486 -0.4470
 7704TIP3    H123076   0.682   0.414   4.666 -1.2663  1.0656 -0.5900
 7704TIP3    H223077   0.583   0.323   4.736 -0.5917  0.9585  0.2397
 7705TIP3   OH223078   1.254   4.483   4.368 -0.2544 -0.1602  0.2858
 7705TIP3    H123079   1.251   4.578   4.355  0.0276  0.0873  1.8708
 7705TIP3    H223080   1.289   4.449   4.286  1.7807  1.3066  0.4799
 7706TIP3   OH223081   0.134   4.163   2.538 -0.6431  0.7954  0.4357
 7706TIP3    H123082   0.127   4.138   2.445  2.7581 -2.0015  0.7081
 7706TIP3    H223083   0.078   4.100   2.583  0.9344 -0.6424  0.4802
 7707TIP3   OH223084   6.959   3.360   2.438  0.3038  0.1628 -0.1718
 7707TIP3    H123085   6.939   3.398   2.524  1.2334 -0.3993  0.3076
 7707TIP3    H223086   6.991   3.434   2.386  0.2450  0.4068  0.1343
 7708TIP3   OH223087   5.737   3.943   5.421  0.2344 -0.3482  0.3409
 7708TIP3    H123088   5.815   3.891   5.401  0.6617  0.0399  0.9909
 7708TIP3    H223089   5.734   3.947   5.516 -1.1321 -1.1819  0.3678
 7709TIP3   OH223090   4.870   0.356   1.529 -0.2968 -0.1646  0.3318
 7709TIP3    H123091   4.895   0.267   1.557 -0.8742  0.4706  3.1555
 7709TIP3    H223092   4.951   0.393   1.494  0.7712 -0.7915  2.0030
 7710TIP3   OH223093   2.577   1.837   3.321 -0.5494 -0.8362  0.1709
 7710TIP3    H123094   2.530   1.813   3.401 -0.4211 -1.9483 -0.0609
 7710TIP3    H223095   2.641   1.766   3.310  0.0248 -0.2340 -0.4432
 7711TIP3   OH223096   0.153   0.374   3.087 -0.0287 -0.5419 -0.0134
 7711TIP3    H123097   0.213   0.436   3.044 -1.5131 -0.5395 -2.2926
 7711TIP3    H223098   0.204   0.294   3.096  0.5222 -0.3881 -1.4170
 7712TIP3   OH223099   6.448   5.026   0.486  0.0197 -0.2322  0.2411
 7712TIP3    H123100   6.499   5.054   0.410  0.8827  0.0011  0.8801
 7712TIP3    H223101   6.429   4.934   0.470 -0.6979  0.0651 -0.7249
 7713TIP3   OH223102   1.142   5.264   5.672  0.0469 -0.0567 -0.1352
 7713TIP3    H123103   1.118   5.356   5.667  0.2050  0.0300  0.6208
 7713TIP3    H223104   1.136   5.242   5.765  0.8701 -0.5834 -0.1982
 7714TIP3   OH223105   2.492   5.044   1.556 -0.2672  0.0749 -0.3070
 7714TIP3    H123106   2.545   5.004   1.487 -2.4825 -1.4828 -1.2571
 7714TIP3    H223107   2.549   5.046   1.633  1.6534  0.0376 -1.6551
 7715TIP3   OH223108   6.100   3.146   0.263 -0.2251 -0.2933 -0.2806
 7715TIP3    H123109   6.184   3.137   0.217 -0.1793 -0.8496 -0.0847
 7715TIP3    H223110   6.122   3.192   0.344 -0.2587  0.4107 -0.6616
 7716TIP3   OH223111   5.695   6.516   2.470 -0.7534 -0.3141 -0.5344
 7716TIP3    H123112   5.635   6.498   2.543 -0.3825  0.7086  0.0443
 7716TIP3    H223113   5.640   6.555   2.403 -0.5632  1.9578  0.5321
 7717TIP3   OH223114   0.066   2.867   4.268  0.0315 -0.0544 -0.1396
 7717TIP3    H123115   0.058   2.794   4.330  0.3118 -0.6092 -0.7425
 7717TIP3    H223116   0.161   2.880   4.259 -0.0109  0.1207 -0.3372
 7718TIP3   OH223117   2.848   5.667   2.546  0.1545  0.3430 -0.0664
 7718TIP3    H123118   2.906   5.698   2.477 -0.2668 -0.6706 -0.9010
 7718TIP3    H223119   2.761   5.669   2.506 -0.6872  3.2681  1.6242
 7719TIP3   OH223120   7.173   0.831   2.103  0.2253  0.3814  0.0419
 7719TIP3    H123121   7.176   0.921   2.137 -0.1776 -0.2552  1.9140
 7719TIP3    H223122   7.117   0.784   2.165  1.3998 -1.4348 -0.2021
 7720TIP3   OH223123   6.278   3.656   2.258  0.6958 -0.6658 -0.7247
 7720TIP3    H123124   6.305   3.649   2.349  0.0763 -0.8582 -0.5523
 7720TIP3    H223125   6.197   3.605   2.253  0.9285 -0.9716 -1.4635
 7721TIP3   OH223126   0.567   5.922   3.995  0.7937 -0.1317 -0.6945
 7721TIP3    H123127   0.564   5.982   4.069  1.2368  0.7805 -1.4045
 7721TIP3    H223128   0.545   5.837   4.033 -1.9827  0.7872 -0.0403
 7722TIP3   OH223129   0.550   4.548   1.938  0.3979  0.1879  0.6127
 7722TIP3    H123130   0.603   4.515   2.010  0.8888 -0.3579  0.0194
 7722TIP3    H223131   0.480   4.484   1.929  1.6578 -1.0747 -0.8954
 7723TIP3   OH223132   2.266   5.385   1.807  0.4140  0.7920  0.1470
 7723TIP3    H123133   2.172   5.371   1.820  0.2813 -0.5003 -1.7477
 7723TIP3    H223134   2.307   5.318   1.862  0.0346 -1.2906 -1.9423
 7724TIP3   OH223135   1.850   1.645   3.736 -0.0517 -0.2633  0.8208
 7724TIP3    H123136   1.774   1.686   3.777 -2.3454 -1.9765 -1.4120
 7724TIP3    H223137   1.857   1.686   3.650 -0.9172 -2.6763 -0.5107
 7725TIP3   OH223138   0.505   0.564   4.057  0.0699  0.3116 -0.0474
 7725TIP3    H123139   0.594   0.544   4.027 -1.1192 -0.5407 -3.3753
 7725TIP3    H223140   0.518   0.632   4.124  3.1995  0.2984 -0.4560
 7726TIP3   OH223141   1.595   4.137   4.443  0.8184  0.3898 -0.0053
 7726TIP3    H123142   1.505   4.139   4.412  0.8157 -0.1193 -0.0311
 7726TIP3    H223143   1.589   4.152   4.537  0.4635 -2.3253  0.4859
 7727TIP3   OH223144   1.012   1.900   5.487 -0.2577  0.0681  0.0626
 7727TIP3    H123145   1.010   1.992   5.514  0.7424 -0.1619  0.9916
 7727TIP3    H223146   1.082   1.896   5.421  0.3764 -0.1954  0.7393
 7728TIP3   OH223147   0.243   2.912   1.740 -0.6242 -0.1927 -0.1373
 7728TIP3    H123148   0.267   3.005   1.740 -0.5719 -0.2064 -0.2037
 7728TIP3    H223149   0.149   2.912   1.759 -0.8536 -0.0655 -1.2303
 7729TIP3   OH223150   2.562   6.285   0.435 -0.0348  0.3761  0.2871
 7729TIP3    H123151   2.628   6.232   0.480 -0.7114 -0.2344  0.5887
 7729TIP3    H223152   2.612   6.347   0.383  0.8234 -0.9393 -0.5337
 7730TIP3   OH223153   6.584   4.170   4.440 -0.1189 -0.6803 -0.0247
 7730TIP3    H123154   6.515   4.206   4.496  0.0574  0.4218 -0.4758
 7730TIP3    H223155   6.665   4.190   4.487 -0.0685 -1.4032  0.1993
 7731TIP3   OH223156   3.946   3.078   4.679  0.7052 -0.7115  0.6371
 7731TIP3    H123157   3.891   3.014   4.725  1.0573 -1.1682  0.4324
 7731TIP3    H223158   4.004   3.113   4.746  0.9277 -1.0633  0.6341
 7732TIP3   OH223159   0.967   5.257   3.368  0.4089 -0.1107  0.0037
 7732TIP3    H123160   1.039   5.285   3.424 -1.4118  0.9407  2.0058
 7732TIP3    H223161   0.949   5.333   3.312 -0.7988  0.7118  1.4077
 7733TIP3   OH223162   5.247   6.273   2.419 -0.2436  0.0599 -0.3604
 7733TIP3    H123163   5.331   6.258   2.375 -1.2170 -2.3023 -1.5782
 7733TIP3    H223164   5.212   6.352   2.377  1.3970  1.2205  0.3295
 7734TIP3   OH223165   3.904   1.245   5.532 -0.2104 -0.2078 -0.2737
 7734TIP3    H123166   3.910   1.338   5.554  1.7823 -0.9456  3.1174
 7734TIP3    H223167   3.927   1.240   5.440 -0.4969  2.6483 -0.5859
 7735TIP3   OH223168   4.215   0.804   0.275 -0.1063 -0.6711  0.0430
 7735TIP3    H123169   4.191   0.745   0.347 -0.5434 -3.2094 -2.0268
 7735TIP3    H223170   4.303   0.834   0.297  0.0299 -1.9038  1.3361
 7736TIP3   OH223171   2.344   3.967   3.209 -0.0951 -0.2715  0.2556
 7736TIP3    H123172   2.432   3.958   3.171 -0.4756  0.9647 -1.0176
 7736TIP3    H223173   2.337   3.894   3.270  1.9585 -0.1751  0.6926
 7737TIP3   OH223174   5.236   1.800   4.688 -0.0928 -0.0863  0.4796
 7737TIP3    H123175   5.156   1.751   4.708  0.0741 -1.0014 -0.9630
 7737TIP3    H223176   5.307   1.738   4.702  0.2693  0.3029  0.3967
 7738TIP3   OH223177   4.242   4.557   3.848  0.0334  0.4162  0.4541
 7738TIP3    H123178   4.160   4.540   3.802  0.8497 -0.5596 -0.7096
 7738TIP3    H223179   4.289   4.618   3.792  0.8043 -0.3468  0.2426
 7739TIP3   OH223180   6.113   4.036   0.664 -0.0212  0.0284  0.0694
 7739TIP3    H123181   6.198   3.992   0.661 -0.2991 -0.5882  0.9035
 7739TIP3    H223182   6.071   4.011   0.582  1.4182  2.0785 -1.3748
 7740TIP3   OH223183   2.943   3.741   2.263 -0.1233 -0.1672  0.4695
 7740TIP3    H123184   3.005   3.814   2.256 -1.2943  0.9491  1.2791
 7740TIP3    H223185   2.858   3.780   2.238 -1.1132 -0.7252  2.6915
 7741TIP3   OH223186   6.663   1.469   0.934  0.3832 -0.0618 -0.1377
 7741TIP3    H123187   6.632   1.391   0.888 -1.2147  0.3035  0.2397
 7741TIP3    H223188   6.642   1.452   1.026 -0.0630  0.8356 -0.0653
 7742TIP3   OH223189   1.607   3.069   1.878 -0.7256 -0.1230 -0.3486
 7742TIP3    H123190   1.614   3.153   1.833 -3.6490  0.4045  0.0117
 7742TIP3    H223191   1.547   3.018   1.825 -1.4889 -0.7807  1.0845
 7743TIP3   OH223192   5.151   6.154   5.010  0.5170  0.0620  0.3279
 7743TIP3    H123193   5.127   6.098   5.084  0.1375 -1.6198 -1.0023
 7743TIP3    H223194   5.235   6.121   4.980  0.9110  1.0566  0.3011
 7744TIP3   OH223195   4.448   0.904   4.907 -0.0483 -0.4496  0.2195
 7744TIP3    H123196   4.404   0.875   4.827 -0.7453  0.5455  0.2267
 7744TIP3    H223197   4.512   0.836   4.925  0.4819 -0.4449 -1.4780
 7745TIP3   OH223198   6.466   3.992   4.277 -0.3492 -0.0728  0.0251
 7745TIP3    H123199   6.529   4.044   4.327 -0.5510 -1.6746  2.0877
 7745TIP3    H223200   6.521   3.931   4.227 -0.1383  1.6495 -1.9798
 7746TIP3   OH223201   6.058   4.087   4.840  0.6502 -0.2750  0.1775
 7746TIP3    H123202   6.137   4.092   4.786 -0.1244 -2.4098 -1.3030
 7746TIP3    H223203   6.074   4.014   4.900 -0.5731 -1.5695 -0.9707
 7747TIP3   OH223204   2.115   1.350   3.208 -0.7781 -0.1577 -0.4810
 7747TIP3    H123205   2.097   1.440   3.178 -3.0918 -0.3708  0.0082
 7747TIP3    H223206   2.040   1.330   3.265 -0.3215 -2.4263 -0.6141
 7748TIP3   OH223207   5.461   0.156   1.921  0.1192 -0.3385 -0.3385
 7748TIP3    H123208   5.543   0.127   1.962 -0.3761  0.4948  1.3167
 7748TIP3    H223209   5.466   0.123   1.831  1.4588 -1.8512  0.2523
 7749TIP3   OH223210   4.895   0.808   4.782  0.1734  0.5471 -0.1483
 7749TIP3    H123211   4.834   0.762   4.839  1.2206 -1.5155 -0.5941
 7749TIP3    H223212   4.909   0.893   4.824 -0.0244 -0.4245  1.9969
 7750TIP3   OH223213   3.359   4.403   2.845  0.1640 -0.2418 -0.7436
 7750TIP3    H123214   3.363   4.383   2.752  1.7426  1.8764 -1.2059
 7750TIP3    H223215   3.403   4.488   2.854 -2.2237  0.9272  1.5767
 7751TIP3   OH223216   3.488   5.684   4.947 -0.4062  0.8252  0.2162
 7751TIP3    H123217   3.400   5.680   4.984 -0.8521 -0.9235 -0.9257
 7751TIP3    H223218   3.476   5.727   4.862 -0.1402  0.7266  0.1284
 7752TIP3   OH223219   2.567   5.209   3.807 -0.4478 -0.3263 -0.5206
 7752TIP3    H123220   2.586   5.122   3.773  0.6797 -0.2708 -0.1130
 7752TIP3    H223221   2.480   5.202   3.847 -0.3582 -1.2719 -0.4741
 7753TIP3   OH223222   3.561   5.531   3.834 -0.0849  0.3486  0.1236
 7753TIP3    H123223   3.558   5.626   3.844 -3.7124  0.3310  0.4804
 7753TIP3    H223224   3.549   5.497   3.923 -1.3990 -0.3337 -0.2736
 7754TIP3   OH223225   5.948   1.205   2.425  0.4488  0.0137  0.3371
 7754TIP3    H123226   5.976   1.120   2.391  1.5111  0.7803 -0.7889
 7754TIP3    H223227   6.029   1.254   2.438 -0.1282  0.7656  1.2578
 7755TIP3   OH223228   3.192   3.395   3.098 -0.7209 -0.4287 -0.1048
 7755TIP3    H123229   3.160   3.411   3.186 -0.8533 -0.4077 -0.1567
 7755TIP3    H223230   3.168   3.304   3.080  0.9712 -1.0628  0.5969
 7756TIP3   OH223231   1.108   2.787   0.146  0.3896 -0.3287  0.4238
 7756TIP3    H123232   1.135   2.695   0.144  0.1459 -0.4356  1.4823
 7756TIP3    H223233   1.189   2.837   0.140  0.6893 -0.6336  1.6329
 7757TIP3   OH223234   1.273   5.212   2.381  0.4164  0.4898 -0.0023
 7757TIP3    H123235   1.319   5.269   2.443  1.2430  0.4246 -0.5389
 7757TIP3    H223236   1.250   5.134   2.431 -0.1979  1.0301  0.5835
 7758TIP3   OH223237   0.875   0.690   5.016  0.6044 -0.1849 -0.2533
 7758TIP3    H123238   0.901   0.776   4.982 -0.2959  1.2161  2.3182
 7758TIP3    H223239   0.792   0.671   4.973  1.4731 -0.5045 -1.8884
 7759TIP3   OH223240   0.445   4.544   1.090  0.3379  0.2823  0.0837
 7759TIP3    H123241   0.447   4.498   1.174 -0.0807 -1.2691 -0.7212
 7759TIP3    H223242   0.370   4.507   1.045  0.9699  0.5896 -1.2525
 7760TIP3   OH223243   1.167   4.739   3.204 -0.4329 -0.3015  0.1245
 7760TIP3    H123244   1.207   4.678   3.142  0.9648  0.9597 -0.2698
 7760TIP3    H223245   1.234   4.754   3.270 -0.7817  0.7572  0.2543
 7761TIP3   OH223246   2.184   4.349   5.293 -0.4307  0.1746  0.3851
 7761TIP3    H123247   2.262   4.307   5.328  0.7100  0.0242 -2.1415
 7761TIP3    H223248   2.189   4.440   5.324 -0.1538 -0.2292  1.5666
 7762TIP3   OH223249   3.906   3.510   0.303  0.8267 -0.3385  0.3778
 7762TIP3    H123250   3.865   3.481   0.384  0.8262 -0.2059  0.4249
 7762TIP3    H223251   3.917   3.430   0.252 -0.8506 -0.2131 -0.2581
 7763TIP3   OH223252   2.899   4.165   0.462 -0.5290  0.0964 -0.1117
 7763TIP3    H123253   2.841   4.240   0.477 -0.6428  0.6370 -2.8414
 7763TIP3    H223254   2.840   4.092   0.446 -0.5026  0.4103 -1.7918
 7764TIP3   OH223255   2.885   6.344   1.280  0.1044 -0.5976 -0.7618
 7764TIP3    H123256   2.956   6.390   1.235 -0.3157 -0.1578 -0.9861
 7764TIP3    H223257   2.866   6.398   1.356 -1.2996  0.3441 -1.7444
 7765TIP3   OH223258   0.703   4.220   4.324 -0.3407  0.0007  0.0606
 7765TIP3    H123259   0.722   4.153   4.389 -0.0559 -0.9551 -0.9772
 7765TIP3    H223260   0.649   4.284   4.370 -0.6362 -0.9522  1.0668
 7766TIP3   OH223261   1.716   3.470   2.003  0.1094  0.1503 -0.2762
 7766TIP3    H123262   1.685   3.532   1.936  0.0245  0.3219 -0.0795
 7766TIP3    H223263   1.775   3.522   2.058  0.6681 -0.1507 -0.5886
 7767TIP3   OH223264   0.173   0.604   3.628 -0.4342  0.4788 -0.5038
 7767TIP3    H123265   0.231   0.528   3.619 -0.2355  0.7578 -1.8585
 7767TIP3    H223266   0.216   0.659   3.693 -0.4951 -0.4876  0.3657
 7768TIP3   OH223267   0.118   4.259   5.182 -0.0147 -0.1190 -0.0543
 7768TIP3    H123268   0.096   4.350   5.160  0.8644  0.5851  1.7676
 7768TIP3    H223269   0.122   4.214   5.097 -1.5659  1.2607 -0.9244
 7769TIP3   OH223270   3.629   0.124   5.523 -0.0656  0.1030  0.1198
 7769TIP3    H123271   3.611   0.176   5.602  0.8190  1.8338 -0.7613
 7769TIP3    H223272   3.683   0.182   5.469  0.0474 -1.3718 -1.3944
 7770TIP3   OH223273   5.402   4.855   4.491  0.1388 -0.1368  0.3695
 7770TIP3    H123274   5.356   4.779   4.526  0.9643 -1.5399 -1.4224
 7770TIP3    H223275   5.341   4.894   4.429  0.8401 -1.3141 -1.1365
 7771TIP3   OH223276   2.942   1.801   2.732  0.4349  0.1239 -0.6761
 7771TIP3    H123277   2.981   1.888   2.724  1.0447 -0.0130  0.4893
 7771TIP3    H223278   3.015   1.744   2.757 -0.3014 -0.3401  0.5139
 7772TIP3   OH223279   4.756   3.797   1.623 -0.0442 -0.1469 -0.6724
 7772TIP3    H123280   4.720   3.794   1.712  2.8581  1.9324  0.7306
 7772TIP3    H223281   4.816   3.722   1.619  0.2734  0.1056 -0.6548
 7773TIP3   OH223282   6.702   2.807   1.758  0.0758  0.1450 -0.0309
 7773TIP3    H123283   6.665   2.878   1.705 -2.1020 -0.8264  0.0593
 7773TIP3    H223284   6.632   2.742   1.763  2.3580 -2.5826 -1.0633
 7774TIP3   OH223285   2.862   3.152   4.383  0.3840  0.0758  0.3776
 7774TIP3    H123286   2.828   3.068   4.352  0.3488  0.7408 -1.5617
 7774TIP3    H223287   2.957   3.140   4.387  0.3072 -0.3189  0.9620
 7775TIP3   OH223288   4.416   1.531   1.302 -1.1895  0.7304 -0.8370
 7775TIP3    H123289   4.435   1.521   1.395 -0.2646 -0.0823 -1.0911
 7775TIP3    H223290   4.456   1.615   1.278  1.9344 -0.7496 -1.2605
 7776TIP3   OH223291   6.587  -0.001   5.021 -0.5913 -0.3893  0.2879
 7776TIP3    H123292   6.556   0.089   5.035  0.0066  0.4083 -2.7098
 7776TIP3    H223293   6.682   0.008   5.012 -0.3882 -1.5344  1.1371
 7777TIP3   OH223294   4.391   5.294   5.623 -0.3672 -0.2718  0.3666
 7777TIP3    H123295   4.416   5.271   5.712  0.1196  0.7909  0.5086
 7777TIP3    H223296   4.345   5.378   5.631  0.9804  0.5872 -0.5392
 7778TIP3   OH223297   3.723   3.487   0.071  0.2967  0.0528 -0.2342
 7778TIP3    H123298   3.788   3.420   0.050 -1.6131 -1.6375 -1.0290
 7778TIP3    H223299   3.738   3.508   0.163  2.3758  0.2353 -0.5720
 7779TIP3   OH223300   1.959   5.322   4.247  0.1788  0.0834 -0.1290
 7779TIP3    H123301   2.055   5.328   4.243  0.2106 -0.2847  0.0436
 7779TIP3    H223302   1.940   5.230   4.231  0.0014 -0.3085  1.9882
 7780TIP3   OH223303   4.654   2.864   2.993 -0.5956  0.3181 -0.0033
 7780TIP3    H123304   4.577   2.920   2.986 -0.1213  0.9159 -0.6402
 7780TIP3    H223305   4.679   2.868   3.085 -0.1680  1.7186 -0.1659
 7781TIP3   OH223306   0.322   2.220   0.194 -0.3885  0.0253 -0.9379
 7781TIP3    H123307   0.245   2.163   0.200  0.4419 -1.0633 -0.1945
 7781TIP3    H223308   0.389   2.166   0.154  0.2323  0.7061 -0.8411
 7782TIP3   OH223309   3.683   2.846   4.286  0.1924  0.1636 -0.5101
 7782TIP3    H123310   3.642   2.873   4.367  0.9742  0.7879 -0.3171
 7782TIP3    H223311   3.618   2.864   4.218 -0.4400 -0.3143 -0.0417
 7783TIP3   OH223312   2.791   0.672   2.096 -0.2360 -0.0245  0.1976
 7783TIP3    H123313   2.782   0.666   2.192 -1.4777  3.6637  0.4795
 7783TIP3    H223314   2.717   0.727   2.069  1.9285  1.8170 -2.4198
 7784TIP3   OH223315   0.760   2.248   2.095 -0.6799  0.2665  0.2631
 7784TIP3    H123316   0.818   2.281   2.027  0.8262 -1.3454  0.6816
 7784TIP3    H223317   0.704   2.184   2.050  1.7231 -2.3984  0.7633
 7785TIP3   OH223318   2.131   1.763   5.210  0.5339 -0.5423  0.1399
 7785TIP3    H123319   2.087   1.704   5.149 -0.6956  0.0379  0.4207
 7785TIP3    H223320   2.141   1.712   5.290 -3.0137  0.3239  1.3308
 7786TIP3   OH223321   2.540   5.397   5.320 -0.1797  0.0585 -0.1181
 7786TIP3    H123322   2.608   5.463   5.336 -0.1009  0.1469 -0.8000
 7786TIP3    H223323   2.586   5.313   5.331 -0.7274  0.0377  2.7826
 7787TIP3   OH223324   1.312   4.825   0.682 -0.1463 -0.4852 -0.1556
 7787TIP3    H123325   1.367   4.863   0.613 -2.2870  0.9099 -1.2094
 7787TIP3    H223326   1.342   4.866   0.763  1.1183 -0.6545 -0.5224
 7788TIP3   OH223327   1.335   2.887   2.932  0.1555  0.9010  0.3853
 7788TIP3    H123328   1.413   2.891   2.876  0.0119  0.8029  0.1785
 7788TIP3    H223329   1.318   2.794   2.943  0.5158  0.9086  1.0595
 7789TIP3   OH223330   0.457   3.656   1.997  0.1272  0.2790 -0.2917
 7789TIP3    H123331   0.523   3.660   1.928 -0.9097  1.3063 -1.2440
 7789TIP3    H223332   0.483   3.580   2.049  2.6417  1.2035 -0.0260
 7790TIP3   OH223333   0.631   3.929   4.979  0.0311  0.2011 -0.7430
 7790TIP3    H123334   0.636   4.022   4.999 -0.1871 -0.4659  3.2232
 7790TIP3    H223335   0.691   3.887   5.041 -0.6123 -2.3870 -1.7079
 7791TIP3   OH223336   2.950   6.140   1.451 -0.1096 -0.1843  0.5764
 7791TIP3    H123337   2.942   6.212   1.389  0.9784 -0.0079  0.6232
 7791TIP3    H223338   2.980   6.181   1.532 -0.1006 -0.6017  0.7874
 7792TIP3   OH223339   4.640   0.873   5.842  0.0794 -0.8021 -0.2829
 7792TIP3    H123340   4.547   0.882   5.865 -0.5497 -0.2092 -2.8213
 7792TIP3    H223341   4.665   0.960   5.810  1.4784 -1.0132  0.1637
 7793TIP3   OH223342   3.306   2.904   2.586  0.4206  0.0649  0.0536
 7793TIP3    H123343   3.370   2.964   2.625  0.2810  0.8013 -0.8240
 7793TIP3    H223344   3.346   2.877   2.503 -0.3880  0.5041 -0.4869
 7794TIP3   OH223345   5.165   4.494   5.145 -0.4364 -0.6547  0.4290
 7794TIP3    H123346   5.147   4.582   5.179 -2.4628 -0.5111 -0.8113
 7794TIP3    H223347   5.239   4.463   5.196 -0.0778  1.5235  1.3487
 7795TIP3   OH223348   1.462   3.955   4.168 -0.4030 -0.9119 -0.3784
 7795TIP3    H123349   1.403   4.031   4.163  0.0862 -0.4061  1.1558
 7795TIP3    H223350   1.549   3.990   4.152 -0.2891 -1.3561 -0.7821
 7796TIP3   OH223351   0.516   1.086   3.463  0.2030 -0.2968 -0.0721
 7796TIP3    H123352   0.610   1.073   3.450 -0.0637 -0.8552 -1.6671
 7796TIP3    H223353   0.485   1.002   3.496  0.2069 -0.2263  0.1108
 7797TIP3   OH223354   1.216   4.899   4.559  0.1043  0.1774  0.4586
 7797TIP3    H123355   1.280   4.962   4.591 -0.4817  0.5558  0.9240
 7797TIP3    H223356   1.170   4.869   4.638 -0.1181 -0.2752  0.1635
 7798TIP3   OH223357   1.943   2.411   2.118  0.1666  0.5326 -0.2057
 7798TIP3    H123358   1.891   2.432   2.040 -0.9757 -1.7306 -0.1319
 7798TIP3    H223359   2.031   2.396   2.085  0.1875  1.7225 -0.7333
 7799TIP3   OH223360   5.746   4.445   5.464 -0.0975  0.4257 -0.2720
 7799TIP3    H123361   5.764   4.487   5.380 -0.5151  1.1912  0.0107
 7799TIP3    H223362   5.651   4.455   5.476 -0.6358 -2.5935 -1.2390
 7800TIP3   OH223363   3.424   6.644   0.194  0.3110  0.3678  0.0557
 7800TIP3    H123364   3.351   6.675   0.248 -0.4000 -1.9384  0.5269
 7800TIP3    H223365   3.411   6.549   0.188  2.6383  0.0350 -0.8234
 7801TIP3   OH223366   7.028   0.567   5.145 -0.5021 -0.0475 -0.6619
 7801TIP3    H123367   7.030   0.644   5.203 -0.3101 -0.3504 -0.2593
 7801TIP3    H223368   7.046   0.602   5.058 -1.5225  0.5202 -0.6561
 7802TIP3   OH223369   6.010   6.045   2.312 -0.1691  0.0527 -0.3092
 7802TIP3    H123370   6.051   6.096   2.381 -1.3728 -0.2537  0.6768
 7802TIP3    H223371   6.017   5.954   2.341 -0.1091 -0.1380 -0.9044
 7803TIP3   OH223372   0.092   1.429   4.457 -0.6153 -0.3054 -0.3141
 7803TIP3    H123373   0.022   1.430   4.522 -0.1360  3.2433  0.3670
 7803TIP3    H223374   0.173   1.427   4.508 -0.2416  1.3887 -0.7931
 7804TIP3   OH223375   6.731   5.678   1.722  0.0936  0.4631  0.2419
 7804TIP3    H123376   6.712   5.708   1.633 -1.0889 -0.5621  0.1062
 7804TIP3    H223377   6.735   5.758   1.775  0.7835  1.0769 -0.7159
 7805TIP3   OH223378   6.007   5.594   0.325  0.0254 -0.0872  0.3441
 7805TIP3    H123379   5.961   5.597   0.409 -0.3347 -1.1287  0.2011
 7805TIP3    H223380   5.950   5.542   0.268  0.2404  0.6582 -0.5677
 7806TIP3   OH223381   4.876   0.259   5.065  0.8017  0.6833  0.1744
 7806TIP3    H123382   4.947   0.312   5.028  1.6353  0.4261  1.3545
 7806TIP3    H223383   4.906   0.238   5.153  0.8990 -2.4378 -0.4728
 7807TIP3   OH223384   2.620   4.927   1.774 -0.0626 -0.0095 -0.3682
 7807TIP3    H123385   2.534   4.890   1.755 -0.7426  1.2568  0.1170
 7807TIP3    H223386   2.670   4.854   1.809 -1.1582 -0.6182 -0.0121
 7808TIP3   OH223387   2.368   1.116   1.655 -0.4224  0.0441 -0.4662
 7808TIP3    H123388   2.306   1.152   1.592 -1.9180 -1.7408 -0.0995
 7808TIP3    H223389   2.448   1.168   1.643 -2.2915  3.1991 -0.1301
 7809TIP3   OH223390   2.338   6.177   2.643 -0.0426  0.5740 -0.4410
 7809TIP3    H123391   2.276   6.149   2.575 -0.1507 -0.3179  0.0107
 7809TIP3    H223392   2.297   6.149   2.725  0.6716  0.5335 -0.0954
 7810TIP3   OH223393   2.970   3.375   0.493 -0.4733  0.3468  0.3537
 7810TIP3    H123394   2.955   3.439   0.562 -1.2581  0.3732  0.1654
 7810TIP3    H223395   2.883   3.341   0.472 -0.0523 -0.9576  0.6107
 7811TIP3   OH223396   6.032   4.792   1.975  0.4523 -0.4054 -0.4375
 7811TIP3    H123397   6.059   4.725   2.038 -0.7246 -0.4093  0.0837
 7811TIP3    H223398   6.066   4.874   2.011 -1.8963 -0.1009  1.3390
 7812TIP3   OH223399   4.202   3.481   5.344 -0.3936 -0.3078  0.2388
 7812TIP3    H123400   4.191   3.418   5.415  0.4650  0.0945  0.7377
 7812TIP3    H223401   4.294   3.474   5.319 -0.7088 -0.5426 -0.9358
 7813TIP3   OH223402   6.707   5.893   4.621 -0.1546 -0.6723  0.6560
 7813TIP3    H123403   6.679   5.870   4.710 -1.2261 -0.5370  0.3769
 7813TIP3    H223404   6.762   5.820   4.593 -0.8914 -1.3554  0.9575
 7814TIP3   OH223405   1.014   4.007   5.045 -0.2416 -0.3472 -0.2475
 7814TIP3    H123406   0.926   3.971   5.056  0.1398 -1.3189 -0.3262
 7814TIP3    H223407   1.051   3.960   4.970  0.7647 -0.7882  0.5036
 7815TIP3   OH223408   0.913   0.441   4.544  0.0117 -0.2426 -0.3616
 7815TIP3    H123409   0.891   0.508   4.608 -1.1728 -0.4130 -0.5813
 7815TIP3    H223410   1.004   0.417   4.565 -0.2791 -0.1278  1.1053
 7816TIP3   OH223411   5.095   2.871   5.127 -0.1353  0.3386  0.3549
 7816TIP3    H123412   5.062   2.865   5.037  0.9653  2.7174 -0.2922
 7816TIP3    H223413   5.170   2.813   5.129 -0.5815 -0.2672 -0.0421
 7817TIP3   OH223414   0.186   0.755   0.914  0.0587  0.2812  0.1133
 7817TIP3    H123415   0.125   0.809   0.865 -0.4419 -0.1550  0.2490
 7817TIP3    H223416   0.137   0.726   0.991  0.9272  1.2375  1.0772
 7818TIP3   OH223417   4.621   0.277   3.112 -0.0356  0.2659 -0.0524
 7818TIP3    H123418   4.686   0.344   3.131  2.1909 -2.4681  2.9684
 7818TIP3    H223419   4.670   0.207   3.069 -1.9562 -0.1367 -1.7325
 7819TIP3   OH223420   2.356   5.653   5.493 -0.2691 -0.1227  0.0643
 7819TIP3    H123421   2.338   5.697   5.410 -0.0231 -0.0884  0.0282
 7819TIP3    H223422   2.347   5.559   5.473 -0.9856 -0.0871  0.1878
 7820TIP3   OH223423   5.008   2.720   0.421 -0.2648  0.1125 -0.1986
 7820TIP3    H123424   5.042   2.809   0.408 -0.3459  0.0696 -0.7301
 7820TIP3    H223425   4.927   2.733   0.470 -0.0586  0.2998  0.0961
 7821TIP3   OH223426   3.798   5.707   3.018  0.1377  0.2478 -0.1201
 7821TIP3    H123427   3.738   5.701   2.943  0.9709  0.6249 -0.8302
 7821TIP3    H223428   3.826   5.799   3.018 -0.0441  0.3075  0.8064
 7822TIP3   OH223429   6.576   3.095   0.544  0.1710 -0.4477  0.2731
 7822TIP3    H123430   6.545   3.134   0.461  0.7160 -0.0965  0.2267
 7822TIP3    H223431   6.526   3.141   0.612 -0.2751 -0.7326  0.1394
 7823TIP3   OH223432   1.622   4.553   5.165  0.2229  0.1381 -0.7278
 7823TIP3    H123433   1.613   4.642   5.200  0.2066  0.4723 -1.5754
 7823TIP3    H223434   1.702   4.520   5.206  0.1235  0.4640 -0.2504
 7824TIP3   OH223435   1.911   0.423   0.927  0.1859  0.1763 -0.4097
 7824TIP3    H123436   1.892   0.442   1.019 -0.1628  0.6121 -0.5653
 7824TIP3    H223437   2.006   0.431   0.919  0.2806 -0.4660  0.0429
 7825TIP3   OH223438   2.703   0.856   0.798  0.2996  0.0078 -0.4626
 7825TIP3    H123439   2.712   0.803   0.878  0.5844 -0.5710 -0.8697
 7825TIP3    H223440   2.784   0.840   0.750 -1.2070 -2.4066 -2.5036
 7826TIP3   OH223441   3.174   5.803   1.775 -0.5131 -0.3706  0.4769
 7826TIP3    H123442   3.107   5.824   1.711  0.5900  0.0780 -0.5648
 7826TIP3    H223443   3.217   5.886   1.794  0.9952 -0.9240 -0.3441
 7827TIP3   OH223444   0.369   0.290   5.790 -0.2381 -0.1169 -0.5111
 7827TIP3    H123445   0.339   0.204   5.760  2.2179 -0.9782 -0.7098
 7827TIP3    H223446   0.325   0.303   5.874 -1.2586 -1.1792 -0.8547
 7828TIP3   OH223447   2.447   4.991   4.804 -0.1980  0.3060 -0.0236
 7828TIP3    H123448   2.355   5.010   4.785 -0.2721  0.1123  0.1500
 7828TIP3    H223449   2.446   4.946   4.888 -0.0947 -1.0999 -0.7315
 7829TIP3   OH223450   2.530   2.107   1.821  0.0945  0.5523 -0.2005
 7829TIP3    H123451   2.613   2.074   1.856  0.3424  0.6729 -0.6630
 7829TIP3    H223452   2.483   2.139   1.897  0.5285  0.5990  0.0517
 7830TIP3   OH223453   6.546   2.938   0.275 -0.7531 -0.2017 -0.1267
 7830TIP3    H123454   6.551   2.999   0.202 -2.0711 -0.2928 -0.3175
 7830TIP3    H223455   6.636   2.909   0.289 -0.1844  1.4123 -0.3364
 7831TIP3   OH223456   6.019   2.339   2.733  0.3104 -0.1670  0.2586
 7831TIP3    H123457   5.928   2.325   2.709  0.8923 -3.2310 -0.5690
 7831TIP3    H223458   6.059   2.379   2.655  0.3763 -2.1947 -0.8139
 7832TIP3   OH223459   4.945   0.309   5.600  0.0465  0.7820  0.1795
 7832TIP3    H123460   4.980   0.397   5.594  0.5996  0.6122  0.8328
 7832TIP3    H223461   4.880   0.313   5.670 -0.9977  1.0080 -0.7751
 7833TIP3   OH223462   3.803   0.057   1.879  0.0621  0.1285 -0.4701
 7833TIP3    H123463   3.881   0.068   1.825  0.8958 -0.3358  0.6137
 7833TIP3    H223464   3.780  -0.036   1.868  0.4271 -0.0456  0.2248
 7834TIP3   OH223465   0.174   2.913   3.533 -0.0937 -0.1391  0.5305
 7834TIP3    H123466   0.207   2.914   3.623 -0.2075 -1.7924  0.6178
 7834TIP3    H223467   0.248   2.944   3.480  0.3800 -0.3296  1.0691
 7835TIP3   OH223468   5.179   2.826   4.614 -0.2281  0.0592  0.2842
 7835TIP3    H123469   5.243   2.828   4.542  1.0227  0.4945  1.3796
 7835TIP3    H223470   5.098   2.796   4.572  0.1270  1.4819 -1.5648
 7836TIP3   OH223471   2.708   1.088   3.497  0.0718 -0.3010 -0.2494
 7836TIP3    H123472   2.683   1.148   3.567 -2.5174  0.1329 -1.4032
 7836TIP3    H223473   2.780   1.132   3.452 -0.8040  1.2959 -0.1857
 7837TIP3   OH223474   3.960   4.593   3.778 -0.1346 -0.3828 -0.3275
 7837TIP3    H123475   3.936   4.564   3.690 -0.6406 -0.8552 -0.0388
 7837TIP3    H223476   3.886   4.568   3.833  0.9206 -1.6811  0.5549
 7838TIP3   OH223477   2.816   2.847   3.850  0.2748 -0.1762 -0.3632
 7838TIP3    H123478   2.827   2.878   3.940 -0.0133 -0.0204 -0.3810
 7838TIP3    H223479   2.760   2.770   3.858 -1.5611  1.0667 -0.5966
 7839TIP3   OH223480   4.751   3.378   1.212 -0.6741  0.3064 -0.4065
 7839TIP3    H123481   4.696   3.425   1.274  0.6660  0.2286  0.8891
 7839TIP3    H223482   4.735   3.285   1.232  1.8042  0.2482  1.8283
 7840TIP3   OH223483   4.695   5.732   4.797 -0.2440  0.5676  0.0165
 7840TIP3    H123484   4.638   5.766   4.728 -0.2629  1.5799  0.5060
 7840TIP3    H223485   4.774   5.704   4.751 -1.6493 -2.3056 -0.8818
 7841TIP3   OH223486   7.042   6.605   5.764 -0.1190  0.0728  0.6541
 7841TIP3    H123487   7.009   6.521   5.733 -1.0945  0.8119 -0.4170
 7841TIP3    H223488   7.115   6.626   5.705 -1.2393  0.9390 -0.4881
 7842TIP3   OH223489   0.325   2.258   3.029 -0.2602  0.5692 -0.4092
 7842TIP3    H123490   0.347   2.181   3.080 -0.6120  0.1980 -0.8022
 7842TIP3    H223491   0.293   2.322   3.093 -1.0592 -0.0231 -0.2072
 7843TIP3   OH223492   1.824   4.266   1.948 -0.3146  0.0696 -0.2136
 7843TIP3    H123493   1.782   4.180   1.959  0.3534 -0.1323  0.9144
 7843TIP3    H223494   1.792   4.317   2.023 -0.5854  0.7619 -0.7935
 7844TIP3   OH223495   3.068   5.807   0.425 -1.0823  0.4108 -0.1962
 7844TIP3    H123496   3.158   5.773   0.433 -0.8808  1.2134  1.2687
 7844TIP3    H223497   3.039   5.776   0.340 -0.0060 -1.2889 -0.0039
 7845TIP3   OH223498   5.016   1.042   4.935  0.5528  0.4925  0.1114
 7845TIP3    H123499   5.008   1.063   4.842 -1.0803  0.0332  0.1315
 7845TIP3    H223500   5.021   1.128   4.978 -0.1685  0.7467 -0.2924
 7846TIP3   OH223501   3.015   1.096   0.571 -0.2775 -0.0091 -0.4397
 7846TIP3    H123502   2.939   1.127   0.523 -1.7944 -0.9515  1.2350
 7846TIP3    H223503   3.019   1.153   0.648  0.8005  0.1031 -0.5640
 7847TIP3   OH223504   5.626   5.793   1.782 -0.0308 -0.1314  0.0612
 7847TIP3    H123505   5.610   5.740   1.703  2.8935  0.3139 -0.9354
 7847TIP3    H223506   5.682   5.865   1.752  0.2402  0.6959  2.3551
 7848TIP3   OH223507   3.818   3.102   3.895  0.3247 -0.1980  0.2672
 7848TIP3    H123508   3.802   3.196   3.885  0.4039 -0.3758 -2.1708
 7848TIP3    H223509   3.849   3.093   3.985  1.1026  2.2321  0.3369
 7849TIP3   OH223510   4.718   6.472   3.896 -0.0835  0.0191  0.0946
 7849TIP3    H123511   4.681   6.558   3.877 -1.1089 -0.3417  0.4018
 7849TIP3    H223512   4.654   6.410   3.861 -0.1765 -0.6298  1.3630
 7850TIP3   OH223513   6.278   2.976   1.784 -0.4883 -0.5503  0.4658
 7850TIP3    H123514   6.303   2.962   1.692  2.0381  2.7648  0.4487
 7850TIP3    H223515   6.208   3.041   1.780  1.6653  1.9745  0.7620
 7851TIP3   OH223516   3.796   0.534   0.264 -0.4377 -0.0485  0.5060
 7851TIP3    H123517   3.773   0.583   0.185  1.8310 -0.1747 -0.2931
 7851TIP3    H223518   3.836   0.600   0.321 -0.7748 -0.2458  0.9722
 7852TIP3   OH223519   1.480   1.153   3.593  0.3376  0.4871  0.6944
 7852TIP3    H123520   1.483   1.239   3.635  0.0857  0.6966  0.2852
 7852TIP3    H223521   1.430   1.098   3.654 -0.5521  0.9490  0.3851
 7853TIP3   OH223522   2.392   1.469   5.454 -0.0081  0.1706  0.0264
 7853TIP3    H123523   2.386   1.375   5.438 -2.1033  0.0517  1.0881
 7853TIP3    H223524   2.402   1.508   5.367 -1.5509 -0.9154 -0.6805
 7854TIP3   OH223525   4.547   1.119   4.797  0.3834  0.0913  0.2220
 7854TIP3    H123526   4.498   1.056   4.850 -0.3924  1.6801  1.4731
 7854TIP3    H223527   4.579   1.068   4.722  0.7871 -2.0442  1.7488
 7855TIP3   OH223528   2.029   3.041   1.560  0.0602  0.3224  0.5622
 7855TIP3    H123529   1.986   2.977   1.504 -1.4522  1.5700  0.2310
 7855TIP3    H223530   1.958   3.083   1.608  0.9455  2.0442  0.4525
 7856TIP3   OH223531   4.285   2.200   1.477  0.2046  0.6461  0.1301
 7856TIP3    H123532   4.368   2.245   1.461 -0.3592  1.1143 -1.7073
 7856TIP3    H223533   4.255   2.233   1.561  1.3631  1.2761  0.3054
 7857TIP3   OH223534   1.945   0.476   5.068 -0.3122  0.0784  0.0702
 7857TIP3    H123535   1.972   0.513   4.984  0.4100  0.6117  0.5241
 7857TIP3    H223536   1.850   0.467   5.061 -0.5339  2.0606 -0.0675
 7858TIP3   OH223537   4.971   5.996   3.227 -0.4990 -0.5620  0.2533
 7858TIP3    H123538   4.911   6.070   3.236 -0.4034 -0.4737  0.1539
 7858TIP3    H223539   5.050   6.022   3.275  0.3089  0.2197 -1.4332
 7859TIP3   OH223540   4.226   3.438   0.109 -0.3190  0.2098  0.0565
 7859TIP3    H123541   4.312   3.479   0.101 -0.0981  0.2106  1.9879
 7859TIP3    H223542   4.165   3.512   0.115 -0.1215  0.2804  1.5886
 7860TIP3   OH223543   1.234   5.759   1.560 -0.4679  0.2208  0.3198
 7860TIP3    H123544   1.259   5.743   1.469 -0.3641 -0.0132  0.3877
 7860TIP3    H223545   1.210   5.852   1.563 -2.1149 -0.1528 -0.3324
 7861TIP3   OH223546   0.753   5.300   0.182  0.3791 -0.4150 -0.2014
 7861TIP3    H123547   0.692   5.340   0.244 -0.9538  0.0177 -1.7295
 7861TIP3    H223548   0.796   5.231   0.232  0.3184  0.7685  1.5636
 7862TIP3   OH223549   6.860   3.267   1.793 -0.2627 -0.1554  0.1430
 7862TIP3    H123550   6.837   3.190   1.845 -1.2994 -0.6457 -0.9745
 7862TIP3    H223551   6.779   3.319   1.791  0.6516  1.4045  1.5613
 7863TIP3   OH223552   3.996   4.809   0.665 -0.0373  0.4697  0.2993
 7863TIP3    H123553   3.930   4.796   0.733 -0.1747 -3.0928 -0.3356
 7863TIP3    H223554   3.945   4.837   0.588 -0.4493  0.3085  0.5084
 7864TIP3   OH223555   6.483   5.089   3.830 -0.3789 -0.3182 -0.3344
 7864TIP3    H123556   6.562   5.035   3.827  0.9187  1.5124 -0.6913
 7864TIP3    H223557   6.496   5.146   3.906 -1.5421 -0.2362 -0.1814
 7865TIP3   OH223558   3.104   0.202   4.952  0.2739 -0.1717 -0.2706
 7865TIP3    H123559   3.157   0.151   5.014 -0.6041  1.0935  1.6223
 7865TIP3    H223560   3.098   0.147   4.874  1.1174 -2.0115  0.9050
 7866TIP3   OH223561   4.334   6.038   4.748 -0.0069  0.3327 -0.1113
 7866TIP3    H123562   4.414   6.069   4.790  0.3845  1.8330 -1.8515
 7866TIP3    H223563   4.276   6.113   4.749 -0.3051  0.1373 -1.4463
 7867TIP3   OH223564   7.163   4.751   0.849 -0.2368  0.5337  0.7553
 7867TIP3    H123565   7.069   4.738   0.844 -0.0728 -0.3138 -1.1132
 7867TIP3    H223566   7.181   4.823   0.788  0.5441 -1.0517 -1.0209
 7868TIP3   OH223567   4.857   0.500   0.499 -0.0623  0.2194  0.1677
 7868TIP3    H123568   4.932   0.560   0.495  1.0613 -0.9575  2.0562
 7868TIP3    H223569   4.896   0.413   0.484 -0.8874 -0.4922  1.8916
 7869TIP3   OH223570   4.220   2.163   4.823  0.8415  0.3289  0.0956
 7869TIP3    H123571   4.164   2.179   4.747 -1.1190 -1.7193  1.0028
 7869TIP3    H223572   4.306   2.143   4.785 -0.0447 -0.5218 -1.6000
 7870TIP3   OH223573   6.895   5.694   5.621 -0.1028  0.1103 -0.0787
 7870TIP3    H123574   6.920   5.785   5.638 -1.1289  0.4787 -0.4709
 7870TIP3    H223575   6.934   5.644   5.693 -0.4810  1.0177  0.7706
 7871TIP3   OH223576   6.381   3.862   2.791  0.4149 -0.0009  0.3769
 7871TIP3    H123577   6.387   3.941   2.845 -0.6292  0.2696  0.1082
 7871TIP3    H223578   6.289   3.839   2.792  0.0521  0.9182 -2.5812
 7872TIP3   OH223579   3.528   0.611   3.805 -0.0464 -0.8170 -0.0357
 7872TIP3    H123580   3.448   0.656   3.833  0.4556 -0.9808  1.8009
 7872TIP3    H223581   3.589   0.623   3.878  1.6775 -0.5676 -1.4342
 7873TIP3   OH223582   4.192   0.612   1.382  0.1170 -0.3563 -0.1831
 7873TIP3    H123583   4.166   0.617   1.290  1.0557 -2.4996 -0.6130
 7873TIP3    H223584   4.288   0.609   1.380  0.2449  1.4133  1.0097
 7874TIP3   OH223585   4.551   4.079   3.165 -0.0093 -0.3211 -0.2222
 7874TIP3    H123586   4.527   4.086   3.258  0.0786 -1.0288 -0.1471
 7874TIP3    H223587   4.620   4.145   3.154  0.9747 -1.1861  0.5513
 7875TIP3   OH223588   1.479   3.532   3.684  0.2370 -0.4482 -0.4436
 7875TIP3    H123589   1.496   3.614   3.732 -1.4284 -0.6047  0.4755
 7875TIP3    H223590   1.505   3.552   3.594 -0.0984  1.0805 -0.2385
 7876TIP3   OH223591   6.617   0.708   1.362  0.1002  0.1117 -0.2788
 7876TIP3    H123592   6.562   0.783   1.386 -1.7571 -1.1805 -0.2842
 7876TIP3    H223593   6.555   0.637   1.344  1.8015 -2.0318  1.6436
 7877TIP3   OH223594   6.928   4.434   1.788  0.3640 -0.0605  0.4087
 7877TIP3    H123595   7.022   4.427   1.802  0.2343 -0.5028  1.1014
 7877TIP3    H223596   6.904   4.517   1.829  0.5398  0.3623 -0.3167
 7878TIP3   OH223597   4.701   1.730   0.833  1.0056 -0.0078 -0.5239
 7878TIP3    H123598   4.678   1.796   0.767 -3.2145 -0.3734  0.2590
 7878TIP3    H223599   4.659   1.650   0.802  0.8697 -0.7500  1.4611
 7879TIP3   OH223600   6.874   4.170   4.580  0.1450  0.0626 -0.2433
 7879TIP3    H123601   6.853   4.112   4.653 -1.2181  0.4013 -0.3387
 7879TIP3    H223602   6.961   4.141   4.551  0.1387 -0.9357  0.6581
 7880TIP3   OH223603   0.075   3.978   1.362  0.3955  0.2253 -0.6560
 7880TIP3    H123604   0.125   3.980   1.280  0.7891  0.1834 -0.4159
 7880TIP3    H223605   0.075   3.885   1.387  1.2893  0.3973  0.0139
 7881TIP3   OH223606   0.825   5.280   1.220  0.1933 -0.0949  0.3710
 7881TIP3    H123607   0.802   5.198   1.264  0.4353  0.6272  1.9175
 7881TIP3    H223608   0.831   5.344   1.291  1.9435  0.8360 -0.5618
 7882TIP3   OH223609   4.538   2.995   2.060 -0.1338  0.3647  0.2015
 7882TIP3    H123610   4.572   2.935   1.994 -0.0858  1.1518 -0.5160
 7882TIP3    H223611   4.464   3.038   2.017 -1.6470 -0.8494  1.5115
 7883TIP3   OH223612   4.820   2.984   0.974  0.6929 -0.3728  0.1608
 7883TIP3    H123613   4.874   3.061   0.956  0.6802 -0.5485 -0.7222
 7883TIP3    H223614   4.815   2.978   1.069  0.2673  1.0183  0.2423
 7884TIP3   OH223615   0.936   6.546   1.371  0.4098 -0.2646 -0.5429
 7884TIP3    H123616   0.999   6.593   1.424 -0.4775  0.4638 -0.1032
 7884TIP3    H223617   0.895   6.614   1.317 -1.6192 -0.3040  0.8333
 7885TIP3   OH223618   3.180   3.249   0.878 -0.3095  0.3174  0.0303
 7885TIP3    H123619   3.165   3.326   0.823 -0.6134  0.9695  1.0084
 7885TIP3    H223620   3.164   3.175   0.819 -0.3001  0.9910 -0.8479
 7886TIP3   OH223621   2.696   6.046   0.560  0.1135 -0.2492 -0.0299
 7886TIP3    H123622   2.771   6.054   0.501  2.3616 -1.1957  2.4884
 7886TIP3    H223623   2.677   5.953   0.563  1.5344 -0.5592  2.2862
 7887TIP3   OH223624   0.125   1.643   1.269 -0.5429 -0.0148  0.2193
 7887TIP3    H123625   0.089   1.572   1.322  0.0443 -0.9546 -0.6053
 7887TIP3    H223626   0.149   1.710   1.332 -1.8989 -0.1803  0.9446
 7888TIP3   OH223627   1.527   6.600   4.963  0.0199 -0.2719  0.3108
 7888TIP3    H123628   1.599   6.555   5.008  0.6854 -0.4801 -0.9168
 7888TIP3    H223629   1.545   6.586   4.870  0.4073  2.7190 -0.1605
 7889TIP3   OH223630   5.321   1.741   1.917 -0.2002  0.7291 -0.3475
 7889TIP3    H123631   5.279   1.674   1.864 -1.6792  0.9222  0.5386
 7889TIP3    H223632   5.382   1.692   1.972  2.0795  0.6074 -2.7535
 7890TIP3   OH223633   4.013   1.982   2.765  0.6971 -0.1755 -0.0453
 7890TIP3    H123634   4.004   2.000   2.858 -0.0668  0.5747 -0.2597
 7890TIP3    H223635   4.084   2.039   2.736  1.1119 -0.5982  0.1193
 7891TIP3   OH223636   5.115   2.057   0.908 -0.2712  0.7190 -0.6364
 7891TIP3    H123637   5.035   2.007   0.897 -0.7485  1.5131 -0.8314
 7891TIP3    H223638   5.100   2.111   0.985  0.2744  0.4967 -0.3695
 7892TIP3   OH223639   2.512   4.045   2.897  0.7657  0.0214  0.6830
 7892TIP3    H123640   2.528   3.978   2.964  1.6904 -1.0628 -0.5577
 7892TIP3    H223641   2.419   4.065   2.905  0.7905 -0.2908  2.0859
 7893TIP3   OH223642   4.503   2.481   1.393 -0.2027  0.4611 -0.3352
 7893TIP3    H123643   4.598   2.471   1.402 -0.3169  0.2477  0.6474
 7893TIP3    H223644   4.467   2.458   1.478 -1.3085 -1.4102 -1.2439
 7894TIP3   OH223645   0.753   6.136   2.301 -0.3740  0.1022  0.1001
 7894TIP3    H123646   0.687   6.102   2.241  0.2065  0.9538 -1.0572
 7894TIP3    H223647   0.771   6.225   2.270  1.3004 -0.1087  0.3905
 7895TIP3   OH223648   7.151   4.805   1.374 -0.3857 -0.1255  0.0913
 7895TIP3    H123649   7.167   4.853   1.294  0.1064 -0.9054 -0.2960
 7895TIP3    H223650   7.093   4.733   1.349  1.4011 -1.6112 -0.0561
 7896TIP3   OH223651   1.518   4.885   0.486  0.0017 -0.1633 -0.0364
 7896TIP3    H123652   1.551   4.972   0.461  1.5568 -0.6661  0.1607
 7896TIP3    H223653   1.474   4.853   0.408  1.3190 -0.0751 -0.8454
 7897TIP3   OH223654   6.987   0.226   3.801 -0.0913  0.4080 -0.3017
 7897TIP3    H123655   7.054   0.293   3.811  1.9509 -1.7039  1.1845
 7897TIP3    H223656   6.926   0.242   3.874  2.0716 -1.0694  1.9699
 7898TIP3   OH223657   6.745   4.525   3.402  0.7562 -0.3860 -0.2965
 7898TIP3    H123658   6.656   4.515   3.435 -0.3837 -0.7169 -3.1652
 7898TIP3    H223659   6.786   4.440   3.418  0.2063 -0.5801  0.1234
 7899TIP3   OH223660   1.877   4.377   2.581  0.0369 -0.4691 -0.0122
 7899TIP3    H123661   1.838   4.341   2.501  1.1286 -2.5259  0.3051
 7899TIP3    H223662   1.849   4.318   2.651  1.9699 -0.8501  0.5222
 7900TIP3   OH223663   1.195   1.714   1.189  0.2534  0.2450  0.0377
 7900TIP3    H123664   1.130   1.684   1.253 -0.0082 -1.2361 -0.8715
 7900TIP3    H223665   1.273   1.661   1.208  0.9074  1.3232  0.4873
 7901TIP3   OH223666   6.068   0.175   0.920  0.8910  0.4700  0.2062
 7901TIP3    H123667   6.155   0.190   0.884  0.3831  0.7456 -0.9382
 7901TIP3    H223668   6.031   0.106   0.866  0.0352  1.0271  0.0611
 7902TIP3   OH223669   2.904   0.651   1.259  0.0107 -0.0285 -0.1371
 7902TIP3    H123670   2.999   0.661   1.258  0.0778 -0.5452  0.4202
 7902TIP3    H223671   2.877   0.688   1.343 -0.3791  0.8740 -0.6483
 7903TIP3   OH223672   2.275   4.887   2.279 -0.0018  0.4710  0.3057
 7903TIP3    H123673   2.241   4.954   2.338 -0.8837 -1.1981  1.7861
 7903TIP3    H223674   2.197   4.841   2.248  0.6950 -1.4498  1.2964
 7904TIP3   OH223675   5.104   2.309   5.166  0.1909 -0.1036 -0.3868
 7904TIP3    H123676   5.098   2.264   5.081 -4.7250 -2.0212  0.6747
 7904TIP3    H223677   5.067   2.396   5.150  2.0855  0.7064 -0.6950
 7905TIP3   OH223678   6.440   6.139   4.775  0.6682  0.4882  0.1248
 7905TIP3    H123679   6.370   6.075   4.765 -0.2242  1.1654  1.7277
 7905TIP3    H223680   6.493   6.130   4.695 -0.3480 -1.1048 -0.3979
 7906TIP3   OH223681   4.573   1.589   0.446 -0.2489 -0.3398  0.1872
 7906TIP3    H123682   4.510   1.660   0.433 -1.4048 -1.5846 -1.4999
 7906TIP3    H223683   4.619   1.583   0.362  0.8282 -0.7029  0.7788
 7907TIP3   OH223684   7.192   1.573   1.674  0.5776  0.0863  0.3520
 7907TIP3    H123685   7.139   1.607   1.747 -0.3880 -0.1190 -0.2363
 7907TIP3    H223686   7.260   1.521   1.716  0.1260  0.1035  1.1248
 7908TIP3   OH223687   4.928   4.664   0.886 -0.0636  0.1841  0.4953
 7908TIP3    H123688   4.844   4.711   0.884 -0.5404 -0.6795 -0.0776
 7908TIP3    H223689   4.915   4.594   0.950 -0.9422 -2.0310 -1.9494
 7909TIP3   OH223690   6.926   3.571   5.562 -0.0982  0.2035  0.0359
 7909TIP3    H123691   6.890   3.660   5.567 -0.9319 -0.1943  2.3397
 7909TIP3    H223692   6.858   3.520   5.519 -0.8808  0.1170  1.3568
 7910TIP3   OH223693   1.273   2.060   1.771 -0.4309 -0.4525  0.0817
 7910TIP3    H123694   1.279   2.009   1.690 -1.4315  1.1225 -1.0469
 7910TIP3    H223695   1.356   2.108   1.775 -0.8076  0.2970 -0.6404
 7911TIP3   OH223696   3.350   5.292   0.225 -0.2649 -0.4396 -0.0646
 7911TIP3    H123697   3.319   5.251   0.306 -2.8192  0.3497 -0.5843
 7911TIP3    H223698   3.413   5.229   0.189  0.0467 -1.3304  1.9186
 7912TIP3   OH223699   2.586   6.189   3.695  0.5353  0.0241  0.3951
 7912TIP3    H123700   2.644   6.113   3.687  0.4159 -0.1594  1.1489
 7912TIP3    H223701   2.594   6.216   3.787 -0.1696  0.3170  0.3810
 7913TIP3   OH223702   0.771   3.400   1.092  0.5394  0.1128  0.2046
 7913TIP3    H123703   0.819   3.480   1.069 -1.4401  1.4071  0.3678
 7913TIP3    H223704   0.734   3.419   1.178  0.0229 -0.9912  0.2374
 7914TIP3   OH223705   1.634   5.381   1.321 -0.0217 -0.2931 -0.0962
 7914TIP3    H123706   1.555   5.368   1.268 -0.4389  0.2654  0.3672
 7914TIP3    H223707   1.602   5.420   1.402  0.6509 -0.8212  0.4297
 7915TIP3   OH223708   3.872   3.169   5.604 -0.3807 -0.1382 -0.0862
 7915TIP3    H123709   3.887   3.189   5.697  0.7654 -0.8367 -0.0929
 7915TIP3    H223710   3.788   3.123   5.603  0.9356 -2.8839  1.0891
 7916TIP3   OH223711   2.382   4.174   5.393  0.0727  0.0766  0.1649
 7916TIP3    H123712   2.412   4.131   5.473  0.3975 -0.3173 -0.1713
 7916TIP3    H223713   2.441   4.143   5.324  1.6144  2.5278  0.2274
 7917TIP3   OH223714   1.172   3.595   4.034 -0.3362 -0.5473 -0.4789
 7917TIP3    H123715   1.264   3.606   4.056 -0.6061 -1.0489  1.0147
 7917TIP3    H223716   1.129   3.673   4.068 -0.6285 -0.8794 -0.0728
 7918TIP3   OH223717   7.176   2.395   4.327  0.1662 -0.3673 -0.1133
 7918TIP3    H123718   7.261   2.351   4.322 -0.6753 -2.2032  0.8648
 7918TIP3    H223719   7.175   2.454   4.252  2.4584  0.0098  0.0808
 7919TIP3   OH223720   1.285   4.624   1.787 -0.5247  0.6880  0.1215
 7919TIP3    H123721   1.359   4.671   1.748 -1.3394  2.0517  0.1564
 7919TIP3    H223722   1.209   4.650   1.735 -0.7825 -2.1609 -1.1151
 7920TIP3   OH223723   1.962   1.707   5.888  0.5649 -0.3511 -0.3666
 7920TIP3    H123724   2.001   1.644   5.827  0.6376  0.9575 -1.7318
 7920TIP3    H223725   1.875   1.671   5.908  1.3559 -1.8795  0.4994
 7921TIP3   OH223726   3.225   2.585   1.084  0.5057  0.1725 -0.0486
 7921TIP3    H123727   3.181   2.604   1.001 -1.0579 -1.7607  0.2668
 7921TIP3    H223728   3.292   2.521   1.062  0.5756  0.2031  0.0738
 7922TIP3   OH223729   1.721   1.937   4.289  0.6484  0.3869 -0.8490
 7922TIP3    H123730   1.767   2.005   4.240  0.9236  0.0144 -1.1190
 7922TIP3    H223731   1.640   1.924   4.240  1.6045 -1.0810 -2.1541
 7923TIP3   OH223732   6.661   4.676   4.856 -0.2040  0.2551 -0.3943
 7923TIP3    H123733   6.623   4.759   4.827 -1.2155 -0.5403 -1.4530
 7923TIP3    H223734   6.706   4.642   4.778 -1.0929 -0.8985 -0.4269
 7924TIP3   OH223735   3.051   4.095   0.824  0.2668 -0.0836 -0.2627
 7924TIP3    H123736   2.968   4.138   0.846  0.4195  0.2623 -0.3559
 7924TIP3    H223737   3.104   4.164   0.785 -0.0527 -0.7128 -1.8808
 7925TIP3   OH223738   0.294   3.998   1.846  0.5414 -0.5372 -0.1575
 7925TIP3    H123739   0.367   4.020   1.903  2.1743 -1.6418 -1.7133
 7925TIP3    H223740   0.328   4.007   1.757 -1.4442 -0.3863 -0.9703
 7926TIP3   OH223741   1.450   3.968   2.160 -0.0402  0.3169 -0.1589
 7926TIP3    H123742   1.496   3.898   2.206 -0.8206 -0.1431 -0.0561
 7926TIP3    H223743   1.362   3.968   2.198 -0.0617  1.3454 -0.1731
 7927TIP3   OH223744   7.158   5.910   4.702  0.7133  0.3176 -0.0215
 7927TIP3    H123745   7.241   5.903   4.748  0.8907  0.8976 -0.2482
 7927TIP3    H223746   7.120   5.992   4.732  0.3492  0.1963 -0.1334
 7928TIP3   OH223747   5.480   4.760   2.198 -0.1135 -0.3495 -0.7996
 7928TIP3    H123748   5.480   4.682   2.254  1.8057  0.4182  0.3595
 7928TIP3    H223749   5.529   4.734   2.120  0.8456 -0.2130 -0.2516
 7929TIP3   OH223750   4.527   0.695   1.922 -0.2186 -0.0327  0.9268
 7929TIP3    H123751   4.541   0.683   1.828  0.2697  0.6584  0.9061
 7929TIP3    H223752   4.614   0.709   1.958 -0.2872 -1.3403  1.6491
 7930TIP3   OH223753   6.007   3.419   3.083  0.0029 -0.2640  0.3120
 7930TIP3    H123754   5.941   3.353   3.059  0.2026  0.0520 -1.2335
 7930TIP3    H223755   5.970   3.501   3.052 -0.0406  0.3161  1.8282
 7931TIP3   OH223756   3.778   4.669   4.542 -0.0837 -0.7524 -0.0477
 7931TIP3    H123757   3.687   4.696   4.530  0.3571 -0.0362 -2.0794
 7931TIP3    H223758   3.776   4.574   4.536 -0.7193 -0.7660  0.2643
 7932TIP3   OH223759   2.870   6.196   3.284 -0.0486 -0.2988  0.1810
 7932TIP3    H123760   2.825   6.207   3.368 -1.2411 -0.5475 -0.4005
 7932TIP3    H223761   2.905   6.107   3.288  2.0648  0.5141  1.3790
 7933TIP3   OH223762   1.123   3.366   2.955 -0.1155  0.2018  0.3536
 7933TIP3    H123763   1.136   3.273   2.972  0.6034  0.5649  2.0611
 7933TIP3    H223764   1.106   3.403   3.042 -0.5655  1.6378 -0.3204
 7934TIP3   OH223765   6.424   3.710   5.298 -0.1536  0.1150  0.1906
 7934TIP3    H123766   6.385   3.742   5.216  0.4858  0.8393  0.1554
 7934TIP3    H223767   6.513   3.686   5.275 -0.2822 -0.6502  0.4688
 7935TIP3   OH223768   5.387   2.658   1.780 -0.2218 -0.2266 -0.5992
 7935TIP3    H123769   5.339   2.593   1.830  0.4932 -1.2256 -1.1752
 7935TIP3    H223770   5.398   2.732   1.841 -0.6773 -0.8061  0.2014
 7936TIP3   OH223771   1.633   3.947   4.847 -0.3224 -0.0083  0.1415
 7936TIP3    H123772   1.608   4.037   4.828  1.7332  0.1968 -2.0175
 7936TIP3    H223773   1.569   3.894   4.799  0.4954  0.4111 -1.4848
 7937TIP3   OH223774   2.182   1.189   5.148  0.9104 -0.0609  0.2535
 7937TIP3    H123775   2.140   1.102   5.151 -0.6865  0.6920  0.6398
 7937TIP3    H223776   2.184   1.211   5.055  0.2348 -0.0213  0.2421
 7938TIP3   OH223777   1.244   1.199   4.054  0.5215 -0.2046  0.3690
 7938TIP3    H123778   1.290   1.254   3.991  1.5983  0.7994  1.9663
 7938TIP3    H223779   1.295   1.118   4.058  1.0007  0.1108  0.6513
 7939TIP3   OH223780   5.727   1.536   4.399 -0.1347 -0.1106  0.2468
 7939TIP3    H123781   5.752   1.525   4.491 -0.6054 -0.7924  0.3058
 7939TIP3    H223782   5.807   1.519   4.350 -0.0991 -0.6920  0.4990
 7940TIP3   OH223783   5.521   0.447   0.747 -0.0196 -0.3336 -0.0781
 7940TIP3    H123784   5.514   0.352   0.760  1.2162 -0.3397  0.6390
 7940TIP3    H223785   5.436   0.471   0.710 -0.5626 -1.6330  0.2360
 7941TIP3   OH223786   4.509   4.178   2.086  0.0211 -0.3627  0.2253
 7941TIP3    H123787   4.583   4.222   2.045  0.9420  0.7806  2.8986
 7941TIP3    H223788   4.432   4.224   2.051  0.6833  0.0584 -0.7435
 7942TIP3   OH223789   6.198   3.634   0.711  0.0174 -0.3338 -0.0416
 7942TIP3    H123790   6.230   3.553   0.752  0.9507  1.7373  3.8594
 7942TIP3    H223791   6.113   3.650   0.753  1.0183  1.9301  1.3132
 7943TIP3   OH223792   6.573   0.881   5.096 -0.2732 -0.0675 -0.4134
 7943TIP3    H123793   6.595   0.930   5.017  1.1577  1.2914  0.7648
 7943TIP3    H223794   6.530   0.944   5.153 -1.1529 -0.9870 -0.0396
 7944TIP3   OH223795   5.568   0.450   1.034  0.4426  0.0743 -0.0553
 7944TIP3    H123796   5.507   0.523   1.043 -0.0859 -0.3175 -0.4661
 7944TIP3    H223797   5.587   0.446   0.940  3.3391  2.0099  0.3053
 7945TIP3   OH223798   3.532   2.196   1.571 -0.8389  0.0252  0.2956
 7945TIP3    H123799   3.617   2.164   1.602 -1.2688 -0.8975  0.5856
 7945TIP3    H223800   3.532   2.289   1.592  0.2299  0.1103 -0.0178
 7946TIP3   OH223801   0.216   5.021   5.638  0.2359 -0.0034 -0.3327
 7946TIP3    H123802   0.175   5.071   5.567  0.5953 -0.0119 -0.5459
 7946TIP3    H223803   0.192   4.930   5.620  0.3766 -0.0124 -0.4763
 7947TIP3   OH223804   1.685   0.683   5.090  0.3765  0.0980 -0.6293
 7947TIP3    H123805   1.665   0.624   5.018 -0.9061 -0.5449  0.2329
 7947TIP3    H223806   1.720   0.626   5.158 -1.4446  0.1923  0.4403
 7948TIP3   OH223807   0.207   2.915   2.670  0.2340 -0.5151 -0.2595
 7948TIP3    H123808   0.242   2.941   2.756 -0.9454 -1.4996  0.5485
 7948TIP3    H223809   0.115   2.941   2.672  0.6051  1.1624 -1.9925
 7949TIP3   OH223810   0.113   4.324   0.413  0.0504  0.1188  0.9316
 7949TIP3    H123811   0.018   4.335   0.415  0.3234  3.3720  2.9585
 7949TIP3    H223812   0.146   4.407   0.377  2.1664 -1.0929 -0.1470
 7950TIP3   OH223813   6.886   6.006   4.924 -0.5702 -0.2856  0.8178
 7950TIP3    H123814   6.927   5.982   5.007 -1.2363  0.8911  1.5267
 7950TIP3    H223815   6.817   5.941   4.912  0.5905 -1.4709  0.2963
 7951TIP3   OH223816   6.095   3.019   5.111  0.7743  0.4403  0.1124
 7951TIP3    H123817   6.049   2.968   5.177  0.7179  0.1807 -0.1220
 7951TIP3    H223818   6.167   3.061   5.158  2.1101 -1.5222 -0.0343
 7952TIP3   OH223819   3.090   1.437   1.838 -0.2183 -0.3442 -0.0150
 7952TIP3    H123820   3.054   1.448   1.926  0.0434  0.3150  0.0153
 7952TIP3    H223821   3.185   1.437   1.852 -0.1408  0.9601 -0.4162
 7953TIP3   OH223822   4.682   6.673   1.927  0.2825  0.4431 -0.1121
 7953TIP3    H123823   4.650   6.716   1.847 -0.4458 -0.2533 -0.2060
 7953TIP3    H223824   4.603   6.639   1.969  0.8781 -1.4107 -0.4061
 7954TIP3   OH223825   6.538   0.785   0.164  0.2526 -0.0852  0.2452
 7954TIP3    H123826   6.523   0.838   0.086 -1.4425  0.0890  0.6490
 7954TIP3    H223827   6.620   0.738   0.146  0.1058  0.2467 -1.4548
 7955TIP3   OH223828   1.501   1.081   0.684  0.7861  0.0651 -0.3320
 7955TIP3    H123829   1.560   1.139   0.635  1.0826 -0.1878 -0.2768
 7955TIP3    H223830   1.550   1.059   0.764  0.2432  0.6057  0.1607
 7956TIP3   OH223831   0.683   4.270   2.794 -0.1038 -0.4701 -0.0325
 7956TIP3    H123832   0.754   4.242   2.737  1.4290  1.5466  0.7451
 7956TIP3    H223833   0.720   4.267   2.882 -1.3596 -0.4535  0.5235
 7957TIP3   OH223834   4.525   1.533   3.656 -0.1564 -0.2787 -0.6833
 7957TIP3    H123835   4.523   1.540   3.561 -0.5277 -0.7878 -0.7214
 7957TIP3    H223836   4.452   1.588   3.686  0.7514  0.9213 -0.6062
 7958TIP3   OH223837   5.852   4.560   3.297 -0.3302 -0.2174  0.0012
 7958TIP3    H123838   5.857   4.528   3.387  1.0757 -1.5870 -0.5201
 7958TIP3    H223839   5.777   4.514   3.259  0.1138 -0.9444 -0.0041
 7959TIP3   OH223840   3.302   6.208   1.138 -0.5256  0.3211 -0.0140
 7959TIP3    H123841   3.245   6.132   1.133 -1.6432  1.1643 -0.2825
 7959TIP3    H223842   3.270   6.258   1.213 -0.8937  1.3893 -0.8597
 7960TIP3   OH223843   0.258   0.645   2.619 -0.5312  0.0458 -0.4332
 7960TIP3    H123844   0.285   0.736   2.604 -0.8268  0.2360  0.1984
 7960TIP3    H223845   0.236   0.613   2.531  0.2382  0.3616 -0.7602
 7961TIP3   OH223846   5.330   6.341   1.519 -0.7819  0.5930  0.3935
 7961TIP3    H123847   5.371   6.380   1.596 -1.5501 -1.0311  1.7036
 7961TIP3    H223848   5.250   6.301   1.552 -1.9680  1.2067 -1.5676
 7962TIP3   OH223849   4.599   2.034   1.066  0.1750 -0.3372 -0.5248
 7962TIP3    H123850   4.607   2.081   0.982 -2.4465 -0.1397 -0.7271
 7962TIP3    H223851   4.637   2.095   1.130 -0.2360  0.6773 -1.2155
 7963TIP3   OH223852   3.974   5.853   5.797  0.4306 -0.0497  0.3510
 7963TIP3    H123853   3.894   5.866   5.746  1.1908  1.9488 -0.4499
 7963TIP3    H223854   3.977   5.927   5.857  2.5647  0.9890 -0.9098
 7964TIP3   OH223855   4.350   3.430   2.077  0.6015  0.4967 -0.3174
 7964TIP3    H123856   4.269   3.462   2.038 -0.1794  0.4787  1.1891
 7964TIP3    H223857   4.367   3.491   2.150  1.6511  0.1842 -0.2849
 7965TIP3   OH223858   5.434   3.070   4.894 -0.2716  0.4874 -0.1728
 7965TIP3    H123859   5.486   3.024   4.959  0.1929  0.3077 -0.6637
 7965TIP3    H223860   5.434   3.161   4.924  0.4847  0.5252 -0.2630
 7966TIP3   OH223861   6.472   1.007   1.950 -0.6592  0.0367  0.3632
 7966TIP3    H123862   6.510   1.009   1.863 -2.4311  1.7072 -0.4450
 7966TIP3    H223863   6.465   1.099   1.976 -0.4391 -0.4101  2.1496
 7967TIP3   OH223864   5.898   0.509   1.865  0.1926  0.1600 -0.1806
 7967TIP3    H123865   5.953   0.447   1.815  0.6037  0.7061 -0.4141
 7967TIP3    H223866   5.862   0.456   1.936 -0.8237 -0.7719 -1.3313
 7968TIP3   OH223867   4.587   3.121   4.627 -0.1271  0.2736  0.5013
 7968TIP3    H123868   4.628   3.071   4.698 -0.1218  0.2605  0.4888
 7968TIP3    H223869   4.655   3.180   4.596 -0.7238  1.7880  1.9046
 7969TIP3   OH223870   2.707   2.377   4.299  0.3738 -0.5379  0.2915
 7969TIP3    H123871   2.754   2.422   4.369  0.0264  0.4960 -0.1185
 7969TIP3    H223872   2.663   2.448   4.250 -1.1147 -1.4086  0.3126
 7970TIP3   OH223873   1.181   3.789   5.678 -0.1074  0.6621  0.0727
 7970TIP3    H123874   1.241   3.805   5.750 -1.2851 -0.6284  1.4278
 7970TIP3    H223875   1.226   3.725   5.623  0.2681  0.6680  0.3695
 7971TIP3   OH223876   1.126   4.961   0.399  0.1044  0.0105 -0.2091
 7971TIP3    H123877   1.102   4.997   0.314 -0.2644 -0.8052 -0.4626
 7971TIP3    H223878   1.206   4.912   0.383 -0.8710 -1.5743 -0.4805
 7972TIP3   OH223879   6.413   2.031   5.614  0.1860  0.1440 -0.1366
 7972TIP3    H123880   6.335   2.049   5.667  1.0522  1.0276  0.8664
 7972TIP3    H223881   6.378   2.003   5.530 -1.2203 -0.1162  0.5049
 7973TIP3   OH223882   1.737   0.946   0.065 -0.0079  0.3256 -0.0977
 7973TIP3    H123883   1.705   0.877   0.123 -3.4376  2.9511  1.4998
 7973TIP3    H223884   1.757   0.901  -0.017 -0.3725 -2.7692  1.3780
 7974TIP3   OH223885   3.591   4.629   5.447  0.3112  0.6585  0.1976
 7974TIP3    H123886   3.633   4.714   5.433  0.3109  0.7441  0.7063
 7974TIP3    H223887   3.633   4.595   5.526 -0.6574  0.7992  0.7915
 7975TIP3   OH223888   4.670   0.941   4.599 -0.1998  0.3308 -0.0792
 7975TIP3    H123889   4.701   0.883   4.669 -0.2665  1.1683  0.6671
 7975TIP3    H223890   4.639   0.882   4.531  2.0708 -0.5305 -0.4388
 7976TIP3   OH223891   6.410   1.138   4.520  0.0016 -0.2255 -0.0058
 7976TIP3    H123892   6.386   1.049   4.546 -0.7918  0.4487  1.6928
 7976TIP3    H223893   6.494   1.154   4.563 -0.5882  0.3641  0.9596
 7977TIP3   OH223894   2.126   2.060   0.854  0.3925  0.5222  0.4460
 7977TIP3    H123895   2.116   2.016   0.769 -2.3660  0.6839  0.5932
 7977TIP3    H223896   2.215   2.039   0.881  0.4955 -1.7242 -1.2961
 7978TIP3   OH223897   5.046   1.652   0.630  0.4551 -0.0162  0.4354
 7978TIP3    H123898   5.011   1.661   0.541  1.6170 -2.6424 -0.3799
 7978TIP3    H223899   5.108   1.724   0.638 -0.8545  1.2424 -0.2353
 7979TIP3   OH223900   6.779   3.114   3.597 -0.0902 -0.0015  0.0597
 7979TIP3    H123901   6.749   3.194   3.554 -1.2850 -0.2757  0.3484
 7979TIP3    H223902   6.783   3.049   3.526 -0.1035  0.0523  0.0091
 7980TIP3   OH223903   3.089   3.486   5.230 -0.3577 -0.8537  0.4411
 7980TIP3    H123904   3.093   3.394   5.255 -2.2745 -1.0609  0.0825
 7980TIP3    H223905   3.068   3.485   5.137 -0.1647 -0.0427  0.3814
 7981TIP3   OH223906   1.049   2.152   0.832 -0.1923  0.1636  0.4440
 7981TIP3    H123907   1.022   2.144   0.923 -1.6418  0.2236  0.0459
 7981TIP3    H223908   0.967   2.159   0.783  0.5670  1.8440 -0.7140
 7982TIP3   OH223909   5.107   2.895   2.596 -0.0215 -0.1878  0.6806
 7982TIP3    H123910   5.143   2.981   2.575  0.3343 -0.6975 -1.0054
 7982TIP3    H223911   5.087   2.899   2.689 -1.4450  2.2169  0.3421
 7983TIP3   OH223912   3.339   0.793   1.021 -0.2987 -0.3667  0.8962
 7983TIP3    H123913   3.407   0.856   0.996  0.0369 -0.9551  0.2990
 7983TIP3    H223914   3.270   0.804   0.954  0.4703 -1.7358 -0.1811
 7984TIP3   OH223915   6.305   2.279   1.258  0.2116 -0.0007 -0.6727
 7984TIP3    H123916   6.332   2.370   1.263 -0.8013  0.4197 -2.1031
 7984TIP3    H223917   6.209   2.283   1.253  0.0542 -1.2269  0.6149
 7985TIP3   OH223918   3.939   6.232   0.551  0.1891  0.0216 -0.2086
 7985TIP3    H123919   3.876   6.295   0.586 -0.3519 -0.7041  0.1498
 7985TIP3    H223920   3.906   6.210   0.464 -1.0578 -1.6576  0.6238
 7986TIP3   OH223921   2.588   2.188   3.593 -0.2672  0.4971  0.1607
 7986TIP3    H123922   2.533   2.165   3.518 -1.6902 -2.2677  1.9123
 7986TIP3    H223923   2.543   2.262   3.634 -1.2975 -0.1103  0.1397
 7987TIP3   OH223924   3.484   2.971   4.147 -0.2376 -0.2543  0.0054
 7987TIP3    H123925   3.462   2.988   4.055 -2.0873 -0.4978  0.3646
 7987TIP3    H223926   3.432   2.895   4.171 -2.6677  1.9180  2.2389
 7988TIP3   OH223927   3.815   1.387   1.456  0.1404 -0.3069  0.6600
 7988TIP3    H123928   3.815   1.299   1.494 -0.1470 -0.2163  0.8790
 7988TIP3    H223929   3.906   1.415   1.461  0.4145 -0.9768 -0.3261
 7989TIP3   OH223930   2.877   0.605   0.445  0.6043 -0.6299 -0.6670
 7989TIP3    H123931   2.875   0.578   0.537  1.3465  0.9404 -0.1493
 7989TIP3    H223932   2.800   0.564   0.406  0.8384 -2.1617  0.4000
 7990TIP3   OH223933   3.347   6.079   2.091  0.0709  0.1722 -0.1733
 7990TIP3    H123934   3.278   6.109   2.151  0.3230  1.2651 -0.4086
 7990TIP3    H223935   3.407   6.153   2.085  1.4206 -0.8698  0.2274
 7991TIP3   OH223936   5.159   5.235   0.049 -0.5392  0.5345 -0.3496
 7991TIP3    H123937   5.065   5.221   0.053 -0.5351  0.5471 -0.2012
 7991TIP3    H223938   5.195   5.177   0.117 -0.4878  0.9347 -0.0310
 7992TIP3   OH223939   2.725   4.741   4.318 -0.2975 -0.1898  0.1115
 7992TIP3    H123940   2.705   4.833   4.338  0.8378 -0.1420  1.1695
 7992TIP3    H223941   2.781   4.713   4.390 -1.6753 -2.1147  0.4959
 7993TIP3   OH223942   1.955   5.600   2.418 -0.9171 -0.5726 -0.0747
 7993TIP3    H123943   1.986   5.510   2.428 -0.9928 -0.9488 -2.6083
 7993TIP3    H223944   1.877   5.593   2.363 -0.6047  1.0781 -0.8020
 7994TIP3   OH223945   0.245   0.283   2.728 -0.1219 -0.3483 -0.4776
 7994TIP3    H123946   0.321   0.320   2.772 -0.8435 -0.4184  0.8871
 7994TIP3    H223947   0.275   0.266   2.639  1.4156 -0.2610 -0.0092
 7995TIP3   OH223948   7.097   6.231   2.867  0.2272  0.4212  0.1325
 7995TIP3    H123949   7.089   6.140   2.839  2.2581  0.3805 -0.4121
 7995TIP3    H223950   7.063   6.281   2.792 -1.6358  0.1383  0.7399
 7996TIP3   OH223951   2.081   3.132   0.563 -0.1374  0.9240 -0.6529
 7996TIP3    H123952   2.061   3.186   0.486  0.5048  0.8463 -0.8771
 7996TIP3    H223953   2.057   3.043   0.536  1.2218  0.6978 -1.2195
 7997TIP3   OH223954   4.034   4.790   1.098  0.0554 -0.2654 -0.3034
 7997TIP3    H123955   4.106   4.845   1.067 -0.1467 -1.2949 -2.8478
 7997TIP3    H223956   3.956   4.844   1.089  0.3226  0.4932  1.4766
 7998TIP3   OH223957   5.664   3.023   0.137 -0.1372  0.1041  0.1453
 7998TIP3    H123958   5.759   3.010   0.141 -0.3091 -1.4376 -0.3315
 7998TIP3    H223959   5.652   3.091   0.070  0.6933  1.4278  1.2864
 7999TIP3   OH223960   6.440   3.695   3.986 -0.6732  0.2674  0.0461
 7999TIP3    H123961   6.396   3.776   3.960  0.7473  0.8197 -0.7265
 7999TIP3    H223962   6.447   3.644   3.905  0.0437  0.1725  0.1605
 8000TIP3   OH223963   1.252   5.695   3.242 -0.0352  0.3707  0.0724
 8000TIP3    H123964   1.311   5.715   3.169  0.1469  0.8830  0.3539
 8000TIP3    H223965   1.164   5.697   3.203  0.0016  1.3810  0.0096
 8001TIP3   OH223966   6.770   1.344   0.348 -0.1429  0.1750 -0.0449
 8001TIP3    H123967   6.716   1.266   0.336 -2.2803  1.7790 -1.7839
 8001TIP3    H223968   6.855   1.321   0.309 -0.3767 -1.5872  0.4212
 8002TIP3   OH223969   5.537   4.234   3.311 -0.0870 -0.3034 -0.1872
 8002TIP3    H123970   5.585   4.316   3.295  0.6697 -0.8043 -0.5460
 8002TIP3    H223971   5.571   4.204   3.395 -2.8607  1.4803  1.7447
 8003TIP3   OH223972   6.420   2.727   2.931  0.1580 -0.0505 -0.2617
 8003TIP3    H123973   6.438   2.816   2.902 -0.5149  0.0857 -0.2838
 8003TIP3    H223974   6.440   2.673   2.854  0.6961  0.0609 -0.2063
 8004TIP3   OH223975   3.235   3.100   3.332  0.0113  0.0042  0.0377
 8004TIP3    H123976   3.178   3.120   3.258  2.0113  2.0707 -1.0651
 8004TIP3    H223977   3.266   3.012   3.316  0.3072  0.3678 -1.5416
 8005TIP3   OH223978   3.355   0.551   5.176 -0.5100 -0.0316 -0.0739
 8005TIP3    H123979   3.302   0.530   5.099 -0.1554 -1.6618  0.0964
 8005TIP3    H223980   3.293   0.550   5.249 -0.6162  0.2349 -0.1584
 8006TIP3   OH223981   2.865   1.394   3.061  0.2193 -0.2725  0.8360
 8006TIP3    H123982   2.845   1.430   2.975 -1.4823  1.5479  1.8832
 8006TIP3    H223983   2.912   1.464   3.106  2.1642 -1.6481  1.0415
 8007TIP3   OH223984   2.006   2.787   2.730 -0.1477  0.8823  0.4468
 8007TIP3    H123985   1.996   2.793   2.635  0.2980  0.4258  0.3662
 8007TIP3    H223986   2.069   2.855   2.752  0.6063  0.2493  0.2662
 8008TIP3   OH223987   5.419   6.035   5.191  0.3690  0.2518  0.2317
 8008TIP3    H123988   5.427   6.072   5.279 -1.1528 -0.8730  0.8850
 8008TIP3    H223989   5.352   5.968   5.199  1.2707 -0.9252 -1.4679
 8009TIP3   OH223990   4.579   6.716   3.826 -0.1802 -0.5078  0.3022
 8009TIP3    H123991   4.504   6.718   3.885 -0.0392 -0.8196  0.4985
 8009TIP3    H223992   4.542   6.734   3.739 -0.6467 -1.6444  0.2427
 8010TIP3   OH223993   0.198   3.388   1.648 -0.1227 -0.3598 -0.0589
 8010TIP3    H123994   0.142   3.444   1.702 -0.7570 -1.6108  0.6254
 8010TIP3    H223995   0.217   3.441   1.570 -1.7333  0.3366 -0.0123
 8011TIP3   OH223996   2.230   3.170   2.353 -0.3142  0.3472 -0.1289
 8011TIP3    H123997   2.271   3.091   2.388 -0.1357  0.6872  0.4407
 8011TIP3    H223998   2.299   3.236   2.356 -1.0642  1.1012  1.4777
 8012TIP3   OH223999   6.787   2.887   0.132  0.1783 -0.1611  0.0971
 8012TIP3    H124000   6.788   2.791   0.126 -0.2534 -0.1876  0.4417
 8012TIP3    H224001   6.746   2.916   0.051  1.1384 -0.2223 -0.4363
 8013TIP3   OH224002   1.768   3.720   4.152 -0.3068  0.4007 -0.3769
 8013TIP3    H124003   1.847   3.697   4.200  0.0423 -0.2109 -1.2157
 8013TIP3    H224004   1.713   3.765   4.216 -0.3471 -1.3682  0.9067
 8014TIP3   OH224005   7.185   3.246   1.889 -0.1414 -0.5083  0.1097
 8014TIP3    H124006   7.274   3.243   1.854 -0.4579  0.2741 -0.8219
 8014TIP3    H224007   7.147   3.161   1.868  0.0232 -0.4255 -0.5468
 8015TIP3   OH224008   0.682   2.617   1.304 -0.1775  0.4012 -0.2012
 8015TIP3    H124009   0.693   2.651   1.392  1.9296  2.6388 -1.2234
 8015TIP3    H224010   0.749   2.549   1.295 -1.0455 -0.5266  0.2083
 8016TIP3   OH224011   4.204   2.941   2.024 -0.4757 -0.2719  0.1853
 8016TIP3    H124012   4.187   2.985   1.941  0.7371  0.2093  0.1725
 8016TIP3    H224013   4.123   2.952   2.074 -1.0776 -0.2199 -0.7665
 8017TIP3   OH224014   6.135   3.586   1.164  0.0811  0.1124  0.2714
 8017TIP3    H124015   6.069   3.631   1.112  0.5252  0.9594  0.4169
 8017TIP3    H224016   6.125   3.493   1.142 -1.4408  0.1787  0.6317
 8018TIP3   OH224017   1.896   1.076   5.090  0.3712 -0.1447 -0.2564
 8018TIP3    H124018   1.812   1.076   5.137 -0.0543  0.7645 -0.9767
 8018TIP3    H224019   1.890   1.001   5.031 -0.4800  0.6290 -1.1938
 8019TIP3   OH224020   1.871   4.369   4.527 -0.4921  0.0512  0.1698
 8019TIP3    H124021   1.850   4.444   4.471  0.7429  0.8926  0.7641
 8019TIP3    H224022   1.911   4.306   4.468 -2.6168 -0.6916 -0.5632
 8020TIP3   OH224023   3.600   6.052   4.085 -0.2424  0.3230 -0.3106
 8020TIP3    H124024   3.531   6.065   4.150 -0.3899  0.8235 -0.5602
 8020TIP3    H224025   3.557   6.069   4.001  0.1522  0.5288 -0.4740
 8021TIP3   OH224026   3.967   4.241   0.113 -0.1675  0.5172 -0.1116
 8021TIP3    H124027   3.879   4.213   0.136 -0.7446  2.4003  0.1447
 8021TIP3    H224028   3.975   4.220   0.019 -0.1932 -1.2522  0.2401
 8022TIP3   OH224029   5.351   5.509   3.699 -0.1057  0.2759 -0.2283
 8022TIP3    H124030   5.362   5.595   3.659 -0.9492  0.0128 -1.0499
 8022TIP3    H224031   5.311   5.455   3.631 -0.7230 -0.4306  0.6655
 8023TIP3   OH224032   3.370   4.801   2.613  0.1942  0.3582  0.2315
 8023TIP3    H124033   3.344   4.880   2.661 -1.1677 -1.0165  1.8988
 8023TIP3    H224034   3.337   4.815   2.524  1.3031  2.2610  0.0628
 8024TIP3   OH224035   5.842   1.010   1.835 -0.1027 -0.3279 -0.1490
 8024TIP3    H124036   5.802   1.078   1.781  1.4157 -0.4701 -1.5327
 8024TIP3    H224037   5.936   1.023   1.825  0.2520 -0.6670  2.1259
 8025TIP3   OH224038   4.582   3.551   2.629 -0.6133  0.1440 -0.4386
 8025TIP3    H124039   4.654   3.518   2.682 -0.4100 -1.9248 -1.8675
 8025TIP3    H224040   4.503   3.526   2.677 -0.4360  1.7686  0.7676
 8026TIP3   OH224041   2.679   2.390   3.269 -0.2946  0.6927  0.3821
 8026TIP3    H124042   2.588   2.419   3.263  0.0334  1.6681 -0.3561
 8026TIP3    H224043   2.684   2.340   3.350 -1.2262  1.6079  1.0269
 8027TIP3   OH224044   0.076   3.428   5.638  0.2523  0.4580 -0.0395
 8027TIP3    H124045   0.097   3.469   5.722 -0.0907 -0.6688  0.6173
 8027TIP3    H224046   0.133   3.472   5.575 -0.0851  1.9002  0.6333
 8028TIP3   OH224047   0.963   2.118   3.156  0.0443 -0.2472  0.1659
 8028TIP3    H124048   0.942   2.189   3.216 -0.0609  0.1894 -0.3885
 8028TIP3    H224049   0.880   2.074   3.140  0.0740 -0.3701  0.3420
 8029TIP3   OH224050   4.339   4.596   0.510  0.4461  0.1059 -0.3469
 8029TIP3    H124051   4.303   4.532   0.572  0.8811  1.0776  0.9415
 8029TIP3    H224052   4.267   4.658   0.495  0.0272 -0.6340 -1.5889
 8030TIP3   OH224053   3.086   2.688   5.718  0.1226  0.2975 -0.9743
 8030TIP3    H124054   3.159   2.714   5.773 -1.5034  0.5527  1.1930
 8030TIP3    H224055   3.055   2.606   5.755 -1.6133  0.9556 -0.8294
 8031TIP3   OH224056   6.643   4.891   0.315  0.1587  0.1619  0.1889
 8031TIP3    H124057   6.635   4.856   0.404  1.5562 -1.3837 -0.2348
 8031TIP3    H224058   6.704   4.831   0.271 -1.6565 -0.0178 -2.2842
 8032TIP3   OH224059   0.577   3.262   4.848 -0.0777  0.0685  0.0667
 8032TIP3    H124060   0.581   3.252   4.943 -0.1934  0.1258  0.0782
 8032TIP3    H224061   0.560   3.356   4.835 -1.0935 -0.1067  0.0194
 8033TIP3   OH224062   2.662   5.348   5.048 -0.0490  0.2766 -0.0727
 8033TIP3    H124063   2.733   5.331   4.986  1.3107 -0.0513  1.4892
 8033TIP3    H224064   2.697   5.417   5.105  0.0240 -1.5291  2.1975
 8034TIP3   OH224065   2.269   5.072   4.096 -0.0271 -0.0289  0.7501
 8034TIP3    H124066   2.343   5.033   4.049 -0.0225  1.0189 -0.1395
 8034TIP3    H224067   2.193   5.023   4.065  0.3592 -1.9210  2.5486
 8035TIP3   OH224068   5.340   5.812   5.324  0.5226 -0.3376  0.3525
 8035TIP3    H124069   5.271   5.748   5.306  0.1478 -0.0395  0.6957
 8035TIP3    H224070   5.413   5.760   5.356 -0.2608 -0.4953  1.9995
 8036TIP3   OH224071   3.914   5.271   4.947 -0.2213  0.1519  0.1810
 8036TIP3    H124072   3.891   5.357   4.910 -0.1344 -0.5700 -1.6453
 8036TIP3    H224073   3.849   5.211   4.910  0.2691 -0.7303  0.7101
 8037TIP3   OH224074   5.846   4.961   1.826  0.2685 -0.3084  0.1040
 8037TIP3    H124075   5.825   4.890   1.766 -0.7697  0.8059 -0.9305
 8037TIP3    H224076   5.880   4.918   1.904  0.1895 -1.8901 -0.6955
 8038TIP3   OH224077   3.272   1.047   1.958  0.1880 -0.0456  0.2361
 8038TIP3    H124078   3.273   1.073   1.866  0.4807  1.2520  0.5805
 8038TIP3    H224079   3.206   1.103   1.999 -0.1588 -0.8205  0.7649
 8039TIP3   OH224080   3.065   2.464   4.464 -0.5130  0.0702 -0.9034
 8039TIP3    H124081   3.090   2.376   4.436  1.3400 -0.2498  1.3671
 8039TIP3    H224082   3.015   2.451   4.544  0.7706  1.0667  0.1110
 8040TIP3   OH224083   3.803   3.055   5.144  0.2264  0.7639  0.6038
 8040TIP3    H124084   3.882   3.103   5.168  1.3735 -1.1497  0.8707
 8040TIP3    H224085   3.791   2.991   5.214 -1.0694  0.4311  0.1169
 8041TIP3   OH224086   0.623   5.095   5.061  0.1496 -0.1876 -0.0711
 8041TIP3    H124087   0.673   5.105   5.142  0.3233  0.7195 -0.2715
 8041TIP3    H224088   0.607   5.001   5.053 -0.0915 -0.2605  1.1479
 8042TIP3   OH224089   1.518   5.276   1.924 -0.0913  0.0850  0.2084
 8042TIP3    H124090   1.455   5.280   1.852 -1.0012 -1.2567  0.8772
 8042TIP3    H224091   1.586   5.217   1.893  0.4816  0.9591 -0.2343
 8043TIP3   OH224092   0.498   1.924   2.549  0.1734 -0.0874  0.0203
 8043TIP3    H124093   0.408   1.937   2.580  0.6495  2.9672  0.4275
 8043TIP3    H224094   0.535   2.012   2.547  2.4072 -0.9684 -2.5440
 8044TIP3   OH224095   1.856   1.294   5.519 -0.6405 -0.4272 -0.3110
 8044TIP3    H124096   1.823   1.206   5.499  0.4440 -0.8888 -0.0842
 8044TIP3    H224097   1.893   1.325   5.436  0.4597 -0.8484  0.0078
 8045TIP3   OH224098   4.414   3.728   2.464  0.0887  0.1211 -0.2540
 8045TIP3    H124099   4.442   3.649   2.511  0.7584  0.2569 -0.4148
 8045TIP3    H224100   4.444   3.800   2.520  1.0713  0.2883 -0.9818
 8046TIP3   OH224101   5.681   4.057   1.475  0.3386  0.1574  0.2795
 8046TIP3    H124102   5.687   3.962   1.463  0.8588  0.0346  1.4314
 8046TIP3    H224103   5.620   4.068   1.548 -0.4725  0.7632 -0.4671
 8047TIP3   OH224104   2.087   0.351   1.467 -0.2727 -0.2235  0.6890
 8047TIP3    H124105   2.168   0.369   1.419 -0.0477 -1.3881  0.6044
 8047TIP3    H224106   2.026   0.419   1.437  1.1240  1.7036  1.9687
 8048TIP3   OH224107   1.338   3.701   5.025 -0.2650 -0.0092 -0.4152
 8048TIP3    H124108   1.340   3.610   4.996  1.0482 -0.2687  0.4319
 8048TIP3    H224109   1.293   3.747   4.954  0.3931 -1.0651 -1.5548
 8049TIP3   OH224110   6.051   1.046   2.196 -0.0360 -0.5457  0.3041
 8049TIP3    H124111   5.967   1.062   2.153  0.7654  0.8371 -0.8295
 8049TIP3    H224112   6.110   1.112   2.160  2.4134 -3.3324 -1.3428
 8050TIP3   OH224113   6.291   3.107   4.131 -0.0417 -0.1025 -0.3422
 8050TIP3    H124114   6.268   3.019   4.161 -1.2428  0.5922  0.8748
 8050TIP3    H224115   6.219   3.131   4.071 -0.5506  0.6289  0.5378
 8051TIP3   OH224116   6.735   6.435   1.690  0.4254  0.2448  0.2114
 8051TIP3    H124117   6.720   6.351   1.648  1.9484  1.1909 -2.4172
 8051TIP3    H224118   6.664   6.491   1.658  0.8394  0.6197 -0.0626
 8052TIP3   OH224119   4.910   4.813   1.887 -0.3190  0.1575  0.3459
 8052TIP3    H124120   4.865   4.840   1.967 -1.6895 -0.6773 -0.1001
 8052TIP3    H224121   4.970   4.885   1.868 -1.5777  1.4149  0.9040
 8053TIP3   OH224122   6.861   3.202   4.375  1.3389  0.5148  0.2276
 8053TIP3    H124123   6.901   3.230   4.293 -0.8777 -3.3201 -2.4593
 8053TIP3    H224124   6.773   3.238   4.373  1.6202  1.4079  1.6782
 8054TIP3   OH224125   6.745   1.049   3.273 -0.1956  0.0815 -0.1699
 8054TIP3    H124126   6.840   1.063   3.268  0.0186 -1.2674 -0.1334
 8054TIP3    H224127   6.730   1.015   3.361 -0.5919 -0.5853 -0.4895
 8055TIP3   OH224128   4.836   4.793   5.614  0.2002  0.7810  0.0066
 8055TIP3    H124129   4.769   4.797   5.546  0.6625 -1.9617 -0.7207
 8055TIP3    H224130   4.880   4.878   5.610 -1.7080  1.7848 -1.0427
 8056TIP3   OH224131   1.439   3.026   3.158  0.0063  0.4052  0.7010
 8056TIP3    H124132   1.368   3.025   3.223  1.0433  0.3253  1.8790
 8056TIP3    H224133   1.398   2.995   3.077 -1.1851 -0.1363  1.4812
 8057TIP3   OH224134   1.496   2.964   4.237  0.7056 -0.1048 -0.1543
 8057TIP3    H124135   1.443   2.884   4.244  0.0916  0.2015 -1.1224
 8057TIP3    H224136   1.463   3.020   4.308  0.2510 -0.2190 -0.2667
 8058TIP3   OH224137   3.993   5.830   0.176 -0.1961  0.2245  0.2059
 8058TIP3    H124138   3.962   5.741   0.194 -2.1585  0.8918  0.3284
 8058TIP3    H224139   4.081   5.833   0.215  0.4560 -2.0160 -0.9066
 8059TIP3   OH224140   1.334   3.397   2.054 -0.0514  0.4644 -0.3991
 8059TIP3    H124141   1.341   3.405   2.150  0.6657  1.0605 -0.4916
 8059TIP3    H224142   1.241   3.408   2.036  0.0198  2.2008  0.0960
 8060TIP3   OH224143   0.214   3.112   3.203 -0.4865 -0.0308 -0.3560
 8060TIP3    H124144   0.170   3.073   3.127 -0.0422 -1.1540 -0.0575
 8060TIP3    H224145   0.143   3.132   3.264 -0.7359 -0.2686 -0.5641
 8061TIP3   OH224146   0.906   1.822   1.047 -0.7026  0.3437  0.6347
 8061TIP3    H124147   0.841   1.784   1.107 -1.6217 -0.4874 -0.8171
 8061TIP3    H224148   0.926   1.751   0.986  0.5930  1.0103  0.2609
 8062TIP3   OH224149   4.427   1.101   5.511 -0.0392 -0.1520 -0.5655
 8062TIP3    H124150   4.504   1.140   5.468 -0.5069  0.3706 -0.9576
 8062TIP3    H224151   4.358   1.165   5.495 -0.4533 -0.4270  0.1436
 8063TIP3   OH224152   2.461   0.805   0.892 -0.1019 -0.2366 -0.3758
 8063TIP3    H124153   2.537   0.846   0.850  1.2751 -1.2796  0.9421
 8063TIP3    H224154   2.422   0.751   0.823  2.1161 -1.9517 -0.4362
 8064TIP3   OH224155   0.742   4.869   5.553 -0.1240 -0.3655 -0.4593
 8064TIP3    H124156   0.744   4.916   5.636 -1.4945 -0.9668 -0.0565
 8064TIP3    H224157   0.810   4.911   5.499 -1.7566  2.5588 -0.3995
 8065TIP3   OH224158   6.661   2.806   2.439  0.1926 -0.1645  0.0228
 8065TIP3    H124159   6.719   2.766   2.503 -1.5809 -1.2680  1.0150
 8065TIP3    H224160   6.641   2.736   2.377 -1.0354 -0.1750  0.4004
 8066TIP3   OH224161   1.931   2.420   1.089 -0.1083 -0.0448 -0.2982
 8066TIP3    H124162   1.998   2.422   1.157  0.0419 -1.7925 -0.3519
 8066TIP3    H224163   1.978   2.397   1.009 -0.6219 -0.3158 -0.5278
 8067TIP3   OH224164   2.719   4.957   1.442 -0.0758  0.4780 -0.0920
 8067TIP3    H124165   2.796   4.949   1.498 -0.6571  2.8238  1.1363
 8067TIP3    H224166   2.753   4.996   1.361  0.4294 -1.0564 -0.6569
 8068TIP3   OH224167   2.361   6.060   0.419 -0.0352 -0.1632  0.2833
 8068TIP3    H124168   2.393   5.984   0.468  1.0538 -0.0347 -0.1962
 8068TIP3    H224169   2.432   6.124   0.424 -0.0598  0.0087 -1.0902
 8069TIP3   OH224170   1.351   0.312   3.682  0.3721 -0.1120 -0.7918
 8069TIP3    H124171   1.263   0.315   3.646 -0.8178 -3.0531  1.4432
 8069TIP3    H224172   1.342   0.345   3.771  1.4165 -0.7125 -0.4388
 8070TIP3   OH224173   2.245   2.618   3.072 -0.1177  0.0705  0.0166
 8070TIP3    H124174   2.313   2.634   3.007 -0.4604 -0.3017 -0.4430
 8070TIP3    H224175   2.205   2.703   3.088 -1.8875 -0.1966 -2.3482
 8071TIP3   OH224176   5.785   0.521   3.064  0.5310 -0.1797 -0.3345
 8071TIP3    H124177   5.828   0.602   3.092 -1.1554  0.5619  0.2840
 8071TIP3    H224178   5.695   0.548   3.045  0.4540 -1.5427 -2.1383
 8072TIP3   OH224179   7.094   4.459   4.841  0.8172 -0.0252  0.1114
 8072TIP3    H124180   7.012   4.417   4.816 -0.0622  1.3973  0.5545
 8072TIP3    H224181   7.073   4.552   4.849  2.5070  0.3870  0.0891
 8073TIP3   OH224182   0.110   5.142   0.859  0.5768  0.1065  0.0066
 8073TIP3    H124183   0.067   5.086   0.794 -0.1829  0.8922 -0.1841
 8073TIP3    H224184   0.108   5.230   0.820  0.7336  0.4634  0.7855
 8074TIP3   OH224185   3.079   4.962   3.899  0.0346  0.5898  0.4151
 8074TIP3    H124186   2.993   4.935   3.867  0.1311  1.8305 -1.0199
 8074TIP3    H224187   3.141   4.921   3.838  0.3837  0.8170  0.6162
 8075TIP3   OH224188   5.331   1.987   2.045  0.0801 -0.0091  0.0704
 8075TIP3    H124189   5.310   1.905   2.000 -0.3912  0.8076 -1.2882
 8075TIP3    H224190   5.277   2.053   2.000 -0.0012  0.9548  1.5160
 8076TIP3   OH224191   2.647   0.073   5.446  0.1860 -0.3453 -0.0676
 8076TIP3    H124192   2.625   0.037   5.360  0.6245  0.1604 -0.3965
 8076TIP3    H224193   2.659   0.167   5.430 -0.6874 -0.0921  0.7304
 8077TIP3   OH224194   0.669   5.331   0.762  0.4513  0.0028 -0.0457
 8077TIP3    H124195   0.580   5.343   0.796  0.6263  1.4598 -0.0428
 8077TIP3    H224196   0.725   5.333   0.839  0.3584 -3.4018  0.2505
 8078TIP3   OH224197   6.514   4.365   0.455  0.2021  0.1159 -0.2935
 8078TIP3    H124198   6.584   4.337   0.395  0.9169  0.9495  0.1287
 8078TIP3    H224199   6.547   4.344   0.542 -0.4177 -0.2036 -0.1339
 8079TIP3   OH224200   4.874   2.946   4.782 -0.4607  0.3373 -0.3491
 8079TIP3    H124201   4.802   2.900   4.739 -1.5068  0.1842  1.4739
 8079TIP3    H224202   4.900   2.889   4.854  0.2946  1.2109  0.0990
 8080TIP3   OH224203   7.090   5.849   3.219 -0.3680  0.0974  0.2136
 8080TIP3    H124204   7.176   5.883   3.195  0.7608 -2.4799  0.2946
 8080TIP3    H224205   7.043   5.841   3.136  0.0542  0.0300 -0.0210
 8081TIP3   OH224206   5.487   2.119   1.110  0.0356  0.0230 -0.3244
 8081TIP3    H124207   5.548   2.045   1.111  0.2969  0.2335 -0.2875
 8081TIP3    H224208   5.471   2.138   1.202 -1.2743 -0.9779 -0.3134
 8082TIP3   OH224209   0.181   3.721   4.926 -0.0010  0.4007 -0.0769
 8082TIP3    H124210   0.218   3.641   4.963  0.7157  0.5437 -0.4590
 8082TIP3    H224211   0.255   3.782   4.925 -0.5243  1.0491  0.1561
 8083TIP3   OH224212   2.324   3.551   4.474  0.5509 -0.0244  0.2959
 8083TIP3    H124213   2.303   3.473   4.422 -0.3146  1.2252 -1.3078
 8083TIP3    H224214   2.282   3.535   4.559 -1.4704 -0.4043 -0.7224
 8084TIP3   OH224215   4.793   6.008   5.633  0.5052  0.4635  0.6779
 8084TIP3    H124216   4.851   6.084   5.637 -0.5175  1.2630  0.8995
 8084TIP3    H224217   4.814   5.957   5.711  0.6602  0.9313  0.9453
 8085TIP3   OH224218   3.018   3.413   1.529  0.1378 -0.2620 -0.2914
 8085TIP3    H124219   2.964   3.335   1.517 -1.9522  0.7892  1.5474
 8085TIP3    H224220   2.955   3.482   1.550  2.1652  1.1919  1.3390
 8086TIP3   OH224221   5.655   1.947   5.452 -0.6452 -0.1993 -0.6217
 8086TIP3    H124222   5.695   1.861   5.442  0.2478  0.1632 -0.3594
 8086TIP3    H224223   5.571   1.941   5.408 -0.1655 -0.9153 -1.4615
 8087TIP3   OH224224   6.856   2.319   2.120  0.1809 -0.3721 -0.3438
 8087TIP3    H124225   6.941   2.294   2.155 -0.1351  1.1362  1.6798
 8087TIP3    H224226   6.868   2.409   2.090 -1.0238  0.4482  1.4433
 8088TIP3   OH224227   0.912   4.595   1.153 -0.2841 -0.0148 -0.0275
 8088TIP3    H124228   0.987   4.648   1.179  0.0623 -0.8252  0.6836
 8088TIP3    H224229   0.929   4.571   1.062  0.1660  0.0419  0.0438
 8089TIP3   OH224230   0.315   1.646   0.283  0.3250 -0.1886 -0.0039
 8089TIP3    H124231   0.301   1.661   0.376 -0.6904 -0.6615 -0.0675
 8089TIP3    H224232   0.410   1.636   0.274  0.4539  0.0977  0.9342
 8090TIP3   OH224233   3.243   6.352   1.379 -0.2933 -0.1976  0.1827
 8090TIP3    H124234   3.227   6.317   1.467 -1.7748 -0.5666 -0.2092
 8090TIP3    H224235   3.205   6.439   1.381  1.8374  0.7944  0.6133
 8091TIP3   OH224236   5.365   0.467   5.555  0.3693  0.1002 -0.0115
 8091TIP3    H124237   5.365   0.405   5.482  1.0781 -1.0412  0.9227
 8091TIP3    H224238   5.273   0.474   5.580  0.1072  0.5729 -1.0462
 8092TIP3   OH224239   4.639   5.784   4.546  0.1891  0.0978 -0.3430
 8092TIP3    H124240   4.702   5.848   4.513 -0.2297  0.9852  0.5248
 8092TIP3    H224241   4.554   5.816   4.515  0.1271 -1.1429 -1.5923
 8093TIP3   OH224242   1.679   3.264   1.705  0.6399 -0.4382  0.2253
 8093TIP3    H124243   1.731   3.344   1.706  0.4505 -0.2419 -1.7328
 8093TIP3    H224244   1.714   3.214   1.631 -0.2443 -1.4792  0.4840
 8094TIP3   OH224245   4.058   5.069   2.352  0.0586  0.2414 -0.2901
 8094TIP3    H124246   3.997   5.011   2.398  0.7852 -0.3200 -0.0122
 8094TIP3    H224247   4.061   5.148   2.407  1.6074 -0.7665  1.1913
 8095TIP3   OH224248   3.082   5.548   5.575  0.1582  0.1477  0.2167
 8095TIP3    H124249   3.065   5.562   5.482 -0.7762 -1.8408  0.0430
 8095TIP3    H224250   3.036   5.620   5.619  0.6893  1.1639 -0.8298
 8096TIP3   OH224251   2.012   1.579   3.945 -0.1085  0.4305 -0.2151
 8096TIP3    H124252   1.985   1.642   4.012 -0.8841  0.5180 -0.6015
 8096TIP3    H224253   1.957   1.598   3.870  0.7475  0.3211 -0.8894
 8097TIP3   OH224254   0.447   3.102   0.400  0.1457  0.3400  1.0105
 8097TIP3    H124255   0.535   3.124   0.431  0.3464 -1.6531  2.0796
 8097TIP3    H224256   0.462   3.052   0.320 -0.1081  1.1969  0.4185
 8098TIP3   OH224257   1.599   2.832   5.743  0.5973 -0.4514  0.4549
 8098TIP3    H124258   1.604   2.737   5.731  0.5705 -0.2764 -1.1860
 8098TIP3    H224259   1.688   2.859   5.763  0.4433 -0.9143  1.8390
 8099TIP3   OH224260   6.073   4.181   2.790 -0.5461  0.2789  0.6253
 8099TIP3    H124261   6.040   4.091   2.777 -1.6430  0.6134  0.9517
 8099TIP3    H224262   6.017   4.235   2.734 -0.8913  0.9337  1.5763
 8100TIP3   OH224263   3.064   0.107   3.226 -0.2681  0.0857  0.4704
 8100TIP3    H124264   3.098   0.080   3.141 -0.7979 -0.2116  0.3469
 8100TIP3    H224265   2.969   0.091   3.220 -0.4174  0.7957  0.8411
 8101TIP3   OH224266   5.608   5.395   4.512 -0.2429  0.4228  0.0195
 8101TIP3    H124267   5.577   5.366   4.427  0.8375  0.3536 -0.3722
 8101TIP3    H224268   5.654   5.319   4.548  0.5721  0.9021  0.0146
 8102TIP3   OH224269   1.012   4.494   5.647  0.0261  0.1797  1.1442
 8102TIP3    H124270   1.039   4.470   5.558 -0.3620 -0.6640  1.2415
 8102TIP3    H224271   1.086   4.544   5.682 -0.4525  1.9307 -0.1902
 8103TIP3   OH224272   1.865   4.984   2.508  0.0253  0.4132  0.2392
 8103TIP3    H124273   1.901   4.911   2.559  0.5380  0.3610 -0.1832
 8103TIP3    H224274   1.780   4.952   2.478 -0.4069  0.5563  1.2939
 8104TIP3   OH224275   5.607   5.031   2.396  0.3669  0.2346 -1.0830
 8104TIP3    H124276   5.655   5.108   2.425 -1.4984  1.7837 -1.8560
 8104TIP3    H224277   5.522   5.065   2.367 -0.9663 -2.2651 -0.3955
 8105TIP3   OH224278   2.121   5.322   0.326  0.0243 -0.0701  0.0559
 8105TIP3    H124279   2.127   5.353   0.235  0.7301  0.3137  0.2359
 8105TIP3    H224280   2.078   5.236   0.318  3.7842 -2.0733 -1.1090
 8106TIP3   OH224281   1.308   0.030   4.387  0.2056  0.5867 -0.0628
 8106TIP3    H124282   1.265  -0.009   4.463 -2.1855  1.2276 -0.9939
 8106TIP3    H224283   1.338   0.115   4.417 -0.1034  0.5506  0.3485
 8107TIP3   OH224284   5.311   2.350   0.274 -0.8344 -0.4528 -0.8928
 8107TIP3    H124285   5.284   2.420   0.333  2.8381  1.0005 -0.6953
 8107TIP3    H224286   5.304   2.388   0.187  1.1907  0.2521 -0.7837
 8108TIP3   OH224287   1.790   5.032   2.069  0.4361 -0.0297  0.7994
 8108TIP3    H124288   1.700   5.021   2.099 -0.3801 -0.0057 -1.4635
 8108TIP3    H224289   1.827   4.943   2.068 -0.7143 -0.5646 -1.4460
 8109TIP3   OH224290   2.473   0.395   1.095  0.4811 -0.0139 -0.3173
 8109TIP3    H124291   2.549   0.450   1.111  0.4068  0.6558 -1.9889
 8109TIP3    H224292   2.503   0.331   1.031 -0.6386  1.1255 -2.1082
 8110TIP3   OH224293   6.164   4.843   0.048 -0.0669  0.3306  0.0911
 8110TIP3    H124294   6.208   4.919   0.086 -1.2325  0.7273  0.7031
 8110TIP3    H224295   6.179   4.773   0.110 -0.7985  0.6298  0.6283
 8111TIP3   OH224296   3.418   5.418   2.478  0.0445 -0.1069  0.1658
 8111TIP3    H124297   3.395   5.355   2.410 -1.5397  0.0913  0.4685
 8111TIP3    H224298   3.513   5.414   2.484  0.1946 -0.3954 -1.7975
 8112TIP3   OH224299   6.001   6.693   4.607 -0.9487 -0.5469  0.5657
 8112TIP3    H124300   6.083   6.645   4.599 -0.7865 -0.2163  0.2556
 8112TIP3    H224301   5.934   6.629   4.581 -0.6928 -0.4502 -0.3635
 8113TIP3   OH224302   1.144   6.377   5.071  0.0651 -0.3747  0.2434
 8113TIP3    H124303   1.205   6.359   5.143 -1.3575  2.5527  2.3581
 8113TIP3    H224304   1.058   6.357   5.106 -0.6414  0.7294 -0.7825
 8114TIP3   OH224305   4.604   5.427   1.058 -0.2537 -0.3914  0.1976
 8114TIP3    H124306   4.521   5.382   1.068 -0.6567  0.6682  2.2473
 8114TIP3    H224307   4.580   5.516   1.031  0.2563 -0.2272  0.2762
 8115TIP3   OH224308   1.940   4.242   5.398  0.4859 -0.0357 -0.1180
 8115TIP3    H124309   1.977   4.250   5.486  0.4762 -0.6563 -0.0576
 8115TIP3    H224310   2.012   4.267   5.339  1.0904 -1.4582 -0.0124
 8116TIP3   OH224311   0.365   4.124   5.438 -0.0562  0.5475 -0.0435
 8116TIP3    H124312   0.403   4.211   5.435  0.5708  0.3109  0.7511
 8116TIP3    H224313   0.419   4.076   5.500 -1.9977  0.3794  1.6474
 8117TIP3   OH224314   2.812   6.120   4.492 -0.4868 -0.5850  0.5686
 8117TIP3    H124315   2.778   6.177   4.423 -0.1208 -0.7890  0.2082
 8117TIP3    H224316   2.876   6.174   4.538  1.2741 -1.2135 -0.9589
 8118TIP3   OH224317   1.140   2.169   4.795  0.5741 -0.3957 -0.0692
 8118TIP3    H124318   1.048   2.147   4.777  0.6979 -0.8797 -0.1137
 8118TIP3    H224319   1.185   2.085   4.798  1.2613 -0.1110 -1.3746
 8119TIP3   OH224320   6.773   4.566   4.632 -0.7349 -0.1528  0.2290
 8119TIP3    H124321   6.837   4.636   4.623  0.2556 -1.0430  0.1672
 8119TIP3    H224322   6.823   4.491   4.664 -1.9647 -0.5514  1.3122
 8120TIP3   OH224323   0.214   6.310   0.756 -0.2019  0.1082 -0.6327
 8120TIP3    H124324   0.265   6.390   0.761  1.3412 -0.8334 -0.5798
 8120TIP3    H224325   0.146   6.320   0.824  0.9107  0.7262  0.4245
 8121TIP3   OH224326   6.097   5.336   1.663  0.0252 -0.5912 -0.2880
 8121TIP3    H124327   6.094   5.264   1.601  1.9748 -0.4709 -0.6031
 8121TIP3    H224328   6.143   5.300   1.739  1.0934  0.3094 -0.4798
 8122TIP3   OH224329   4.804   1.969   3.489 -0.5398  0.0784 -0.2851
 8122TIP3    H124330   4.778   1.962   3.397 -3.0304  1.2103  0.2563
 8122TIP3    H224331   4.787   2.060   3.513 -0.9838 -0.4357  1.5587
 8123TIP3   OH224332   1.206   0.906   0.140  0.2557  0.0864 -0.2163
 8123TIP3    H124333   1.118   0.868   0.143  0.2410  0.0193 -1.1058
 8123TIP3    H224334   1.244   0.886   0.226  0.3782 -2.2881 -0.7434
 8124TIP3   OH224335   0.117   5.095   2.825 -0.5042  0.1506  0.4534
 8124TIP3    H124336   0.194   5.117   2.878  0.2606  1.4950 -1.1410
 8124TIP3    H224337   0.087   5.179   2.791 -1.4553 -0.5834 -0.5749
 8125TIP3   OH224338   4.764   4.830   0.563  0.1218 -1.0568 -0.2009
 8125TIP3    H124339   4.704   4.887   0.515 -0.9942 -1.3173  0.8303
 8125TIP3    H224340   4.782   4.758   0.502  2.0291  0.6349 -1.7333
 8126TIP3   OH224341   4.983   2.501   2.037  0.0532 -0.6317 -0.9400
 8126TIP3    H124342   4.891   2.508   2.061 -0.0398  0.7891 -1.6250
 8126TIP3    H224343   5.030   2.508   2.119 -0.4432 -2.0905 -0.4921
 8127TIP3   OH224344   4.600   3.730   1.835 -0.4163  0.3897  0.2722
 8127TIP3    H124345   4.653   3.737   1.914 -0.9696 -0.3181  0.7163
 8127TIP3    H224346   4.533   3.798   1.846  0.6022  1.5734 -0.4852
 8128TIP3   OH224347   6.933   1.846   2.787 -0.7586 -0.4006  0.1173
 8128TIP3    H124348   6.913   1.868   2.879  1.1821  0.9508  0.2724
 8128TIP3    H224349   6.847   1.831   2.748 -1.7579  0.5141  1.7985
 8129TIP3   OH224350   0.596   0.826   5.833  0.2448  0.3766 -0.1633
 8129TIP3    H124351   0.552   0.765   5.774 -2.1761 -0.5085  2.3450
 8129TIP3    H224352   0.570   0.912   5.801 -0.9720 -0.0757 -0.4606
 8130TIP3   OH224353   6.952   0.901   0.536 -0.0796  0.0801  0.1553
 8130TIP3    H124354   6.994   0.819   0.512  0.8062  0.6859 -0.4401
 8130TIP3    H224355   6.906   0.882   0.618  0.6089 -0.8453  0.3424
 8131TIP3   OH224356   2.773   3.090   2.573 -0.0302 -0.1820 -0.0272
 8131TIP3    H124357   2.760   3.185   2.574  0.9819  0.2053 -4.1317
 8131TIP3    H224358   2.867   3.078   2.581 -0.0814 -0.7871 -0.2626
 8132TIP3   OH224359   6.024   1.550   5.271  0.0774  0.8194 -0.1446
 8132TIP3    H124360   5.964   1.589   5.207  1.4798 -0.2350 -2.1907
 8132TIP3    H224361   6.000   1.457   5.272 -0.2563  0.9017  1.2897
 8133TIP3   OH224362   3.102   4.192   2.388 -0.3715  0.0217 -0.6689
 8133TIP3    H124363   3.191   4.161   2.406 -0.9206 -1.1477  0.1712
 8133TIP3    H224364   3.080   4.245   2.465 -0.2323  0.7415 -1.1119
 8134TIP3   OH224365   3.451   0.281   2.804  0.1031 -0.3308  0.7438
 8134TIP3    H124366   3.453   0.189   2.831  1.1719 -0.6609 -0.3626
 8134TIP3    H224367   3.385   0.284   2.734  0.3008 -0.3214  0.5580
 8135TIP3   OH224368   5.180   0.823   4.990 -0.2683  0.3249  0.0999
 8135TIP3    H124369   5.138   0.903   4.959 -0.5831  0.4754  0.8860
 8135TIP3    H224370   5.130   0.752   4.950  1.2325  0.4651 -2.2555
 8136TIP3   OH224371   4.566   5.434   1.489 -0.0817  0.7415  0.3696
 8136TIP3    H124372   4.598   5.524   1.493 -2.5862  1.7792 -0.9842
 8136TIP3    H224373   4.497   5.429   1.554 -1.5982  0.5775 -1.1831
 8137TIP3   OH224374   1.935   5.249   2.546  0.0462 -0.4009 -0.3128
 8137TIP3    H124375   1.874   5.296   2.489 -1.0952 -0.6832  0.6293
 8137TIP3    H224376   1.902   5.159   2.547  0.7955 -0.6862 -0.1979
 8138TIP3   OH224377   3.567   3.648   1.232  0.1603 -0.3214  0.2347
 8138TIP3    H124378   3.566   3.580   1.166 -1.4601 -0.2519  0.1522
 8138TIP3    H224379   3.586   3.729   1.184 -2.9394  0.0580 -0.5804
 8139TIP3   OH224380   4.112   4.314   4.427  0.0240 -0.1469 -0.0193
 8139TIP3    H124381   4.132   4.407   4.435 -1.7025  0.1522  1.2971
 8139TIP3    H224382   4.167   4.284   4.354  1.4194  1.6392  0.2202
 8140TIP3   OH224383   1.560   3.365   0.098 -0.3169  0.3677  0.0373
 8140TIP3    H124384   1.542   3.459   0.105  1.6898  0.7628  0.2904
 8140TIP3    H224385   1.535   3.331   0.184 -3.2492  0.1922 -0.7615
 8141TIP3   OH224386   0.409   0.600   3.263 -0.2820  0.4681  0.1040
 8141TIP3    H124387   0.435   0.524   3.314 -0.4649 -0.1836 -0.7494
 8141TIP3    H224388   0.321   0.621   3.295 -1.2722 -1.2354 -1.3513
 8142TIP3   OH224389   4.741   2.932   0.723 -0.5419 -0.1498  0.6794
 8142TIP3    H124390   4.719   3.024   0.705  0.4004 -0.2264 -1.0708
 8142TIP3    H224391   4.797   2.936   0.800  2.7346  1.2415 -1.5690
 8143TIP3   OH224392   1.984   3.682   0.412 -0.8698 -0.3823 -0.7067
 8143TIP3    H124393   1.963   3.773   0.432 -0.2870 -0.6753  1.5428
 8143TIP3    H224394   1.970   3.636   0.495 -0.1131 -2.1446 -1.5178
 8144TIP3   OH224395   1.162   5.700   0.647  0.2516 -0.0530  0.0865
 8144TIP3    H124396   1.081   5.654   0.669 -1.3732  2.0082 -1.2326
 8144TIP3    H224397   1.160   5.708   0.552  1.5646  0.8485  0.1101
 8145TIP3   OH224398   2.916   2.815   0.762 -0.2092  0.0029  0.1760
 8145TIP3    H124399   2.848   2.812   0.830  0.1004 -1.2189  0.4538
 8145TIP3    H224400   2.869   2.794   0.681 -0.4132  0.5649  0.1438
 8146TIP3   OH224401   4.275   3.980   0.661 -0.0578  0.4320  0.4807
 8146TIP3    H124402   4.290   4.060   0.611 -0.3196 -0.6585 -1.4187
 8146TIP3    H224403   4.363   3.950   0.685  0.0416  1.2494  1.1760
 8147TIP3   OH224404   5.352   0.269   5.386  0.0016  0.4534  0.0233
 8147TIP3    H124405   5.313   0.295   5.303 -1.0938 -0.1084  0.3368
 8147TIP3    H224406   5.394   0.185   5.367 -1.4439 -0.3627  0.3396
 8148TIP3   OH224407   4.332   2.604   4.802  0.0037 -0.4327  0.6375
 8148TIP3    H124408   4.269   2.605   4.874 -1.5101 -1.0315 -0.6111
 8148TIP3    H224409   4.331   2.693   4.768 -1.7884 -0.8773 -0.6454
 8149TIP3   OH224410   6.091   3.769   4.089 -0.5110  0.3369 -0.0658
 8149TIP3    H124411   6.088   3.679   4.122 -0.9983  0.3960  0.0623
 8149TIP3    H224412   6.152   3.814   4.147  2.0431 -0.5880 -1.8669
 8150TIP3   OH224413   0.215   5.843   1.393  0.0863  0.2787 -0.4060
 8150TIP3    H124414   0.269   5.890   1.456 -0.7556  1.6646 -0.6873
 8150TIP3    H224415   0.265   5.846   1.311  0.4143 -0.0808 -0.2267
 8151TIP3   OH224416   4.900   4.421   2.846  0.1298  0.3533 -0.1177
 8151TIP3    H124417   4.952   4.487   2.800  0.3302  0.9365  0.9172
 8151TIP3    H224418   4.822   4.410   2.791  0.8397  0.2471 -1.1317
 8152TIP3   OH224419   0.697   2.664   1.560 -0.0214  0.2462 -0.0168
 8152TIP3    H124420   0.653   2.625   1.635 -0.4441  1.7525  0.5714
 8152TIP3    H224421   0.707   2.756   1.584  3.2777  0.0587 -0.2072
 8153TIP3   OH224422   4.635   5.138   0.817 -0.2343  0.0399 -0.1053
 8153TIP3    H124423   4.597   5.113   0.902  0.4259  0.6007  0.3686
 8153TIP3    H224424   4.563   5.178   0.769 -0.7307 -0.6899  0.0063
 8154TIP3   OH224425   0.112   3.122   0.205  0.3630  0.7549  0.2281
 8154TIP3    H124426   0.133   3.062   0.276  0.7055  0.8007  0.1687
 8154TIP3    H224427   0.097   3.206   0.249  0.0977  0.6778  0.2896
 8155TIP3   OH224428   2.557   0.331   3.846 -0.5849 -0.1305 -0.0808
 8155TIP3    H124429   2.571   0.420   3.813  0.5255  0.5199  1.9691
 8155TIP3    H224430   2.629   0.280   3.809 -0.5600  0.0967 -0.3445
 8156TIP3   OH224431   1.619   4.298   5.560 -0.4127  0.0993  0.2650
 8156TIP3    H124432   1.543   4.354   5.573  0.1490  0.9492 -0.0431
 8156TIP3    H224433   1.636   4.302   5.466 -0.1607 -0.3080  0.2904
 8157TIP3   OH224434   5.736   2.410   1.406  0.0624 -0.6731 -0.1299
 8157TIP3    H124435   5.691   2.358   1.340 -1.5554 -0.8697  1.0792
 8157TIP3    H224436   5.698   2.497   1.398  0.5415 -0.4564 -0.0741
 8158TIP3   OH224437   1.043   6.756   5.379 -0.3563  0.2302  0.7093
 8158TIP3    H124438   1.106   6.807   5.429  0.1733  0.5435 -0.2492
 8158TIP3    H224439   1.069   6.768   5.287 -1.9738  0.5868  0.2624
 8159TIP3   OH224440   7.166   0.807   4.670 -0.6317  0.4991 -0.1726
 8159TIP3    H124441   7.091   0.786   4.614 -1.8085  1.8690  0.7845
 8159TIP3    H224442   7.151   0.757   4.751  0.8975 -1.2389 -0.9088
 8160TIP3   OH224443   0.022   3.300   4.941 -0.1139 -0.3370  0.3477
 8160TIP3    H124444   0.006   3.372   4.880  0.4907  0.6356  1.3077
 8160TIP3    H224445   0.091   3.332   4.999  0.3480 -1.7888  0.6485
 8161TIP3   OH224446   7.205   1.201   0.653  0.1213  0.5730 -0.0848
 8161TIP3    H124447   7.225   1.109   0.636 -0.0609  0.6387 -0.6670
 8161TIP3    H224448   7.179   1.203   0.745  1.9368  0.3434  0.4787
 8162TIP3   OH224449   4.460   0.077   5.268 -0.4233  0.5607 -0.2530
 8162TIP3    H124450   4.400   0.132   5.218  0.2639  1.2551 -0.3429
 8162TIP3    H224451   4.502   0.138   5.330  0.0900  0.0683 -0.1053
 8163TIP3   OH224452   3.093   3.610   1.330  0.0240 -0.4797  0.5255
 8163TIP3    H124453   3.180   3.645   1.349 -0.1710  0.5319 -0.3396
 8163TIP3    H224454   3.074   3.552   1.403  0.5218  0.9704  1.8531
 8164TIP3   OH224455   5.596   5.556   2.870  0.4633  0.2691  0.4770
 8164TIP3    H124456   5.631   5.578   2.784  2.2192  0.3351  1.1723
 8164TIP3    H224457   5.598   5.460   2.873  2.7621  0.2893  1.3167
 8165TIP3   OH224458   0.664   2.753   2.741  0.1557  0.0549 -0.5003
 8165TIP3    H124459   0.743   2.735   2.791  0.5539 -0.4696 -1.2918
 8165TIP3    H224460   0.694   2.803   2.665 -0.3732  0.4612 -0.4525
 8166TIP3   OH224461   1.363   1.712   5.501 -0.5075  0.4446  0.1566
 8166TIP3    H124462   1.318   1.777   5.447 -1.6280 -2.9333 -3.4598
 8166TIP3    H224463   1.403   1.653   5.437  3.5467 -0.5265  3.1957
 8167TIP3   OH224464   5.873   6.730   1.569 -0.3235  0.3677 -0.1029
 8167TIP3    H124465   5.936   6.659   1.560 -1.2174 -0.3412 -1.1647
 8167TIP3    H224466   5.919   6.808   1.538  0.4114  0.1092  0.3240
 8168TIP3   OH224467   1.840   5.805   3.147  0.0884  0.1128  0.0174
 8168TIP3    H124468   1.796   5.791   3.231 -0.2095  2.7135  0.3968
 8168TIP3    H224469   1.771   5.840   3.090  0.3609 -1.3233 -1.2410
 8169TIP3   OH224470   3.177   2.829   2.907 -0.8362  0.1992  0.4633
 8169TIP3    H124471   3.213   2.785   2.830  1.3905 -0.8592  1.9883
 8169TIP3    H224472   3.143   2.758   2.961 -3.7000  1.0357 -0.0678
 8170TIP3   OH224473   0.949   5.480   3.700  0.0100 -0.5387 -0.1502
 8170TIP3    H124474   0.919   5.388   3.700  0.3574 -0.6533  0.1442
 8170TIP3    H224475   1.041   5.475   3.726 -0.4771  0.0582  1.8267
 8171TIP3   OH224476   0.317   4.370   0.673 -0.2857 -0.1138 -0.1017
 8171TIP3    H124477   0.255   4.433   0.710 -0.5272 -0.0772 -0.5545
 8171TIP3    H224478   0.394   4.421   0.651 -0.1980 -0.1099  0.2215
 8172TIP3   OH224479   3.671   4.055   4.208 -0.1963 -0.4638  0.3001
 8172TIP3    H124480   3.615   4.026   4.281 -0.5981  0.9477  0.5736
 8172TIP3    H224481   3.754   4.078   4.250 -0.5855  0.8159  0.4108
 8173TIP3   OH224482   0.994   0.195   1.453 -0.0826  0.6520 -0.0851
 8173TIP3    H124483   1.065   0.170   1.393 -0.3572  2.0068 -1.0223
 8173TIP3    H224484   0.916   0.152   1.418 -0.1247  0.9153 -0.3106
 8174TIP3   OH224485   3.769   3.590   4.785 -0.7255  0.5220 -0.2894
 8174TIP3    H124486   3.708   3.660   4.762 -0.7319  1.0095  1.1546
 8174TIP3    H224487   3.771   3.534   4.707 -3.1793  0.3652 -0.3165
 8175TIP3   OH224488   2.116   4.777   4.623  0.1831  0.0269 -0.1329
 8175TIP3    H124489   2.142   4.687   4.608  0.7111  0.3663 -1.3917
 8175TIP3    H224490   2.198   4.826   4.629 -0.0382  0.2405  2.0690
 8176TIP3   OH224491   6.318   1.306   2.752 -0.3280 -0.2516  0.1141
 8176TIP3    H124492   6.314   1.259   2.836  0.0020 -0.0202  0.2622
 8176TIP3    H224493   6.382   1.375   2.767 -0.8671  0.3001 -0.0760
 8177TIP3   OH224494   1.722   4.103   1.645 -0.2857 -0.1079 -0.5936
 8177TIP3    H124495   1.709   4.073   1.734 -0.1290  0.8770 -0.2268
 8177TIP3    H224496   1.636   4.138   1.618  0.2600  1.9047  0.0930
 8178TIP3   OH224497   6.781   2.691   2.002 -0.0095  0.0717 -0.1785
 8178TIP3    H124498   6.771   2.774   1.953  3.3795  0.6599 -0.1135
 8178TIP3    H224499   6.820   2.717   2.085  0.3099 -1.5285  0.1952
 8179TIP3   OH224500   2.752   3.768   4.877  0.1495 -0.2108  0.0763
 8179TIP3    H124501   2.720   3.854   4.849 -0.0004 -0.2003  0.2819
 8179TIP3    H224502   2.701   3.706   4.824 -2.1591 -0.3206  2.2160
 8180TIP3   OH224503   1.757   2.237   4.273 -0.5105  0.7036  0.7365
 8180TIP3    H124504   1.708   2.279   4.344  0.8423  1.8278  1.0436
 8180TIP3    H224505   1.699   2.243   4.197 -1.0529  1.5278  1.2055
 8181TIP3   OH224506   3.850   2.585   2.340  0.0499 -0.2079  0.1223
 8181TIP3    H124507   3.831   2.542   2.423  1.3892 -0.0141  0.5579
 8181TIP3    H224508   3.800   2.536   2.275 -1.4241 -0.0441  1.0937
 8182TIP3   OH224509   6.322   2.240   2.720  0.4669 -0.0328  0.0868
 8182TIP3    H124510   6.338   2.159   2.770 -2.6698 -0.9313 -0.1274
 8182TIP3    H224511   6.321   2.212   2.629 -2.3234 -0.2301  0.0876
 8183TIP3   OH224512   5.039   2.232   4.918  0.0008  0.0962 -0.1058
 8183TIP3    H124513   4.957   2.251   4.873 -0.9861  0.8290  1.8649
 8183TIP3    H224514   5.099   2.300   4.887 -0.9784  1.2614  0.4511
 8184TIP3   OH224515   4.445   6.122   5.024  0.2538  0.1119  0.1013
 8184TIP3    H124516   4.499   6.044   5.020  1.6960  1.0765  0.0303
 8184TIP3    H224517   4.488   6.184   4.965 -0.4774  1.1929  0.6689
 8185TIP3   OH224518   1.362   6.561   3.060 -0.3764 -0.0763  0.5991
 8185TIP3    H124519   1.369   6.614   2.980 -0.7240 -1.8353 -0.6377
 8185TIP3    H224520   1.451   6.558   3.094  0.0490 -0.4548 -0.5012
 8186TIP3   OH224521   5.803   0.059   3.007  0.1116  0.6966  0.6414
 8186TIP3    H124522   5.803  -0.005   3.078  0.1053 -1.2224 -0.9845
 8186TIP3    H224523   5.892   0.054   2.971 -0.0491  1.2196  0.1580
 8187TIP3   OH224524   5.293   1.144   0.521 -0.1751 -0.4726 -0.0952
 8187TIP3    H124525   5.304   1.237   0.499 -1.5919 -0.4823 -0.9804
 8187TIP3    H224526   5.319   1.098   0.441 -2.6144 -0.6361 -0.8975
 8188TIP3   OH224527   3.704   3.257   4.648 -0.0368  0.1281 -0.1368
 8188TIP3    H124528   3.796   3.233   4.641 -0.5038 -2.2238  0.9391
 8188TIP3    H224529   3.691   3.282   4.739 -0.4917  0.2748 -0.2358
 8189TIP3   OH224530   0.150   2.312   4.609  0.1497  0.0376 -0.1000
 8189TIP3    H124531   0.164   2.271   4.694 -3.2543 -2.3238 -0.4796
 8189TIP3    H224532   0.085   2.380   4.626  1.7290  1.7002 -0.4081
 8190TIP3   OH224533   0.606   1.999   2.250 -0.2997  0.2152 -0.6506
 8190TIP3    H124534   0.622   2.046   2.332  0.8171 -1.3323  0.0625
 8190TIP3    H224535   0.689   2.004   2.203 -0.4543 -0.2548 -0.9780
 8191TIP3   OH224536   5.679   2.001   0.887  0.2645  0.3579 -0.4056
 8191TIP3    H124537   5.733   2.028   0.960  1.3881  0.1479 -1.1300
 8191TIP3    H224538   5.616   2.072   0.875 -0.5675 -0.0359  1.3405
 8192TIP3   OH224539   6.816   4.129   4.100  0.3900  0.1794 -0.5422
 8192TIP3    H124540   6.848   4.039   4.103 -0.0830  0.0018 -0.7401
 8192TIP3    H224541   6.858   4.172   4.174 -0.7910 -0.6789  0.6847
 8193TIP3   OH224542   4.980   5.036   5.518  0.0424 -0.5428 -0.1636
 8193TIP3    H124543   5.066   5.025   5.480  0.1050 -0.6156 -0.0015
 8193TIP3    H224544   4.921   5.048   5.443  0.0980 -1.1203 -0.3008
 8194TIP3   OH224545   1.101   6.585   4.294  0.1900 -0.1961  0.1147
 8194TIP3    H124546   1.040   6.659   4.300  2.6648  1.9154  5.1235
 8194TIP3    H224547   1.177   6.620   4.248 -0.1871 -1.0904 -1.2483
 8195TIP3   OH224548   2.950   5.440   2.866  0.2204 -0.3814 -0.5176
 8195TIP3    H124549   2.868   5.424   2.914  1.8140  0.0435  2.6349
 8195TIP3    H224550   2.926   5.431   2.774 -4.2654  3.4306 -0.0924
 8196TIP3   OH224551   4.501   0.198   4.946 -0.0024 -0.2220 -0.1917
 8196TIP3    H124552   4.465   0.222   4.860  0.2505 -0.8561 -0.4834
 8196TIP3    H224553   4.429   0.213   5.007  0.1767  1.3949 -0.3208
 8197TIP3   OH224554   1.596   1.913   0.090 -0.2469 -0.0298  0.5527
 8197TIP3    H124555   1.617   1.829   0.049 -0.2181  0.7557 -1.1341
 8197TIP3    H224556   1.500   1.912   0.099 -0.1908 -0.4967  1.1493
 8198TIP3   OH224557   0.561   5.562   5.179 -0.5638  0.2805 -0.2239
 8198TIP3    H124558   0.470   5.551   5.152 -0.1668  0.3578 -1.6714
 8198TIP3    H224559   0.591   5.639   5.131  0.8893 -1.0126 -1.5065
 8199TIP3   OH224560   1.226   5.209   4.469 -0.6568  0.3397  0.0172
 8199TIP3    H124561   1.272   5.165   4.541 -2.1310 -0.9543  0.2122
 8199TIP3    H224562   1.242   5.302   4.484  1.6426 -0.0167  0.2162
 8200TIP3   OH224563   1.706   1.034   2.000  0.6870 -0.0700 -0.1418
 8200TIP3    H124564   1.632   0.973   1.995  0.4761  0.1852 -0.1480
 8200TIP3    H224565   1.682   1.094   2.072  0.9810 -0.1123 -0.0078
 8201TIP3   OH224566   3.263   2.384   4.994  0.3125  0.2323 -0.1482
 8201TIP3    H124567   3.260   2.443   4.919 -0.2163 -0.7306 -0.8980
 8201TIP3    H224568   3.345   2.405   5.038  1.4528 -0.3081 -1.9223
 8202TIP3   OH224569   3.525   2.421   1.743 -0.0421  0.1999  0.6596
 8202TIP3    H124570   3.618   2.415   1.721 -0.3227 -2.6977 -0.2272
 8202TIP3    H224571   3.497   2.504   1.706  1.5151 -0.3432 -2.0385
 8203TIP3   OH224572   2.251   6.595   3.521  0.0566  0.2979 -0.4619
 8203TIP3    H124573   2.337   6.601   3.480  0.0211  1.4398 -0.3977
 8203TIP3    H224574   2.234   6.683   3.553 -0.1021 -0.4453  1.6378
 8204TIP3   OH224575   1.036   5.737   2.620  0.4849  0.7793  0.4954
 8204TIP3    H124576   0.989   5.672   2.567  2.0653  1.3786 -1.7970
 8204TIP3    H224577   0.989   5.819   2.604 -0.7439  0.4958  2.3788
 8205TIP3   OH224578   1.498   1.897   4.087  0.1381  0.3837  0.5513
 8205TIP3    H124579   1.452   1.815   4.104  0.6527  0.2512  1.3181
 8205TIP3    H224580   1.530   1.887   3.997 -1.3199  0.4898 -0.0219
 8206TIP3   OH224581   5.915   3.083   5.635  0.2704 -0.2260 -0.3350
 8206TIP3    H124582   5.868   3.006   5.601 -0.4054  0.4225 -0.8854
 8206TIP3    H224583   5.864   3.158   5.604 -0.2090  0.4098  1.8153
 8207TIP3   OH224584   1.143   0.895   1.260  0.0203 -0.1821 -0.2331
 8207TIP3    H124585   1.180   0.920   1.345 -1.2019  0.3834  0.1570
 8207TIP3    H224586   1.084   0.968   1.238 -1.6325 -1.4998 -0.3385
 8208TIP3   OH224587   2.257   1.714   0.823  0.2615  0.2402  0.0939
 8208TIP3    H124588   2.327   1.779   0.833 -0.4540  0.8763  1.2320
 8208TIP3    H224589   2.178   1.766   0.810  0.0674 -0.4834 -1.9981
 8209TIP3   OH224590   5.549   1.363   1.514  0.2717  0.4157  0.7615
 8209TIP3    H124591   5.535   1.420   1.590 -1.6079  1.0526 -0.0047
 8209TIP3    H224592   5.464   1.361   1.469  0.4551 -2.4308  0.3453
 8210TIP3   OH224593   2.025   0.531   2.125  0.4080 -0.4362 -0.4162
 8210TIP3    H124594   2.049   0.452   2.173 -1.4843 -0.9443 -0.2054
 8210TIP3    H224595   1.996   0.592   2.192  2.1278  0.5710 -0.5564
 8211TIP3   OH224596   5.377   3.056   5.617  0.9235  0.1186 -0.3417
 8211TIP3    H124597   5.434   3.105   5.677  1.6761 -0.1023 -0.8650
 8211TIP3    H224598   5.288   3.076   5.647  1.2870 -0.4719  1.2468
 8212TIP3   OH224599   6.137   1.171   5.506 -0.0787 -0.1541 -0.2668
 8212TIP3    H124600   6.107   1.191   5.594  0.3663  0.4600 -0.2476
 8212TIP3    H224601   6.058   1.150   5.457 -0.4859  0.9598 -0.1008
 8213TIP3   OH224602   2.851   3.588   2.474  0.0381  0.1433  0.3936
 8213TIP3    H124603   2.907   3.595   2.552  0.3687 -0.9096  0.2731
 8213TIP3    H224604   2.896   3.640   2.407 -0.5572  1.5602  1.0447
 8214TIP3   OH224605   0.767   4.220   4.813  0.0849 -0.9146  0.1058
 8214TIP3    H124606   0.740   4.208   4.904  0.3265 -1.5502  0.0981
 8214TIP3    H224607   0.858   4.248   4.818  0.7222 -2.8484  0.0213
 8215TIP3   OH224608   2.090   4.862   4.014  0.6162  0.4770 -0.0483
 8215TIP3    H124609   2.056   4.826   3.933  2.1471 -2.5522  0.4896
 8215TIP3    H224610   2.166   4.807   4.035  0.9403  1.8104  2.8762
 8216TIP3   OH224611   1.232   4.400   0.511 -0.2662 -0.0342  0.1441
 8216TIP3    H124612   1.149   4.360   0.540 -0.2072 -0.9618 -0.9066
 8216TIP3    H224613   1.293   4.326   0.505  1.1876  0.8396  2.5843
 8217TIP3   OH224614   3.996   4.415   2.055 -0.4816  0.1034 -0.4747
 8217TIP3    H124615   3.942   4.337   2.042 -0.3514 -0.2988  1.1575
 8217TIP3    H224616   3.971   4.474   1.984 -1.6903 -0.8163 -0.8463
 8218TIP3   OH224617   2.987   4.951   0.589  0.2256 -0.1251 -0.1721
 8218TIP3    H124618   2.976   4.943   0.494  1.2189 -1.3772 -0.2083
 8218TIP3    H224619   2.919   4.894   0.625  0.3162 -0.2136 -0.1428
 8219TIP3   OH224620   6.187   0.238   4.878 -0.5647 -0.2695 -0.1768
 8219TIP3    H124621   6.116   0.226   4.814 -0.5640 -0.5543 -0.1276
 8219TIP3    H224622   6.151   0.202   4.960  0.4346 -2.5382 -0.6673
 8220TIP3   OH224623   5.593   6.168   2.144  0.2121 -0.1741 -0.3274
 8220TIP3    H124624   5.678   6.193   2.180  1.0489 -0.4408 -1.9999
 8220TIP3    H224625   5.606   6.079   2.112 -0.0861  0.4390 -2.2883
 8221TIP3   OH224626   2.922   0.983   0.248  0.2548 -0.3956 -0.3806
 8221TIP3    H124627   2.926   0.914   0.182 -1.2447  0.0123 -0.9177
 8221TIP3    H224628   2.830   1.008   0.252  0.4718  0.2834  1.1546
 8222TIP3   OH224629   5.022   2.324   1.588 -0.3717 -0.0743  0.0257
 8222TIP3    H124630   5.098   2.379   1.569  0.4959 -0.8399  1.1244
 8222TIP3    H224631   4.951   2.385   1.608 -0.3059  0.6699 -1.8258
 8223TIP3   OH224632   5.701   5.470   3.649  0.1118  0.1411 -0.5493
 8223TIP3    H124633   5.779   5.416   3.636  0.6568  0.0986  2.3344
 8223TIP3    H224634   5.635   5.409   3.680  0.0867  0.7437  0.6311
 8224TIP3   OH224635   5.793   4.545   0.640 -0.0103 -0.0889  0.0437
 8224TIP3    H124636   5.866   4.497   0.601  1.7346  0.3285  2.5578
 8224TIP3    H224637   5.804   4.635   0.608  0.8192  0.0440  0.6778
 8225TIP3   OH224638   1.783   0.864   4.415 -1.0144  0.5307 -0.0587
 8225TIP3    H124639   1.866   0.905   4.390 -1.0292 -0.0883 -1.1502
 8225TIP3    H224640   1.743   0.838   4.333 -1.0833 -1.5494  0.5882
 8226TIP3   OH224641   1.882   4.128   2.385  0.3919 -0.2952  0.1467
 8226TIP3    H124642   1.948   4.154   2.449  0.3381  0.2495 -0.0168
 8226TIP3    H224643   1.809   4.095   2.438  0.3118  0.2411  0.3738
 8227TIP3   OH224644   1.766   3.393   3.278 -0.4648  0.6483 -0.2523
 8227TIP3    H124645   1.792   3.352   3.361  1.0395 -0.5270 -1.2447
 8227TIP3    H224646   1.679   3.357   3.260 -0.6397  0.6102  0.6183
 8228TIP3   OH224647   1.147   2.327   2.347  0.3775  0.0902  0.0868
 8228TIP3    H124648   1.051   2.330   2.352  0.3200 -0.6525 -0.3620
 8228TIP3    H224649   1.165   2.261   2.280  1.2140  0.0396  0.3533
 8229TIP3   OH224650   1.007   3.172   5.185  0.1442  0.0911  0.0727
 8229TIP3    H124651   1.101   3.160   5.198  0.1481  1.0144  1.0061
 8229TIP3    H224652   0.997   3.177   5.090  1.1408  0.6535 -0.0253
 8230TIP3   OH224653   5.475   1.313   4.439 -0.2170 -0.3299 -0.7334
 8230TIP3    H124654   5.475   1.363   4.357 -1.2118  1.1731  0.1341
 8230TIP3    H224655   5.403   1.252   4.430  1.1797 -1.8835 -1.9176
 8231TIP3   OH224656   5.712   5.162   4.630 -0.5338 -0.0598  0.2939
 8231TIP3    H124657   5.667   5.092   4.678 -0.3995  0.2432  0.8705
 8231TIP3    H224658   5.785   5.187   4.687 -1.1275  1.1925  0.5230
 8232TIP3   OH224659   2.778   4.746   0.113 -0.1108 -0.4255 -0.2902
 8232TIP3    H124660   2.728   4.804   0.056  1.2555  0.0891 -1.0086
 8232TIP3    H224661   2.760   4.777   0.201  0.6831  1.1987 -0.6663
 8233TIP3   OH224662   4.459   1.384   0.155 -0.1336 -0.0514  0.2529
 8233TIP3    H124663   4.545   1.384   0.197  1.2184 -0.2549 -2.3103
 8233TIP3    H224664   4.440   1.291   0.140 -1.4344 -0.0996  1.8505
 8234TIP3   OH224665   2.245   3.555   0.559  0.4237  0.4361  0.4076
 8234TIP3    H124666   2.312   3.515   0.615  0.8097 -0.6165 -0.7616
 8234TIP3    H224667   2.163   3.538   0.604  0.6937 -0.6804  0.5079
 8235TIP3   OH224668   4.548   3.101   3.896 -0.0375  0.3189  0.0611
 8235TIP3    H124669   4.499   3.168   3.848  1.3157  1.9196  0.8274
 8235TIP3    H224670   4.553   3.134   3.986  2.6108  0.3879 -0.0228
 8236TIP3   OH224671   1.119   2.793   2.259 -0.4720  0.3012 -0.2565
 8236TIP3    H124672   1.184   2.730   2.227  0.5907  1.2747 -0.1163
 8236TIP3    H224673   1.041   2.741   2.278  0.5886 -1.0555  0.5153
 8237TIP3   OH224674   1.634   1.735   2.171 -0.5219  1.1390 -0.1961
 8237TIP3    H124675   1.680   1.686   2.239 -0.4004  1.0883 -0.3143
 8237TIP3    H224676   1.595   1.668   2.115 -0.6941  1.1814 -0.1289
 8238TIP3   OH224677   1.256   4.196   5.682 -0.0076  0.6281 -0.0101
 8238TIP3    H124678   1.163   4.212   5.696  0.1190  1.3379  0.0192
 8238TIP3    H224679   1.292   4.281   5.656  0.4239  0.1226 -1.1455
 8239TIP3   OH224680   0.598   1.522   3.791 -0.1948 -0.3413  0.0376
 8239TIP3    H124681   0.578   1.595   3.850 -1.9207 -0.4703 -0.3214
 8239TIP3    H224682   0.582   1.557   3.704 -1.9028 -1.3269 -0.1030
 8240TIP3   OH224683   3.231   4.207   5.840  0.2014 -0.3387  0.4192
 8240TIP3    H124684   3.240   4.245   5.927  0.7308 -0.1879  0.3043
 8240TIP3    H224685   3.253   4.115   5.852  2.1530  0.0304  0.1356
 8241TIP3   OH224686   4.132   2.171   2.338 -0.0148  0.2458  0.2064
 8241TIP3    H124687   4.043   2.147   2.314 -0.2492  0.7350  0.5672
 8241TIP3    H224688   4.125   2.260   2.371  0.3617 -0.2157  1.6135
 8242TIP3   OH224689   1.514   2.711   2.290 -0.1161  0.1498 -0.4482
 8242TIP3    H124690   1.506   2.769   2.214 -1.9393  1.2150  0.4873
 8242TIP3    H224691   1.433   2.659   2.290 -0.5991  0.8152  1.2213
 8243TIP3   OH224692   4.421   0.456   4.035 -0.0619 -0.3298 -0.5676
 8243TIP3    H124693   4.400   0.368   4.004  0.7746 -0.4688 -0.7592
 8243TIP3    H224694   4.395   0.514   3.964  0.2294 -0.5023 -0.8177
 8244TIP3   OH224695   5.071   0.517   2.601  0.0877 -0.2362 -0.8540
 8244TIP3    H124696   5.142   0.580   2.605 -0.0746 -0.0133 -1.3560
 8244TIP3    H224697   5.108   0.442   2.554 -0.0133 -0.1093 -1.1393
 8245TIP3   OH224698   1.459   6.587   5.359 -0.1278  0.3326  0.2464
 8245TIP3    H124699   1.517   6.643   5.411 -0.6750  0.5289  0.6484
 8245TIP3    H224700   1.400   6.647   5.315 -0.6707  0.0781  0.6217
 8246TIP3   OH224701   5.404   6.140   4.423 -0.5036 -0.4133 -0.1913
 8246TIP3    H124702   5.496   6.153   4.402  0.4385 -0.2931  3.4396
 8246TIP3    H224703   5.359   6.152   4.339  2.6774  0.0365 -2.0057
 8247TIP3   OH224704   5.128   4.388   2.985 -0.0492  0.1783  0.4203
 8247TIP3    H124705   5.037   4.376   2.959  0.1875 -2.2045  0.4250
 8247TIP3    H224706   5.175   4.404   2.903 -0.1267 -1.3894  0.0366
 8248TIP3   OH224707   4.198   1.250   5.474  0.0317 -0.0530  0.2640
 8248TIP3    H124708   4.114   1.229   5.432  0.0283  0.0800  0.2047
 8248TIP3    H224709   4.227   1.329   5.430  0.7322 -0.7184 -0.5067
 8249TIP3   OH224710   6.018   2.077   5.237 -0.4922 -0.3780 -0.2065
 8249TIP3    H124711   6.053   2.022   5.307  0.2935  0.1904 -0.1479
 8249TIP3    H224712   6.044   2.034   5.156  1.3481  0.6201 -0.1874
 8250TIP3   OH224713   6.566   4.196   1.738 -0.1974 -0.1103 -0.7447
 8250TIP3    H124714   6.509   4.177   1.812 -0.7105  3.0402 -0.2038
 8250TIP3    H224715   6.654   4.172   1.767 -0.3019  1.5780  1.1858
 8251TIP3   OH224716   5.065   5.735   1.935 -0.1934 -0.3458 -0.2818
 8251TIP3    H124717   5.141   5.721   1.879 -1.4926 -3.6118 -1.4824
 8251TIP3    H224718   4.995   5.760   1.875 -0.6986  0.0104  0.4401
 8252TIP3   OH224719   6.742   4.910   1.930  0.4379 -0.4915  0.4955
 8252TIP3    H124720   6.798   4.966   1.877 -2.9505  1.0221 -1.8592
 8252TIP3    H224721   6.756   4.822   1.895 -1.7028  0.4516 -3.3371
 8253TIP3   OH224722   2.273   4.930   5.222 -0.0740  0.1509 -0.3712
 8253TIP3    H124723   2.302   5.018   5.197  0.6141 -0.1760 -0.7750
 8253TIP3    H224724   2.299   4.875   5.147 -1.1237 -0.2784 -0.4266
 8254TIP3   OH224725   4.049   2.809   4.856  0.2147  0.1353  0.1278
 8254TIP3    H124726   4.058   2.903   4.870  1.9488  0.5654 -2.8092
 8254TIP3    H224727   3.959   2.797   4.826 -0.8355  0.3777  2.9519
 8255TIP3   OH224728   2.505   2.299   1.598 -0.6499 -0.2443  0.0667
 8255TIP3    H124729   2.585   2.247   1.609 -2.1898 -2.5782  0.8587
 8255TIP3    H224730   2.434   2.238   1.613 -2.6364  1.8203 -0.3641
 8256TIP3   OH224731   3.047   2.959   3.684  0.2738  0.0161 -0.3732
 8256TIP3    H124732   2.979   2.900   3.715 -0.2187  1.2201  0.9727
 8256TIP3    H224733   3.089   2.913   3.611  0.5307 -2.3449  1.1903
 8257TIP3   OH224734   6.044   6.500   1.555 -0.4034  0.0198  0.1593
 8257TIP3    H124735   6.035   6.464   1.644  0.5959  0.9122  0.6506
 8257TIP3    H224736   6.132   6.473   1.528 -0.8324 -0.5361 -0.7058
 8258TIP3   OH224737   2.398   0.019   5.565 -0.6291 -0.1592  0.8000
 8258TIP3    H124738   2.417  -0.066   5.604 -2.8305 -0.3892  1.5152
 8258TIP3    H224739   2.483   0.062   5.556  0.4574 -2.1708  1.0061
 8259TIP3   OH224740   3.304   4.952   2.368 -0.2707  0.0564 -0.6987
 8259TIP3    H124741   3.341   5.033   2.402 -1.0762 -0.7112  2.2832
 8259TIP3    H224742   3.346   4.940   2.283  2.4882  1.7713  0.3043
 8260TIP3   OH224743   5.995   3.680   2.435  0.0757  0.1399  0.2862
 8260TIP3    H124744   5.944   3.760   2.420  2.6318  2.0079  0.8703
 8260TIP3    H224745   6.070   3.709   2.487  1.5292 -2.5172 -0.1685
 8261TIP3   OH224746   6.801   4.781   3.522 -0.0843  0.0461 -0.1811
 8261TIP3    H124747   6.784   4.735   3.604 -0.3891  1.0435  0.3385
 8261TIP3    H224748   6.815   4.712   3.458  0.7376 -0.7618  0.8301
 8262TIP3   OH224749   6.565   4.251   4.767  0.7184 -0.3221  0.3984
 8262TIP3    H124750   6.567   4.229   4.860 -1.4882 -1.9483  0.1491
 8262TIP3    H224751   6.524   4.338   4.765 -1.4586 -1.2741  0.8989
 8263TIP3   OH224752   3.783   1.729   5.676  0.6143  0.4460  0.0418
 8263TIP3    H124753   3.849   1.785   5.635  0.4547  1.2058  0.7890
 8263TIP3    H224754   3.701   1.776   5.665  0.4455  0.2668  0.4938
 8264TIP3   OH224755   3.128   0.811   1.594  0.6539  0.0646  0.2877
 8264TIP3    H124756   3.047   0.765   1.616  1.3836 -1.8626 -0.8119
 8264TIP3    H224757   3.100   0.887   1.543 -0.4258 -1.0397 -0.8261
 8265TIP3   OH224758   3.951   2.036   1.285 -0.0038  0.2217 -0.2727
 8265TIP3    H124759   3.984   2.119   1.320  1.3319 -0.2595 -0.3408
 8265TIP3    H224760   4.010   1.970   1.320  0.4652 -0.4378 -2.1821
 8266TIP3   OH224761   5.574   5.095   4.355 -0.2340 -0.5929  0.3358
 8266TIP3    H124762   5.513   5.062   4.289  1.6537 -1.5944 -0.9907
 8266TIP3    H224763   5.591   5.020   4.411  2.0686 -1.2616 -1.1366
 8267TIP3   OH224764   3.983   4.147   1.758 -0.4778  0.0529 -0.4415
 8267TIP3    H124765   4.041   4.138   1.833 -1.5820 -0.2638  0.3951
 8267TIP3    H224766   3.998   4.236   1.727  1.2276 -0.3574 -0.9268
 8268TIP3   OH224767   2.810   5.292   3.266 -0.0159  0.3665  0.2431
 8268TIP3    H124768   2.883   5.296   3.327  0.2949  2.5827 -0.1729
 8268TIP3    H224769   2.813   5.204   3.230  2.3993  0.3475  0.3208
 8269TIP3   OH224770   6.859   5.705   2.778  0.8604  0.4391  0.4306
 8269TIP3    H124771   6.859   5.629   2.721  3.2560  0.0720  0.7856
 8269TIP3    H224772   6.783   5.694   2.835  0.3676 -0.9291 -0.4731
 8270TIP3   OH224773   3.298   1.516   5.232  0.1263 -0.2444  0.2812
 8270TIP3    H124774   3.313   1.434   5.279 -0.2654 -0.2245  0.4471
 8270TIP3    H224775   3.203   1.524   5.227  0.1496  0.5749  0.9218
 8271TIP3   OH224776   3.125   1.516   0.742  0.5202 -0.1814 -0.6942
 8271TIP3    H124777   3.130   1.597   0.792  1.4660  0.4245 -1.7249
 8271TIP3    H224778   3.113   1.545   0.651  0.0092 -1.2193 -0.9705
 8272TIP3   OH224779   6.978   3.472   5.041 -0.3339  0.2503  0.0515
 8272TIP3    H124780   6.928   3.415   5.099  1.4858 -0.0417  1.4563
 8272TIP3    H224781   6.934   3.466   4.956 -1.2185 -1.8962  0.5976
 8273TIP3   OH224782   4.612   1.777   5.726 -0.8254 -0.1417  0.1880
 8273TIP3    H124783   4.610   1.793   5.820  0.1321 -1.7321  0.5170
 8273TIP3    H224784   4.599   1.863   5.687  1.3105  1.0274  1.7890
 8274TIP3   OH224785   6.911   4.999   1.736 -0.1168 -0.1585 -0.0776
 8274TIP3    H124786   6.953   5.067   1.789  0.0250  1.2227 -1.8573
 8274TIP3    H224787   6.979   4.933   1.724 -0.4248 -0.9740  2.1467
 8275TIP3   OH224788   2.086   4.455   0.924 -0.0324  0.2162 -1.0793
 8275TIP3    H124789   2.095   4.546   0.952 -0.8672  0.4015 -1.3750
 8275TIP3    H224790   2.060   4.408   1.003 -0.8323  0.4594 -1.1936
 8276TIP3   OH224791   4.442   5.892   2.489  0.0586  0.3535 -0.4644
 8276TIP3    H124792   4.494   5.827   2.441 -0.3123 -0.3074  0.0170
 8276TIP3    H224793   4.363   5.902   2.437  0.7151  1.5008 -1.2988
 8277TIP3   OH224794   0.198   2.660   0.183  0.3178 -0.3077  0.3196
 8277TIP3    H124795   0.180   2.566   0.189  0.5973 -0.3317  0.8233
 8277TIP3    H224796   0.146   2.700   0.253  1.7939 -0.3304  1.4950
 8278TIP3   OH224797   4.436   0.410   2.957 -0.3569  0.1600 -0.3175
 8278TIP3    H124798   4.492   0.453   2.892 -0.4248 -1.2019 -1.3163
 8278TIP3    H224799   4.498   0.368   3.018 -0.2976  0.0738 -0.4377
 8279TIP3   OH224800   5.026   3.228   1.193 -0.3934  0.1400  0.1210
 8279TIP3    H124801   5.052   3.136   1.195  0.8067  0.4637  0.1769
 8279TIP3    H224802   4.984   3.240   1.108 -4.0862 -1.3272  1.5289
 8280TIP3   OH224803   1.385   0.938   2.055  0.1408  0.3489  0.4495
 8280TIP3    H124804   1.410   0.887   1.978  0.5302  0.5371  0.4474
 8280TIP3    H224805   1.300   0.903   2.080  0.2267 -0.0388  0.2172
 8281TIP3   OH224806   5.384   4.729   2.910  0.2489 -0.4095 -0.0087
 8281TIP3    H124807   5.378   4.658   2.974  0.7383  0.1836  0.7228
 8281TIP3    H224808   5.310   4.786   2.931  2.0905  1.3967  2.1050
 8282TIP3   OH224809   0.307   2.964   3.764  0.7470  0.0012 -0.6556
 8282TIP3    H124810   0.316   3.049   3.723  0.2670  0.7958  0.8142
 8282TIP3    H224811   0.391   2.948   3.807  1.1162 -0.6537 -1.5815
 8283TIP3   OH224812   3.919   6.093   3.381 -0.4386  0.4030  0.2925
 8283TIP3    H124813   3.841   6.138   3.350 -1.9416 -1.2382  1.5287
 8283TIP3    H224814   3.931   6.020   3.320  1.9508  2.2553 -1.6624
 8284TIP3   OH224815   5.807   5.242   0.473  0.0172 -0.3307  0.3092
 8284TIP3    H124816   5.810   5.219   0.380 -1.0425 -0.1323  0.2138
 8284TIP3    H224817   5.891   5.285   0.489  0.4411 -0.8491 -0.4221
 8285TIP3   OH224818   6.982   0.752   4.254 -0.1464 -0.0468  0.2111
 8285TIP3    H124819   6.926   0.718   4.184  1.0553  0.7852 -1.2363
 8285TIP3    H224820   7.042   0.812   4.209  2.0171 -1.0326  1.6389
 8286TIP3   OH224821   2.850   0.549   3.602  0.4194 -0.5401  0.5597
 8286TIP3    H124822   2.858   0.591   3.688 -0.5898 -1.0945  0.9462
 8286TIP3    H224823   2.928   0.578   3.554  0.7320  0.2056  1.4716
 8287TIP3   OH224824   5.103   3.477   5.156 -0.1033 -0.1793  0.4891
 8287TIP3    H124825   5.032   3.501   5.096  0.8541  0.3089 -0.4736
 8287TIP3    H224826   5.060   3.421   5.222 -1.3690  0.0803 -0.0798
 8288TIP3   OH224827   6.569   5.715   3.511 -0.4554 -0.9370  0.3405
 8288TIP3    H124828   6.638   5.696   3.448 -0.7091 -0.1850 -0.1763
 8288TIP3    H224829   6.508   5.773   3.464 -1.1029 -1.0724  0.9889
 8289TIP3   OH224830   6.039   1.175   4.404  0.6131 -0.1541 -0.5243
 8289TIP3    H124831   6.092   1.233   4.460  2.3893 -2.3647  0.2298
 8289TIP3    H224832   6.067   1.197   4.315  0.9194  0.4466 -0.2899
 8290TIP3   OH224833   1.923   1.235   2.234 -0.2192  0.6486  0.2376
 8290TIP3    H124834   1.829   1.229   2.246 -0.3357 -0.1566 -0.8838
 8290TIP3    H224835   1.933   1.286   2.153  0.2871  0.2758  0.0604
 8291TIP3   OH224836   6.923   5.187   0.194 -0.1633 -0.2218  0.2389
 8291TIP3    H124837   6.955   5.276   0.178  1.8498 -0.8516  0.4327
 8291TIP3    H224838   6.898   5.186   0.286 -0.2090  0.1408  0.2309
 8292TIP3   OH224839   2.543   0.927   5.608  0.3269 -0.1188  0.0190
 8292TIP3    H124840   2.472   0.867   5.631 -0.1320  0.5166  0.3014
 8292TIP3    H224841   2.616   0.870   5.584 -0.6708 -0.8046 -1.5563
 8293TIP3   OH224842   2.101   0.249   2.192 -0.1609 -0.4413 -0.1601
 8293TIP3    H124843   2.184   0.234   2.146 -0.0422  0.3332 -0.2078
 8293TIP3    H224844   2.035   0.241   2.123  0.1425  2.7486 -0.9869
 8294TIP3   OH224845   1.625   4.383   2.127  0.3318  0.3356  0.3919
 8294TIP3    H124846   1.633   4.291   2.152  0.5988 -0.3826 -2.0997
 8294TIP3    H224847   1.543   4.412   2.166 -1.4041 -1.9046 -1.3127
 8295TIP3   OH224848   3.702   3.285   3.583  0.3253  0.3161  0.4411
 8295TIP3    H124849   3.646   3.220   3.627 -0.5097  1.1022  0.5609
 8295TIP3    H224850   3.641   3.338   3.532  1.0875  0.5672 -0.2173
 8296TIP3   OH224851   4.865   6.100   3.640 -0.3218  0.2353 -0.0922
 8296TIP3    H124852   4.905   6.179   3.674  0.4240 -0.3729  0.4804
 8296TIP3    H224853   4.827   6.126   3.556  0.4136  1.0617 -0.1747
 8297TIP3   OH224854   5.763   2.532   4.896  0.1401  0.8471  0.2445
 8297TIP3    H124855   5.821   2.486   4.956 -2.3494 -2.9979  0.0215
 8297TIP3    H224856   5.779   2.492   4.811 -1.0830  1.4688 -0.3012
 8298TIP3   OH224857   5.176   5.345   3.933  0.7242 -0.6859  0.0537
 8298TIP3    H124858   5.190   5.439   3.943  0.7867 -0.5949 -0.8202
 8298TIP3    H224859   5.222   5.322   3.853 -0.4914 -1.1846 -0.5328
 8299TIP3   OH224860   2.484   4.271   0.598  0.1020  0.2894 -0.2913
 8299TIP3    H124861   2.452   4.359   0.618 -0.9285 -0.2873  0.6996
 8299TIP3    H224862   2.467   4.220   0.677  3.4213 -0.1277  0.2981
 8300TIP3   OH224863   4.377   5.669   3.585  0.7958 -1.0310 -0.2057
 8300TIP3    H124864   4.342   5.756   3.567 -1.2516 -1.9062 -0.6684
 8300TIP3    H224865   4.472   5.679   3.576  0.8305  1.6245  1.8632
 8301TIP3   OH224866   4.833   3.096   0.344  0.8575  0.1598 -0.2431
 8301TIP3    H124867   4.773   3.033   0.382  2.2597 -0.7000  0.6478
 8301TIP3    H224868   4.777   3.166   0.310 -0.7477 -1.5188 -1.2478
 8302TIP3   OH224869   1.708   4.036   5.550  0.1351  0.1651  0.2315
 8302TIP3    H124870   1.803   4.029   5.538  0.5754 -0.6369  3.1626
 8302TIP3    H224871   1.690   4.130   5.546  0.9586  0.2982 -0.7803
 8303TIP3   OH224872   4.530   0.058   4.397  0.4948 -0.0448  0.6469
 8303TIP3    H124873   4.490   0.029   4.479 -1.0800 -1.1675 -0.4596
 8303TIP3    H224874   4.608   0.003   4.388 -1.0518 -2.3115 -0.1141
 8304TIP3   OH224875   3.804   2.600   4.215 -0.1258  0.4379 -0.2386
 8304TIP3    H124876   3.877   2.647   4.176  1.4615 -1.1580  0.6307
 8304TIP3    H224877   3.757   2.666   4.266 -1.2497  2.1882 -3.2913
 8305TIP3   OH224878   0.676   4.530   5.595  0.4944  0.1840  0.0946
 8305TIP3    H124879   0.713   4.617   5.582  0.3578  0.1023 -0.9309
 8305TIP3    H224880   0.690   4.511   5.688  1.5283  0.8309  0.0820
 8306TIP3   OH224881   4.903   0.145   0.731  0.2391 -0.5908 -0.2271
 8306TIP3    H124882   4.866   0.132   0.818  0.2497 -1.1590 -0.3012
 8306TIP3    H224883   4.841   0.103   0.672  0.7843 -1.1994 -0.3888
 8307TIP3   OH224884   6.577   5.984   0.931 -0.5054 -0.0147 -1.0188
 8307TIP3    H124885   6.562   6.076   0.907 -0.0991 -0.1544 -1.8357
 8307TIP3    H224886   6.520   5.934   0.873 -0.6706 -0.2888 -0.6254
 8308TIP3   OH224887   2.097   5.575   4.249  0.2952  0.0490  0.2265
 8308TIP3    H124888   2.122   5.486   4.271 -1.7052 -0.3769  1.0235
 8308TIP3    H224889   2.171   5.610   4.199  1.4711 -1.7498  0.6324
 8309TIP3   OH224890   3.478   5.584   0.129  0.5034 -0.6065  0.1234
 8309TIP3    H124891   3.476   5.498   0.087  0.0544 -1.7840  2.3909
 8309TIP3    H224892   3.477   5.565   0.223 -1.4743  1.9124  0.7381
 8310TIP3   OH224893   1.795   2.922   4.994  0.0043 -0.3305  0.1842
 8310TIP3    H124894   1.781   2.835   5.031 -1.4594  0.1897  0.9142
 8310TIP3    H224895   1.748   2.921   4.911 -1.9662  0.4432  1.2312
 8311TIP3   OH224896   5.186   4.126   5.066 -0.3867  0.0785 -0.2586
 8311TIP3    H124897   5.250   4.056   5.072  0.1031  0.5722  0.4117
 8311TIP3    H224898   5.159   4.142   5.156 -0.3302  0.8943 -0.3793
 8312TIP3   OH224899   3.812   5.035   1.525 -0.0073  0.0806 -0.0727
 8312TIP3    H124900   3.766   5.111   1.489 -1.0644 -0.4605  0.1246
 8312TIP3    H224901   3.897   5.037   1.482 -0.1615  1.1502 -0.3697
 8313TIP3   OH224902   6.099   4.819   1.256  0.0231 -0.7819  0.1466
 8313TIP3    H124903   6.088   4.865   1.173 -1.6603  0.8100  1.1609
 8313TIP3    H224904   6.171   4.759   1.241 -0.5578 -0.9272 -2.6227
 8314TIP3   OH224905   4.085   4.059   2.367 -0.1868 -0.0906  0.1644
 8314TIP3    H124906   4.179   4.052   2.385 -0.2438  1.1540  1.0498
 8314TIP3    H224907   4.080   4.075   2.273  0.3755 -1.8724 -0.2138
 8315TIP3   OH224908   6.479   6.161   0.334  0.4012  0.6612  0.4032
 8315TIP3    H124909   6.561   6.209   0.322  1.2625 -0.3976  1.7230
 8315TIP3    H224910   6.506   6.078   0.375 -1.0503 -0.8081 -1.4453
 8316TIP3   OH224911   4.304   5.234   0.342  0.0468 -0.4147  0.5344
 8316TIP3    H124912   4.349   5.160   0.301 -0.8573  0.2496 -1.8121
 8316TIP3    H224913   4.219   5.199   0.369  0.0039 -0.4723  0.3243
 8317TIP3   OH224914   4.910   3.202   4.764  0.7845 -0.0740  0.0979
 8317TIP3    H124915   4.907   3.108   4.749  0.9481 -0.3356  1.5786
 8317TIP3    H224916   4.962   3.212   4.844  2.5194  1.4202 -1.1349
 8318TIP3   OH224917   5.357   6.493   2.139 -0.1971  0.3447  0.6536
 8318TIP3    H124918   5.300   6.532   2.073 -0.4109 -0.9744  0.0221
 8318TIP3    H224919   5.381   6.566   2.196 -2.2668  0.9954  0.7751
 8319TIP3   OH224920   5.490   3.984   5.835 -0.3204  0.5278  0.2721
 8319TIP3    H124921   5.464   3.970   5.926 -3.0397  0.4531 -0.4166
 8319TIP3    H224922   5.452   3.909   5.788  2.1175 -0.1230 -0.7939
 8320TIP3   OH224923   0.487   6.260   5.029  0.5455 -0.1572  0.6100
 8320TIP3    H124924   0.415   6.312   4.993  1.6672  0.8140 -0.2884
 8320TIP3    H224925   0.473   6.172   4.992  0.8943  0.4923 -1.1784
 8321TIP3   OH224926   1.512   1.302   5.798 -0.4848 -0.3478  0.2106
 8321TIP3    H124927   1.422   1.332   5.783 -0.5821 -0.6509  0.1815
 8321TIP3    H224928   1.514   1.214   5.762 -0.1755 -0.3453  0.2190
 8322TIP3   OH224929   0.799   1.510   1.014  0.1819 -0.1286  0.8931
 8322TIP3    H124930   0.889   1.530   0.989  0.9461 -1.8031  2.1172
 8322TIP3    H224931   0.759   1.473   0.935 -0.0820  2.3600 -0.2261
 8323TIP3   OH224932   2.814   5.361   0.927 -0.0873 -0.3907 -0.3313
 8323TIP3    H124933   2.807   5.270   0.897  1.2041 -0.8705  0.7543
 8323TIP3    H224934   2.847   5.355   1.016  0.4118  1.1581 -0.3816
 8324TIP3   OH224935   2.265   6.059   2.860 -0.3456  0.0394  0.2335
 8324TIP3    H124936   2.199   5.990   2.868 -1.0421  0.6192 -0.2961
 8324TIP3    H224937   2.348   6.015   2.876 -0.6358 -1.2201 -1.4723
 8325TIP3   OH224938   2.027   5.246   0.661  0.0250  0.0987 -0.2309
 8325TIP3    H124939   1.984   5.327   0.689 -2.0332 -0.2187 -2.1156
 8325TIP3    H224940   2.068   5.268   0.577  2.2919 -0.0257  0.7986
 8326TIP3   OH224941   2.314   5.116   0.421  0.3032 -0.1185  0.3472
 8326TIP3    H124942   2.308   5.205   0.455  0.2982  0.5412 -1.3232
 8326TIP3    H224943   2.260   5.116   0.342  1.8654 -1.0515 -0.7706
 8327TIP3   OH224944   3.391   2.573   3.190 -0.3855  0.1224 -0.2034
 8327TIP3    H124945   3.428   2.512   3.126 -1.2290 -0.0537 -0.5303
 8327TIP3    H224946   3.468   2.618   3.227  0.1886 -0.6043 -0.4881
 8328TIP3   OH224947   4.259   5.558   1.403  0.1193 -0.7143  0.1224
 8328TIP3    H124948   4.214   5.625   1.351 -0.2469  0.4308  1.8499
 8328TIP3    H224949   4.353   5.574   1.388  0.0470  0.5850  0.9729
 8329TIP3   OH224950   6.056   5.451   2.453 -0.0570 -0.3913 -0.3341
 8329TIP3    H124951   6.068   5.394   2.529  2.6487  1.0207  0.4288
 8329TIP3    H224952   6.011   5.397   2.389 -0.4723 -2.3183  1.4874
 8330TIP3   OH224953   3.081   4.282   4.822 -0.4678 -0.9945  0.5179
 8330TIP3    H124954   3.086   4.196   4.866 -2.8792 -1.3840  0.1619
 8330TIP3    H224955   3.038   4.264   4.739  0.3620  0.3755 -0.2464
 8331TIP3   OH224956   6.108   1.492   1.803 -0.0977  0.2634  0.1575
 8331TIP3    H124957   6.187   1.505   1.855 -0.2704  0.5310  0.3571
 8331TIP3    H224958   6.107   1.565   1.741 -0.3992  0.4942  0.4283
 8332TIP3   OH224959   2.583   6.296   5.049  0.1737  0.2454 -0.4640
 8332TIP3    H124960   2.582   6.314   4.955 -1.6897 -0.2631 -0.5812
 8332TIP3    H224961   2.530   6.367   5.087 -0.9679 -0.7921 -0.0768
 8333TIP3   OH224962   1.681   5.392   2.557  0.2407 -0.2243 -0.5513
 8333TIP3    H124963   1.693   5.430   2.470 -1.2531 -0.2473 -0.8031
 8333TIP3    H224964   1.689   5.466   2.617  0.2165 -0.0171 -0.8020
 8334TIP3   OH224965   1.969   0.593   3.090  1.0463  0.7087  0.3756
 8334TIP3    H124966   1.994   0.525   3.028  0.1022  0.3850  0.3247
 8334TIP3    H224967   1.989   0.675   3.046  0.6862  0.4770 -0.2413
 8335TIP3   OH224968   0.547   0.528   5.326 -0.2295  0.5002  0.5272
 8335TIP3    H124969   0.516   0.618   5.314  1.4174  1.3312  1.9944
 8335TIP3    H224970   0.510   0.501   5.410  0.6940  0.4654  0.9293
 8336TIP3   OH224971   2.744   2.786   0.554  0.6476 -0.2987 -0.2178
 8336TIP3    H124972   2.680   2.717   0.539  1.4490 -1.3448  0.9578
 8336TIP3    H224973   2.716   2.858   0.497 -0.0398 -1.6905 -1.7062
 8337TIP3   OH224974   7.190   5.740   5.051  0.2656  0.0763 -0.1235
 8337TIP3    H124975   7.149   5.746   5.138  0.7938  2.2523  0.0215
 8337TIP3    H224976   7.145   5.666   5.009 -0.7468 -0.3532  1.5935
 8338TIP3   OH224977   3.633   1.096   1.622 -0.4679  0.2704  0.4086
 8338TIP3    H124978   3.727   1.114   1.623 -0.6284  1.1690  0.1390
 8338TIP3    H224979   3.597   1.151   1.692 -0.7114 -0.5804  0.9660
 8339TIP3   OH224980   4.814   2.214   3.033 -0.0950  0.4154 -0.2882
 8339TIP3    H124981   4.873   2.226   2.958 -1.0859 -0.9389 -1.3423
 8339TIP3    H224982   4.738   2.168   2.997 -0.9043  0.3193  1.4309
 8340TIP3   OH224983   4.489   3.728   3.304  0.1183 -0.0789  0.2819
 8340TIP3    H124984   4.564   3.763   3.257  0.2971 -0.5350  0.2159
 8340TIP3    H224985   4.448   3.667   3.242 -0.0626 -0.1441  0.4647
 8341TIP3   OH224986   2.584   1.390   0.283  0.5598 -0.1161 -0.0220
 8341TIP3    H124987   2.655   1.422   0.229  0.3567  0.8041  0.2376
 8341TIP3    H224988   2.547   1.469   0.324 -0.6177 -0.5587 -0.1720
 8342TIP3   OH224989   3.258   5.716   1.299 -0.5348 -0.0901  0.3864
 8342TIP3    H124990   3.251   5.798   1.347  1.5895 -0.3154  1.2042
 8342TIP3    H224991   3.305   5.739   1.219  0.4047 -0.5394  0.7914
 8343TIP3   OH224992   4.698   2.332   5.466  0.4841  0.0174  0.5383
 8343TIP3    H124993   4.720   2.357   5.377  0.0251 -1.0919  0.1014
 8343TIP3    H224994   4.609   2.298   5.460  1.0326 -1.6252  1.0997
 8344TIP3   OH224995   5.317   1.669   4.299  0.3249  0.4576  0.6808
 8344TIP3    H124996   5.280   1.624   4.374  0.3007 -1.1447 -0.2631
 8344TIP3    H224997   5.406   1.694   4.328  0.1777  0.2116  1.3585
 8345TIP3   OH224998   5.304   5.311   5.312 -0.4237 -0.3402 -0.2156
 8345TIP3    H124999   5.255   5.383   5.351 -0.1988 -0.2853 -0.0340
 8345TIP3    H225000   5.340   5.263   5.386 -1.7622 -1.4881 -0.2787
 8346TIP3   OH225001   2.783   1.868   5.144 -0.1890 -0.9628 -0.6856
 8346TIP3    H125002   2.763   1.776   5.128  1.0692 -0.9818 -2.4614
 8346TIP3    H225003   2.876   1.868   5.168 -0.3955 -0.2355  0.1412
 8347TIP3   OH225004   2.004   6.591   4.179 -0.1084  0.3676 -0.0717
 8347TIP3    H125005   2.084   6.640   4.161 -1.3523  2.5856  0.1648
 8347TIP3    H225006   1.933   6.649   4.152 -1.6793 -2.3475 -2.3764
 8348TIP3   OH225007   6.370   3.528   1.617  0.0921  0.1329  0.1651
 8348TIP3    H125008   6.279   3.545   1.592 -0.4204 -1.4935  0.7336
 8348TIP3    H225009   6.366   3.520   1.713  0.6687 -0.7159  0.1290
 8349TIP3   OH225010   4.953   1.694   0.358  0.2443  0.0855 -0.2903
 8349TIP3    H125011   5.024   1.693   0.293  1.5169 -1.0542  1.0381
 8349TIP3    H225012   4.875   1.669   0.308  1.0052  0.1800 -1.5688
 8350TIP3   OH225013   1.396   0.063   2.583  0.5077  0.2739 -0.4508
 8350TIP3    H125014   1.473   0.100   2.627 -0.0345  1.2538 -0.2850
 8350TIP3    H225015   1.372  -0.013   2.636  1.6196 -0.3276 -0.7656
 8351TIP3   OH225016   5.022   1.003   5.220 -0.4533 -1.4915 -0.5086
 8351TIP3    H125017   5.039   0.999   5.126  0.3602  0.0825 -0.4623
 8351TIP3    H225018   5.013   1.096   5.239 -0.7037 -1.7859  0.9656
 8352TIP3   OH225019   4.774   2.975   5.859  0.3137  0.0299 -0.8157
 8352TIP3    H125020   4.771   3.070   5.851 -3.4114  0.1077 -0.2488
 8352TIP3    H225021   4.841   2.959   5.926  0.9114  2.2541 -0.7998
 8353TIP3   OH225022   6.423   5.509   3.702 -0.4052 -0.0188 -0.9455
 8353TIP3    H125023   6.512   5.529   3.675  0.4048 -2.6052 -0.4383
 8353TIP3    H225024   6.374   5.588   3.682  1.7350  1.0441 -2.3805
 8354TIP3   OH225025   5.654   4.698   1.966  0.4626 -0.3059 -0.1837
 8354TIP3    H125026   5.690   4.711   1.878  0.9853 -1.0800 -0.0866
 8354TIP3    H225027   5.707   4.628   2.004 -0.2347 -0.4822  0.4813
 8355TIP3   OH225028   2.363   1.348   1.964  0.0817 -0.0078 -0.2923
 8355TIP3    H125029   2.378   1.255   1.947 -0.5333 -0.2084  0.2072
 8355TIP3    H225030   2.346   1.353   2.058  0.2431  0.6314 -0.2903
 8356TIP3   OH225031   4.243   2.856   0.092 -0.4475  0.0773  0.0467
 8356TIP3    H125032   4.164   2.854   0.039 -1.1696 -0.2037  1.0944
 8356TIP3    H225033   4.282   2.770   0.081  0.2797  0.5527 -1.2716
 8357TIP3   OH225034   1.115   3.263   3.901 -0.0857 -0.5656 -0.1649
 8357TIP3    H125035   1.044   3.318   3.934  0.0594  0.0945 -0.9263
 8357TIP3    H225036   1.157   3.316   3.834  1.1900 -0.9200  0.3278
 8358TIP3   OH225037   0.500   4.811   5.410 -0.3208 -0.3017 -0.2582
 8358TIP3    H125038   0.583   4.804   5.457  0.6484  0.4506 -1.7503
 8358TIP3    H225039   0.476   4.903   5.418  1.5226  0.6450 -3.7302
 8359TIP3   OH225040   2.772   0.425   4.453  0.3357 -0.0669  0.2709
 8359TIP3    H125041   2.787   0.332   4.471  0.1108 -0.6123 -2.0666
 8359TIP3    H225042   2.739   0.427   4.364 -0.0697  2.2544  0.4197
 8360TIP3   OH225043   1.513   5.912   0.640  0.4735  0.3132  0.0624
 8360TIP3    H125044   1.546   5.980   0.582  0.3204 -0.5814 -1.1181
 8360TIP3    H225045   1.579   5.905   0.709  0.2748  1.9318  0.4616
 8361TIP3   OH225046   0.587   1.137   3.200 -0.3517 -0.4336  0.0832
 8361TIP3    H125047   0.520   1.083   3.243  0.3614 -0.2839  1.4240
 8361TIP3    H225048   0.586   1.107   3.109  0.1230 -2.8491  0.7844
 8362TIP3   OH225049   0.859   0.485   3.456 -0.2646  0.0417 -0.0814
 8362TIP3    H125050   0.878   0.482   3.362 -1.1896 -1.0446 -0.2482
 8362TIP3    H225051   0.855   0.579   3.476  1.6003  0.3230 -0.7503
 8363TIP3   OH225052   1.988   1.765   0.859 -0.2277 -0.0520 -0.1584
 8363TIP3    H125053   1.976   1.855   0.827 -0.0797  0.0320  0.0151
 8363TIP3    H225054   1.943   1.710   0.795 -0.0559  0.1232 -0.4349
 8364TIP3   OH225055   0.094   5.337   2.722  0.2238  0.2973 -0.4808
 8364TIP3    H125056   0.043   5.369   2.796  0.6759  0.3218 -0.1759
 8364TIP3    H225057   0.155   5.407   2.702  0.9515 -0.2061 -0.0648
 8365TIP3   OH225058   4.382   4.947   1.337  0.3903 -0.0404  0.3196
 8365TIP3    H125059   4.415   5.037   1.333 -0.0449  0.1750  1.1940
 8365TIP3    H225060   4.434   4.899   1.273 -1.1926  1.3822 -2.1918
 8366TIP3   OH225061   0.029   5.300   0.291 -0.2754  0.1790 -0.6547
 8366TIP3    H125062   0.035   5.214   0.334 -0.1501  0.2479 -0.5341
 8366TIP3    H225063   0.058   5.283   0.201 -0.6029  0.0221 -0.7294
 8367TIP3   OH225064   0.320   4.366   3.818  0.4696  0.4453 -0.5180
 8367TIP3    H125065   0.360   4.404   3.740  0.7148  0.7236 -0.2582
 8367TIP3    H225066   0.382   4.384   3.888  1.0413 -1.2551 -0.5545
 8368TIP3   OH225067   0.724   6.136   3.094 -0.3035  0.7184 -0.0954
 8368TIP3    H125068   0.805   6.149   3.143 -0.7390  0.6959  0.6469
 8368TIP3    H225069   0.749   6.083   3.018  0.5210  1.4183 -0.3129
 8369TIP3   OH225070   3.161   4.084   1.108 -0.6962 -0.1093 -0.0030
 8369TIP3    H125071   3.250   4.052   1.127 -0.6426  0.6497  1.1139
 8369TIP3    H225072   3.165   4.113   1.017 -0.0431 -0.8697 -0.2361
 8370TIP3   OH225073   2.155   1.960   1.470 -0.1975 -0.2141  0.3154
 8370TIP3    H125074   2.100   1.893   1.510  1.7464 -1.7217  0.5789
 8370TIP3    H225075   2.185   2.014   1.544 -0.4670 -0.0431  0.3003
 8371TIP3   OH225076   1.033   0.316   5.274 -0.0821  0.2514 -0.2630
 8371TIP3    H125077   1.112   0.290   5.226  0.9217  1.7158  0.5346
 8371TIP3    H225078   0.966   0.326   5.206  1.0538  1.3508 -1.2661
 8372TIP3   OH225079   4.925   4.252   2.216  0.2231  0.0705  0.0059
 8372TIP3    H125080   4.856   4.238   2.152  1.0991  0.2606 -0.9938
 8372TIP3    H225081   4.931   4.169   2.263  0.6957 -0.6426 -1.2689
 8373TIP3   OH225082   0.283   4.984   2.127 -0.0776 -0.4297 -0.7681
 8373TIP3    H125083   0.251   5.018   2.210  2.2478  0.8719 -0.3393
 8373TIP3    H225084   0.297   5.062   2.073 -0.2458 -1.1632 -1.9035
 8374TIP3   OH225085   2.792   4.604   4.568 -0.1954  0.5300  0.4221
 8374TIP3    H125086   2.831   4.555   4.641 -0.7158  1.2334  1.1923
 8374TIP3    H225087   2.697   4.594   4.581 -0.3174 -0.5651 -1.0159
 8375TIP3   OH225088   2.401   5.598   3.123 -0.4650  0.0894 -0.3459
 8375TIP3    H125089   2.450   5.656   3.066  0.4214 -0.2991  0.0026
 8375TIP3    H225090   2.351   5.656   3.180  2.1166  0.6438  1.5239
 8376TIP3   OH225091   3.147   5.126   4.659  0.5894  0.4561  0.4628
 8376TIP3    H125092   3.164   5.036   4.629  0.0006  0.0024  1.4405
 8376TIP3    H225093   3.234   5.161   4.678  0.7523 -0.5288  1.7459
 8377TIP3   OH225094   6.733   2.567   1.228  0.9211  0.1577  0.7000
 8377TIP3    H125095   6.824   2.543   1.209  0.4815  0.3965 -2.1049
 8377TIP3    H225096   6.691   2.484   1.250  1.4849 -0.2010  0.4626
 8378TIP3   OH225097   7.052   2.146   3.290  0.2667  0.1040  0.4045
 8378TIP3    H125098   7.027   2.180   3.204  0.1049  1.4547  0.9493
 8378TIP3    H225099   7.127   2.090   3.273 -0.3495 -0.4098 -0.7266
 8379TIP3   OH225100   1.523   4.347   0.605  0.0292  0.4319  0.0994
 8379TIP3    H125101   1.498   4.255   0.599  1.1811  0.1421 -0.6587
 8379TIP3    H225102   1.557   4.368   0.519  2.0168  0.8713  0.9336
 8380TIP3   OH225103   2.859   3.423   4.282 -0.0668  0.0820  0.2433
 8380TIP3    H125104   2.838   3.331   4.298 -0.9505  0.0866 -0.8222
 8380TIP3    H225105   2.924   3.420   4.211  1.6846  0.1951  1.7703
 8381TIP3   OH225106   6.985   5.688   4.710 -0.2560  0.6595 -0.3096
 8381TIP3    H125107   7.046   5.760   4.694  0.7800 -0.3339 -0.9391
 8381TIP3    H225108   7.025   5.639   4.782 -0.6518  0.3599 -0.2948
 8382TIP3   OH225109   7.086   0.458   4.485 -0.0063 -0.1338 -0.1444
 8382TIP3    H125110   7.166   0.510   4.483  0.2097 -0.4563 -0.1128
 8382TIP3    H225111   7.117   0.367   4.480 -0.3267 -0.2946  0.6125
 8383TIP3   OH225112   6.004   0.888   1.440 -0.6692  0.1131  0.4295
 8383TIP3    H125113   6.019   0.857   1.530 -0.2577  0.9032  0.6425
 8383TIP3    H225114   5.964   0.814   1.396  0.9496 -0.9988  0.7301
 8384TIP3   OH225115   3.961   5.711   4.576 -0.0643 -0.0796  0.5325
 8384TIP3    H125116   4.043   5.758   4.596  0.1252 -0.5857  0.9897
 8384TIP3    H225117   3.931   5.748   4.493  0.9288 -0.2775  0.0708
 8385TIP3   OH225118   0.271   3.754   5.690  0.2450  0.5629  0.3950
 8385TIP3    H125119   0.214   3.759   5.766  0.3116  0.5570  0.4449
 8385TIP3    H225120   0.326   3.678   5.705 -0.7015 -0.2892 -0.3284
 8386TIP3   OH225121   3.207   4.003   1.572  0.2261  0.8963  0.1042
 8386TIP3    H125122   3.202   4.008   1.477 -0.2589 -0.1029  0.0686
 8386TIP3    H225123   3.215   4.094   1.600  1.6460  1.1263 -0.9500
 8387TIP3   OH225124   6.585   5.985   2.071 -0.2480  0.2121 -0.3258
 8387TIP3    H125125   6.604   6.020   2.157  1.5100 -1.0529 -0.1612
 8387TIP3    H225126   6.551   5.897   2.087 -1.5952  0.6023 -0.8726
 8388TIP3   OH225127   0.856   6.559   5.793  0.2515 -0.0651 -0.7093
 8388TIP3    H125128   0.924   6.616   5.829  0.3686 -0.4545 -0.3193
 8388TIP3    H225129   0.884   6.543   5.703 -0.8543  2.2272 -1.5554
 8389TIP3   OH225130   4.651   0.655   0.569 -0.1184  0.0777  0.1270
 8389TIP3    H125131   4.718   0.587   0.563  1.8261  2.0371 -1.5998
 8389TIP3    H225132   4.589   0.633   0.500  0.1971 -0.2452 -0.0577
 8390TIP3   OH225133   6.307   3.889   3.565  0.3670 -0.2871  0.4130
 8390TIP3    H125134   6.378   3.947   3.592 -0.0688  0.4197  0.0598
 8390TIP3    H225135   6.268   3.932   3.489 -1.2226 -0.0166  1.3218
 8391TIP3   OH225136   1.935   6.325   4.569  0.1766  0.1318  0.0229
 8391TIP3    H125137   1.945   6.232   4.547  0.0947  0.2484 -0.5274
 8391TIP3    H225138   1.917   6.367   4.485  2.3143  0.9509 -0.0875
 8392TIP3   OH225139   1.859   0.230   0.025 -0.1563  0.4842 -0.4200
 8392TIP3    H125140   1.933   0.193   0.073 -0.5849  0.1473 -0.0169
 8392TIP3    H225141   1.898   0.298  -0.030  0.2644  1.3427  0.8906
 8393TIP3   OH225142   3.875   1.521   4.677  0.0239 -0.1420 -0.4234
 8393TIP3    H125143   3.797   1.490   4.631  0.4795 -1.0485 -0.5999
 8393TIP3    H225144   3.874   1.473   4.760  0.7099 -0.6057 -0.6782
 8394TIP3   OH225145   6.134   2.157   3.525  0.1824  0.2867 -0.3671
 8394TIP3    H125146   6.165   2.244   3.501  0.1607  0.1709 -0.8225
 8394TIP3    H225147   6.042   2.171   3.550  0.3582  0.4938  0.1734
 8395TIP3   OH225148   3.149   4.709   4.013  0.6567 -0.0954  0.2948
 8395TIP3    H125149   3.119   4.788   4.059  0.9709 -0.0875  0.4916
 8395TIP3    H225150   3.177   4.740   3.927  0.8496  0.0176  0.3991
 8396TIP3   OH225151   1.958   2.051   2.165 -0.2024  0.4669 -0.2165
 8396TIP3    H125152   1.890   2.013   2.220 -0.6537  0.8825 -0.4756
 8396TIP3    H225153   2.024   2.084   2.227 -0.5738  0.6853  0.0652
 8397TIP3   OH225154   3.831   4.522   3.020 -0.0198  0.4719  0.4787
 8397TIP3    H125155   3.789   4.601   3.054 -1.6434 -0.5877  1.0922
 8397TIP3    H225156   3.801   4.453   3.078 -1.4083 -1.1456 -1.9936
 8398TIP3   OH225157   1.181   4.133   3.906  0.7749 -0.6092 -0.1224
 8398TIP3    H125158   1.100   4.092   3.937  0.1322 -0.9103 -2.0517
 8398TIP3    H225159   1.215   4.179   3.982 -1.8493  0.5436  0.4655
 8399TIP3   OH225160   1.723   2.185   2.636  0.1261  0.5858 -0.1757
 8399TIP3    H125161   1.664   2.114   2.611  1.6909 -2.0805  3.0289
 8399TIP3    H225162   1.664   2.255   2.666 -1.4526 -0.9265  0.3734
 8400TIP3   OH225163   5.219   3.734   5.176 -0.2068  0.2362  0.1908
 8400TIP3    H125164   5.145   3.790   5.201 -1.0478 -0.3238 -0.9556
 8400TIP3    H225165   5.179   3.654   5.144  0.9780 -1.0162  1.6779
 8401TIP3   OH225166   5.111   1.577   3.322 -0.3280  0.1640  0.1073
 8401TIP3    H125167   5.183   1.516   3.304 -1.4390 -1.0236 -0.4878
 8401TIP3    H225168   5.130   1.612   3.408  1.2751  0.3295 -0.2826
 8402TIP3   OH225169   2.614   2.139   4.189  0.9808 -0.3871  0.1426
 8402TIP3    H125170   2.653   2.218   4.225  1.1071 -1.2791  2.0520
 8402TIP3    H225171   2.652   2.131   4.101  1.9510  0.9489  0.4205
 8403TIP3   OH225172   4.682   3.674   2.309  0.0991  0.1333 -0.4476
 8403TIP3    H125173   4.697   3.580   2.303 -0.7218  0.0173 -0.9128
 8403TIP3    H225174   4.674   3.702   2.218  1.1154  0.7934 -0.3425
 8404TIP3   OH225175   1.794   5.064   4.261 -0.3889 -0.2212  0.4917
 8404TIP3    H125176   1.863   5.009   4.298  0.4759  1.1462  0.9783
 8404TIP3    H225177   1.779   5.131   4.327 -2.5292 -0.7261  0.5951
 8405TIP3   OH225178   6.692   0.490   0.809  0.0478 -0.3224 -0.2814
 8405TIP3    H125179   6.760   0.555   0.826  0.5510 -0.9452  0.1305
 8405TIP3    H225180   6.623   0.538   0.762  0.3662  0.5193  0.1083
 8406TIP3   OH225181   0.724   4.569   3.564  0.2658 -0.3003  0.1233
 8406TIP3    H125182   0.751   4.661   3.562  0.1953 -0.2833 -0.5270
 8406TIP3    H225183   0.783   4.526   3.502 -2.0052 -0.0042 -2.4214
 8407TIP3   OH225184   4.756   1.026   4.207  0.4351 -0.3143  0.0116
 8407TIP3    H125185   4.833   1.037   4.151 -0.3895  1.6326 -0.8269
 8407TIP3    H225186   4.732   0.934   4.197  1.5818 -0.5253 -1.1227
 8408TIP3   OH225187   2.011   6.097   1.777 -0.0902  0.1899  0.0561
 8408TIP3    H125188   1.949   6.028   1.753 -0.0986  0.0911  0.3591
 8408TIP3    H225189   1.970   6.177   1.745 -0.0937  0.0625 -0.2727
 8409TIP3   OH225190   4.132   2.468   5.637  0.0267  0.0788 -0.4276
 8409TIP3    H125191   4.050   2.435   5.674 -1.7222  1.2411 -3.0119
 8409TIP3    H225192   4.190   2.392   5.636 -1.1549 -0.8958  1.0047
 8410TIP3   OH225193   2.263   0.326   3.787 -0.0943 -0.2083  0.5495
 8410TIP3    H125194   2.350   0.323   3.826  0.3756  1.3395 -0.2861
 8410TIP3    H225195   2.222   0.403   3.825  0.0548  0.8287 -1.2938
 8411TIP3   OH225196   7.061   1.193   5.270  0.0606  0.9231 -0.3189
 8411TIP3    H125197   7.116   1.135   5.217  0.5403  1.3094 -0.2524
 8411TIP3    H225198   7.068   1.159   5.359  1.0541  1.5859 -0.1220
 8412TIP3   OH225199   6.424   4.544   2.414  0.4281 -0.6205 -0.6096
 8412TIP3    H125200   6.422   4.579   2.325 -0.2071 -0.2661 -0.4617
 8412TIP3    H225201   6.388   4.456   2.406  1.8275 -1.1916 -0.9473
 8413TIP3   OH225202   6.655   4.862   2.199  0.1329  0.5407 -0.2377
 8413TIP3    H125203   6.721   4.866   2.129  0.2326  0.2224 -0.1623
 8413TIP3    H225204   6.571   4.870   2.153  0.2323  1.2615 -0.3064
 8414TIP3   OH225205   4.651   5.706   3.955  0.0348  0.1841  0.1963
 8414TIP3    H125206   4.667   5.778   3.894 -0.7927 -0.0919 -0.3507
 8414TIP3    H225207   4.557   5.705   3.967  0.1617  0.0652  1.2916
 8415TIP3   OH225208   5.392   1.307   5.335  0.0016  0.0624 -0.1098
 8415TIP3    H125209   5.311   1.353   5.355 -0.0597  0.1197 -0.4914
 8415TIP3    H225210   5.449   1.325   5.410  0.2870  1.4770 -0.6403
 8416TIP3   OH225211   6.287   1.609   4.506 -0.3635 -0.4306 -0.1470
 8416TIP3    H125212   6.234   1.623   4.585  1.0869  3.4980  0.3604
 8416TIP3    H225213   6.308   1.697   4.476  2.0554 -1.8094 -2.9599
 8417TIP3   OH225214   6.680   6.539   1.157 -0.5843  0.7113 -0.1652
 8417TIP3    H125215   6.689   6.471   1.090 -0.7198 -0.2477  0.7707
 8417TIP3    H225216   6.709   6.619   1.113  0.8520 -0.1624 -0.9136
 8418TIP3   OH225217   6.063   1.686   0.912 -0.3014 -1.1726  1.5042
 8418TIP3    H125218   6.115   1.609   0.935  1.6718 -0.2758  0.2701
 8418TIP3    H225219   6.042   1.673   0.820 -1.6717 -1.1340  1.7871
 8419TIP3   OH225220   6.881   5.426   1.642  1.1091 -0.0511  0.5117
 8419TIP3    H125221   6.842   5.512   1.660  1.1927  0.0485  0.2197
 8419TIP3    H225222   6.962   5.425   1.693  1.4277  0.2961  0.0234
 8420TIP3   OH225223   4.332   2.753   2.545  0.1737  0.0827  0.1353
 8420TIP3    H125224   4.403   2.807   2.510 -0.3065  1.1133  0.7280
 8420TIP3    H225225   4.365   2.722   2.630  0.9573 -1.6436 -0.7393
 8421TIP3   OH225226   6.934   1.239   4.007  0.4373 -0.5778  0.2859
 8421TIP3    H125227   6.845   1.269   4.024  0.7519  0.0312  0.8746
 8421TIP3    H225228   6.936   1.222   3.913  0.3342  1.5704 -0.1497
 8422TIP3   OH225229   0.545   2.888   5.034 -0.0528  0.1610 -0.1711
 8422TIP3    H125230   0.560   2.804   5.076  0.5723 -0.4830 -1.6246
 8422TIP3    H225231   0.620   2.942   5.060  1.2386 -0.7776 -1.7349
 8423TIP3   OH225232   3.741   0.090   3.093 -0.1369  0.2030  1.0746
 8423TIP3    H125233   3.834   0.072   3.082 -0.4988 -1.8877  0.8622
 8423TIP3    H225234   3.699   0.044   3.021 -1.2015  3.8324 -0.8361
 8424TIP3   OH225235   0.391   0.911   2.680 -0.3314  0.1428  0.1028
 8424TIP3    H125236   0.473   0.872   2.707  0.3620  2.5405  1.7326
 8424TIP3    H225237   0.407   0.941   2.590  0.4639  0.2702  0.2841
 8425TIP3   OH225238   0.439   4.616   5.205  0.1608  0.2944 -0.2630
 8425TIP3    H125239   0.364   4.565   5.236  0.2751 -0.0243 -0.5140
 8425TIP3    H225240   0.452   4.682   5.274 -0.5129  0.5226 -0.3473
 8426TIP3   OH225241   5.078   4.628   2.302 -1.0469  0.3360 -0.1114
 8426TIP3    H125242   5.123   4.574   2.238 -1.4026  0.6636 -0.6514
 8426TIP3    H225243   4.991   4.588   2.311 -1.9441  1.7763 -1.8236
 8427TIP3   OH225244   1.419   3.133   1.316  0.2087  0.1542  0.5415
 8427TIP3    H125245   1.396   3.224   1.335 -0.9737  0.1263 -0.6297
 8427TIP3    H225246   1.342   3.097   1.273  2.3176  0.0550 -3.7113
 8428TIP3   OH225247   4.443   1.199   3.290 -0.1526  0.3048  0.1820
 8428TIP3    H125248   4.415   1.200   3.199  1.7410 -0.6744 -0.4722
 8428TIP3    H225249   4.406   1.278   3.328 -1.1201  0.6421 -1.3765
 8429TIP3   OH225250   4.427   1.338   4.678 -0.7842  0.1122 -0.0074
 8429TIP3    H125251   4.408   1.392   4.754 -3.2721 -1.1399  0.3472
 8429TIP3    H225252   4.476   1.264   4.713 -0.6606  0.2572  0.1249
 8430TIP3   OH225253   6.496   5.601   1.939  0.2096 -0.4104 -0.2648
 8430TIP3    H125254   6.450   5.671   1.986 -2.2062 -0.9556 -1.6188
 8430TIP3    H225255   6.545   5.646   1.871  1.1611  0.1481  0.7590
 8431TIP3   OH225256   2.992   1.881   1.785  0.0672 -0.5209  0.2984
 8431TIP3    H125257   3.039   1.801   1.760  0.1231  0.2033 -2.2142
 8431TIP3    H225258   2.969   1.922   1.702 -1.8834  0.9951  1.5034
 8432TIP3   OH225259   6.218   4.638   3.625 -0.2527 -0.3401  0.8491
 8432TIP3    H125260   6.302   4.605   3.594  0.2059  0.7509  0.8976
 8432TIP3    H225261   6.176   4.561   3.664  0.0436 -1.2544 -0.5500
 8433TIP3   OH225262   2.706   0.101   5.075 -0.1424 -0.1925 -0.2083
 8433TIP3    H125263   2.709   0.127   5.167 -1.2593 -2.0794  0.4165
 8433TIP3    H225264   2.684   0.182   5.028  1.7401  1.0903  0.9917
 8434TIP3   OH225265   1.003   6.395   3.688  0.3375 -0.2669 -0.1128
 8434TIP3    H125266   0.963   6.335   3.752 -1.2185 -0.7025 -1.4354
 8434TIP3    H225267   1.015   6.342   3.610 -1.3585  1.1732 -1.4217
 8435TIP3   OH225268   2.464   2.840   3.340  0.1436  0.4757 -0.2345
 8435TIP3    H125269   2.523   2.833   3.264  1.5102 -0.4630  0.8559
 8435TIP3    H225270   2.454   2.934   3.354  3.0555  0.7582  0.7042
 8436TIP3   OH225271   1.483   6.428   4.694  0.3375  0.1962  0.5693
 8436TIP3    H125272   1.521   6.384   4.770  1.8716  0.3745 -0.0648
 8436TIP3    H225273   1.435   6.359   4.648 -0.4347  0.0430  1.5649
 8437TIP3   OH225274   4.676   5.474   4.558 -0.2164 -0.1539 -0.5950
 8437TIP3    H125275   4.626   5.420   4.619 -0.9746 -1.5179 -2.3132
 8437TIP3    H225276   4.627   5.556   4.552 -1.4767 -0.9180 -1.1381
 8438TIP3   OH225277   1.666   5.340   2.949  0.1004  0.1603  0.6691
 8438TIP3    H125278   1.578   5.377   2.952  0.0416  0.0578  0.2827
 8438TIP3    H225279   1.709   5.386   2.877  0.0675 -0.4206  0.2691
 8439TIP3   OH225280   7.021   6.585   1.720 -0.0876 -0.3505 -0.2854
 8439TIP3    H125281   6.942   6.533   1.733  0.4671 -0.8876  1.0699
 8439TIP3    H225282   6.996   6.674   1.744 -0.4723 -0.3774 -0.5822
 8440TIP3   OH225283   0.201   1.610   0.737  0.4610  0.1627 -0.2986
 8440TIP3    H125284   0.194   1.515   0.731 -1.1249  0.1720  0.7950
 8440TIP3    H225285   0.147   1.634   0.813 -0.4111  2.0657 -1.4357
 8441TIP3   OH225286   4.771   5.374   3.106  0.4431 -0.1844  0.2647
 8441TIP3    H125287   4.699   5.435   3.118  0.1890 -0.7969  2.2076
 8441TIP3    H225288   4.830   5.418   3.045  0.2868  2.0629  1.6013
 8442TIP3   OH225289   4.547   4.843   3.816 -0.1757  0.0551  0.1986
 8442TIP3    H125290   4.617   4.885   3.766 -2.3838  2.8879 -0.8167
 8442TIP3    H225291   4.528   4.763   3.767  1.7848 -0.4175  0.1123
 8443TIP3   OH225292   6.471   2.840   1.241 -0.6265 -0.5288  0.1440
 8443TIP3    H125293   6.538   2.899   1.207 -1.6562  0.1107 -0.8517
 8443TIP3    H225294   6.391   2.868   1.197 -2.2060  0.7121  3.4770
 8444TIP3   OH225295   0.083   0.908   0.698 -0.0207 -1.1051 -0.0980
 8444TIP3    H125296   0.171   0.890   0.732  0.4643 -1.3437 -1.4532
 8444TIP3    H225297   0.085   0.877   0.608 -1.2939 -0.4929 -0.3514
 8445TIP3   OH225298   2.358   3.746   2.972 -0.4082  0.3273  0.3833
 8445TIP3    H125299   2.375   3.765   2.879 -1.6769 -0.1242  0.0402
 8445TIP3    H225300   2.430   3.688   2.998  0.0446  0.5831 -0.2648
 8446TIP3   OH225301   3.868   0.991   4.485  0.6366 -0.1015 -0.0908
 8446TIP3    H125302   3.928   0.993   4.560  0.5930  1.5072 -0.0515
 8446TIP3    H225303   3.878   1.078   4.445 -2.3603  0.5972  0.4762
 8447TIP3   OH225304   0.037   0.223   1.131 -0.5437  0.3211  0.0009
 8447TIP3    H125305  -0.021   0.284   1.086 -1.7875 -0.6677  0.1921
 8447TIP3    H225306   0.019   0.236   1.224 -1.4638 -0.9006  0.0187
 8448TIP3   OH225307   4.028   2.280   1.369  0.4982  0.4336  0.0835
 8448TIP3    H125308   4.093   2.274   1.439 -0.1599  1.9615  0.8734
 8448TIP3    H225309   3.985   2.365   1.383 -1.5113 -0.4101 -0.5445
 8449TIP3   OH225310   3.581   0.288   1.881  0.6745  0.0651 -0.0656
 8449TIP3    H125311   3.669   0.327   1.884  0.9778 -0.1740 -2.7319
 8449TIP3    H225312   3.522   0.363   1.888  1.1390  0.4067  0.2392
 8450TIP3   OH225313   3.680   0.568   1.405 -0.1413 -0.5477 -0.0956
 8450TIP3    H125314   3.603   0.517   1.430 -0.0099  0.0893  1.7670
 8450TIP3    H225315   3.754   0.517   1.439  0.0675  0.2213  0.6291
 8451TIP3   OH225316   4.523   3.464   1.374 -0.4174 -0.1268  0.4584
 8451TIP3    H125317   4.495   3.555   1.364  1.8065  0.7261  1.4727
 8451TIP3    H225318   4.510   3.445   1.467 -0.0872 -0.5756  0.4166
 8452TIP3   OH225319   4.514   4.588   0.941 -0.2009 -0.2642  0.1922
 8452TIP3    H125320   4.538   4.588   0.849 -0.0338 -0.3771  0.2347
 8452TIP3    H225321   4.485   4.498   0.959  1.3418 -0.7091  0.6457
 8453TIP3   OH225322   0.289   3.804   4.216  0.0727 -0.5541  0.3371
 8453TIP3    H125323   0.276   3.874   4.151 -2.6414 -1.4558 -0.2168
 8453TIP3    H225324   0.315   3.851   4.295 -0.7946  1.0265 -0.2539
 8454TIP3   OH225325   7.083   5.286   2.222  0.0318 -0.1549  0.1898
 8454TIP3    H125326   7.054   5.292   2.313 -0.0174 -1.9285  0.3088
 8454TIP3    H225327   7.059   5.371   2.185 -0.2476  0.4828  1.7334
 8455TIP3   OH225328   2.262   1.883   5.590  0.6145 -0.0194 -0.6381
 8455TIP3    H125329   2.327   1.823   5.628  0.5385  0.5240  0.3977
 8455TIP3    H225330   2.299   1.908   5.505  0.6500 -1.5013 -1.0911
 8456TIP3   OH225331   0.318   0.076   4.392  0.1042 -0.3925 -0.5562
 8456TIP3    H125332   0.260   0.076   4.317 -1.1723  1.7685  0.3134
 8456TIP3    H225333   0.406   0.089   4.355 -0.3300 -0.7686 -1.7378
 8457TIP3   OH225334   1.577   1.300   4.820  0.4388  0.0039 -0.0917
 8457TIP3    H125335   1.578   1.307   4.725  1.8331  0.6933 -0.0408
 8457TIP3    H225336   1.597   1.208   4.838 -0.5803 -0.3105 -0.4483
 8458TIP3   OH225337   3.676   6.746   0.290 -0.4576 -0.2376 -0.0960
 8458TIP3    H125338   3.656   6.829   0.248  0.1102 -0.7251 -1.4103
 8458TIP3    H225339   3.639   6.680   0.231  1.6900 -1.0013 -0.7099
 8459TIP3   OH225340   5.664   5.475   2.198 -0.3540  0.0214  0.6058
 8459TIP3    H125341   5.696   5.395   2.155 -1.6883 -0.8351  1.1728
 8459TIP3    H225342   5.707   5.546   2.149  1.8433 -1.0326  0.8841
 8460TIP3   OH225343   0.831   4.376   5.818  0.8061 -0.3115 -0.1251
 8460TIP3    H125344   0.861   4.413   5.735  0.2131  1.8176  0.5341
 8460TIP3    H225345   0.873   4.431   5.885 -0.8472 -0.2082  0.8953
 8461TIP3   OH225346   1.779   4.172   0.901  0.1817 -0.1970 -0.2328
 8461TIP3    H125347   1.875   4.165   0.896  0.3569  1.6820 -4.3586
 8461TIP3    H225348   1.762   4.265   0.887 -2.2434 -0.7127 -1.0937
 8462TIP3   OH225349   3.017   1.910   4.785  0.0042  0.4451  0.4553
 8462TIP3    H125350   2.985   1.881   4.699  2.0627 -0.9055  0.0749
 8462TIP3    H225351   2.990   1.841   4.845  0.7014  0.1422  0.4280
 8463TIP3   OH225352   7.184   0.172   3.568 -0.1025 -0.4479  0.5507
 8463TIP3    H125353   7.192   0.158   3.662 -1.7125  0.2681  0.8370
 8463TIP3    H225354   7.102   0.221   3.558  0.9624  1.1122 -1.0669
 8464TIP3   OH225355   3.730   5.417   1.921  0.2352 -0.0120  0.0415
 8464TIP3    H125356   3.675   5.348   1.884  0.9216 -0.0465 -0.9744
 8464TIP3    H225357   3.818   5.396   1.891  0.6909  0.4598  1.0092
 8465TIP3   OH225358   3.572   5.441   2.980  0.6018  0.2595  0.0337
 8465TIP3    H125359   3.620   5.485   2.910  0.0936 -1.6277 -1.6252
 8465TIP3    H225360   3.488   5.418   2.940 -1.0208  1.8400  2.2726
 8466TIP3   OH225361   3.154   1.436   3.349  0.6090 -0.4233 -0.0330
 8466TIP3    H125362   3.155   1.513   3.293 -1.9819 -0.3145 -0.0295
 8466TIP3    H225363   3.219   1.455   3.417  0.6269  1.3635 -0.5027
 8467TIP3   OH225364   3.535   2.244   2.679 -0.3472 -0.0822 -0.0856
 8467TIP3    H125365   3.574   2.182   2.740 -0.1169  0.4935  0.3590
 8467TIP3    H225366   3.606   2.307   2.660 -0.9701  0.8429  0.5562
 8468TIP3   OH225367   1.061   1.384   4.353 -0.6139 -0.5346 -0.3135
 8468TIP3    H125368   1.009   1.400   4.432  0.0304  0.4601 -0.0591
 8468TIP3    H225369   1.130   1.325   4.381  1.1036  1.7329  0.5740
 8469TIP3   OH225370   6.389   0.235   5.717  0.2217 -0.1415  0.2310
 8469TIP3    H125371   6.344   0.311   5.754 -0.7147 -0.2637 -0.6391
 8469TIP3    H225372   6.461   0.219   5.778 -0.3122  0.6668  1.1067
 8470TIP3   OH225373   5.372   1.897   1.455  0.0692  0.5102 -0.0286
 8470TIP3    H125374   5.363   1.802   1.460  0.0189  0.4836 -0.5546
 8470TIP3    H225375   5.395   1.924   1.544  0.5640 -0.0490  0.0170
 8471TIP3   OH225376   1.942   5.274   3.048 -0.2270  0.2264  0.2257
 8471TIP3    H125377   1.855   5.310   3.029  0.7839  2.8215  0.1131
 8471TIP3    H225378   1.951   5.284   3.143  0.4207  1.1758  0.0738
 8472TIP3   OH225379   6.665   4.272   2.213  0.1678 -0.6888  0.2826
 8472TIP3    H125380   6.694   4.184   2.186 -0.6644 -1.4106  1.6261
 8472TIP3    H225381   6.574   4.277   2.184  0.4568  0.0668 -0.5145
 8473TIP3   OH225382   1.894   3.583   4.728  0.6905  0.4662  0.7238
 8473TIP3    H125383   1.911   3.517   4.662 -0.0746  1.9736 -1.0615
 8473TIP3    H225384   1.809   3.560   4.765 -0.2315  1.1498 -0.8659
 8474TIP3   OH225385   1.836   5.714   1.105 -0.2503 -0.4250  0.0373
 8474TIP3    H125386   1.822   5.790   1.161 -0.6600  1.0272 -1.9414
 8474TIP3    H225387   1.913   5.671   1.142  0.6627  1.5721  0.5790
 8475TIP3   OH225388   5.049   3.506   4.443  0.5843 -0.3972  0.6529
 8475TIP3    H125389   5.073   3.414   4.450 -0.5167 -0.8594 -1.0130
 8475TIP3    H225390   5.094   3.536   4.364 -0.9310 -0.1792 -0.1582
 8476TIP3   OH225391   1.177   6.627   0.742 -0.1841 -0.7888  0.3011
 8476TIP3    H125392   1.272   6.643   0.745  0.1750 -2.7533  1.2570
 8476TIP3    H225393   1.168   6.552   0.683 -1.3971  0.6319 -1.3972
 8477TIP3   OH225394   3.460   5.338   3.319  0.1352 -0.3828  1.0242
 8477TIP3    H125395   3.544   5.355   3.278 -0.3631 -1.2973 -0.4337
 8477TIP3    H225396   3.480   5.327   3.412  1.4811  0.3252  0.8338
 8478TIP3   OH225397   2.740   1.606   5.142  0.0762  0.3895 -0.0525
 8478TIP3    H125398   2.829   1.585   5.169  0.2171  0.8027 -0.1912
 8478TIP3    H225399   2.693   1.523   5.148  0.0863  0.4761  1.5236
 8479TIP3   OH225400   0.397   4.354   1.865 -0.5676  0.2260  0.0901
 8479TIP3    H125401   0.417   4.266   1.897  0.1500  0.3258 -0.0476
 8479TIP3    H225402   0.321   4.343   1.809 -0.4880 -0.3095  0.0776
 8480TIP3   OH225403   5.109   5.042   4.812 -0.2660  0.3802 -0.0374
 8480TIP3    H125404   5.059   5.114   4.848 -1.5630  0.1406 -1.2704
 8480TIP3    H225405   5.095   5.047   4.717  1.5927 -0.0506 -0.3923
 8481TIP3   OH225406   3.754   1.358   3.227 -0.4150  0.4797 -0.2790
 8481TIP3    H125407   3.750   1.414   3.305  0.9608  1.6197 -0.9868
 8481TIP3    H225408   3.663   1.329   3.214 -0.8538  1.1438  1.1062
 8482TIP3   OH225409   1.774   2.628   0.663 -0.0191  0.7478  0.2685
 8482TIP3    H125410   1.783   2.536   0.687  0.3878  1.1705  1.8415
 8482TIP3    H225411   1.692   2.656   0.703 -1.5588  0.4390 -2.4346
 8483TIP3   OH225412   4.934   2.718   1.020  0.1773 -0.3460 -0.0166
 8483TIP3    H125413   4.861   2.728   1.081 -0.8685 -1.1175 -1.0862
 8483TIP3    H225414   4.943   2.804   0.979  0.1305 -0.1429  0.3937
 8484TIP3   OH225415   1.091   2.895   0.851 -0.2249 -0.1464 -0.0666
 8484TIP3    H125416   1.133   2.839   0.917 -1.2969  0.5395  1.2670
 8484TIP3    H225417   1.151   2.969   0.840 -0.1340 -0.1613  0.3107
 8485TIP3   OH225418   1.208   0.735   1.590  0.4593 -0.3288  0.3189
 8485TIP3    H125419   1.219   0.718   1.684  0.3748 -1.2658  0.1682
 8485TIP3    H225420   1.148   0.667   1.560  1.2439 -0.6361 -0.6093
 8486TIP3   OH225421   6.150   1.715   3.460 -0.2531  0.2996 -0.0483
 8486TIP3    H125422   6.199   1.768   3.523  0.6724 -0.8003  0.1921
 8486TIP3    H225423   6.066   1.760   3.451 -0.2529  0.7221  1.6644
 8487TIP3   OH225424   2.726   5.828   3.907  0.1087  0.4433  0.0270
 8487TIP3    H125425   2.730   5.772   3.984  2.7817  0.9954  0.3955
 8487TIP3    H225426   2.774   5.907   3.933 -0.3329  1.3184 -1.6862
 8488TIP3   OH225427   3.865   1.650   5.112 -0.1026  0.1017 -0.2981
 8488TIP3    H125428   3.937   1.713   5.122  1.2556 -1.2774 -0.9006
 8488TIP3    H225429   3.831   1.668   5.024 -0.3616  0.6241 -0.0938
 8489TIP3   OH225430   4.805   4.062   4.693  0.1302 -0.1509 -0.8775
 8489TIP3    H125431   4.859   4.021   4.761 -1.4858 -1.2046 -0.1455
 8489TIP3    H225432   4.809   4.155   4.712  0.1933 -0.3824  0.3225
 8490TIP3   OH225433   5.461   5.930   4.188 -0.6183  0.2344 -0.1144
 8490TIP3    H125434   5.431   5.851   4.233 -0.1200 -0.0114 -0.2059
 8490TIP3    H225435   5.545   5.906   4.151 -0.0105  1.0956  0.6601
 8491TIP3   OH225436   2.857   5.286   4.869 -0.5527 -0.3878  0.2783
 8491TIP3    H125437   2.923   5.354   4.883  0.7298 -1.4808 -0.2894
 8491TIP3    H225438   2.894   5.208   4.911 -0.6441 -1.4698 -1.5702
 8492TIP3   OH225439   1.504   0.556   4.504 -0.2487 -0.2123 -0.3181
 8492TIP3    H125440   1.468   0.637   4.468  0.5115  0.3457  0.1503
 8492TIP3    H225441   1.483   0.559   4.597  0.3090 -0.2506 -0.1841
 8493TIP3   OH225442   1.114   1.237   5.553  0.0405  0.0898 -0.0176
 8493TIP3    H125443   1.128   1.142   5.559 -2.8581 -0.5270 -1.1332
 8493TIP3    H225444   1.087   1.251   5.462 -0.4389  1.8630  0.3582
 8494TIP3   OH225445   2.431   3.270   4.993  0.3021 -0.1852 -0.5951
 8494TIP3    H125446   2.465   3.182   4.978 -0.1793 -0.5982  0.5930
 8494TIP3    H225447   2.372   3.260   5.068  0.4543  1.2003 -0.2637
 8495TIP3   OH225448   2.735   4.327   3.391  0.3026  0.0215 -0.3784
 8495TIP3    H125449   2.828   4.304   3.395 -0.0339 -1.3393 -0.0086
 8495TIP3    H225450   2.713   4.323   3.298  0.7444  0.9302 -0.5305
 8496TIP3   OH225451   4.842   6.766   2.644 -0.3233  0.4128 -0.1552
 8496TIP3    H125452   4.865   6.785   2.553 -0.1652 -0.3193 -0.2796
 8496TIP3    H225453   4.770   6.825   2.665 -1.0459 -0.1153 -1.0830
 8497TIP3   OH225454   3.662   4.327   2.555 -0.4164 -0.7535  0.4671
 8497TIP3    H125455   3.732   4.274   2.592  1.1154 -0.6619 -2.0951
 8497TIP3    H225456   3.694   4.417   2.560 -0.1918 -0.7329 -0.9633
 8498TIP3   OH225457   7.004   1.610   1.191 -0.6513  0.3682 -0.0390
 8498TIP3    H125458   6.969   1.650   1.271 -0.8508  0.2384 -0.0614
 8498TIP3    H225459   6.982   1.517   1.200 -0.4239  0.3087 -0.1122
 8499TIP3   OH225460   2.896   1.206   0.054  0.0146 -0.1091 -0.2241
 8499TIP3    H125461   2.827   1.186   0.118  1.0978 -1.3948  0.6109
 8499TIP3    H225462   2.969   1.150   0.081  1.9166  2.2733 -0.1645
 8500TIP3   OH225463   6.036   1.137   2.759 -0.1452 -0.8295 -0.5914
 8500TIP3    H125464   5.994   1.217   2.728  0.3882 -0.9736 -1.7279
 8500TIP3    H225465   6.042   1.081   2.682  1.3313 -1.1506 -0.2788
 8501TIP3   OH225466   0.387   3.243   3.631  0.1574  0.2616  0.3262
 8501TIP3    H125467   0.360   3.289   3.710 -0.9366  0.4826 -0.1573
 8501TIP3    H225468   0.310   3.246   3.574  0.0858 -2.0272  0.2166
 8502TIP3   OH225469   4.590   3.894   1.014  0.5778  0.0731  0.2380
 8502TIP3    H125470   4.660   3.830   1.027  1.5734  0.9381 -0.7179
 8502TIP3    H225471   4.583   3.939   1.098 -0.2721 -1.3807  0.9895
 8503TIP3   OH225472   6.356   3.990   1.639 -0.1405 -0.1458 -0.1414
 8503TIP3    H125473   6.432   4.041   1.666  0.2183 -1.4001  1.3676
 8503TIP3    H225474   6.388   3.931   1.571 -0.1292  0.3453 -0.5669
 8504TIP3   OH225475   0.382   4.928   0.061  0.1073  0.6831 -0.1675
 8504TIP3    H125476   0.308   4.891   0.012  0.3290 -1.7400  1.1563
 8504TIP3    H225477   0.433   4.975  -0.004 -1.2818  0.2935 -1.6114
 8505TIP3   OH225478   5.313   1.367   4.745  0.3137 -0.3839 -0.1750
 8505TIP3    H125479   5.360   1.396   4.824  0.9607 -0.2665 -0.5996
 8505TIP3    H225480   5.221   1.363   4.773  0.6908 -1.7664  1.0204
 8506TIP3   OH225481   3.458   2.972   3.017 -0.1328  0.0983  0.2150
 8506TIP3    H125482   3.466   3.019   2.934  0.2907  1.0443  0.7835
 8506TIP3    H225483   3.414   3.034   3.076 -1.0225 -0.7884  0.5313
 8507TIP3   OH225484   5.557   1.128   3.766 -0.8382  0.4137  0.5706
 8507TIP3    H125485   5.599   1.202   3.722  0.8848 -0.2930  0.9463
 8507TIP3    H225486   5.493   1.168   3.824 -0.7368  1.5440 -0.0617
 8508TIP3   OH225487   4.813   3.724   5.159  0.0893  0.4390  0.3155
 8508TIP3    H125488   4.842   3.687   5.242  1.3270 -0.9967 -0.6937
 8508TIP3    H225489   4.748   3.662   5.126  0.5420  0.2959 -0.3532
 8509TIP3   OH225490   2.490   6.309   1.327  0.1806  0.1287 -0.1198
 8509TIP3    H125491   2.459   6.302   1.236 -0.4211  0.0682  0.0859
 8509TIP3    H225492   2.487   6.402   1.346  1.9858  0.3429 -0.7269
 8510TIP3   OH225493   6.601   2.624   0.414 -0.1940  0.1136 -0.0532
 8510TIP3    H125494   6.695   2.642   0.418  0.4197 -2.5230  4.0820
 8510TIP3    H225495   6.563   2.679   0.483 -1.6692  0.7133 -1.2764
 8511TIP3   OH225496   3.078   2.036   3.812  0.0193  0.2145  0.1583
 8511TIP3    H125497   3.111   2.008   3.726 -3.3837  0.3266 -1.3484
 8511TIP3    H225498   3.048   1.955   3.853  0.2648  0.3548  0.6210
 8512TIP3   OH225499   5.244   4.830   2.381  0.2300 -0.5273  0.3238
 8512TIP3    H125500   5.315   4.833   2.316  0.9107 -2.7836  0.8705
 8512TIP3    H225501   5.177   4.774   2.341 -1.1600  1.3050 -0.0426
 8513TIP3   OH225502   4.688   0.619   2.651 -0.5179 -0.7644 -0.5546
 8513TIP3    H125503   4.614   0.643   2.706  1.3904  1.6266  1.1480
 8513TIP3    H225504   4.752   0.582   2.711  1.0371  0.5062 -1.3552
 8514TIP3   OH225505   7.100   6.200   0.847  0.1450 -0.1299 -0.2375
 8514TIP3    H125506   7.109   6.280   0.796  0.4286 -0.9857 -1.5725
 8514TIP3    H225507   7.034   6.149   0.801 -0.6784 -0.3073  1.0968
 8515TIP3   OH225508   1.839   4.162   3.187 -0.1931 -0.5051  0.1924
 8515TIP3    H125509   1.888   4.233   3.146  1.9966 -1.8620  0.2911
 8515TIP3    H225510   1.832   4.188   3.279 -1.5714  0.6775 -0.2208
 8516TIP3   OH225511   4.549   3.504   0.982  0.6786 -0.0240 -0.1803
 8516TIP3    H125512   4.632   3.551   0.979  0.1115  0.9677 -1.8968
 8516TIP3    H225513   4.573   3.412   0.967  1.3699  0.5048 -2.9501
 8517TIP3   OH225514   3.801   2.692   5.118  0.3790 -0.8306 -0.5263
 8517TIP3    H125515   3.777   2.657   5.032 -0.0169  0.2817 -0.8838
 8517TIP3    H225516   3.897   2.697   5.116  0.4386 -1.7307 -0.5176
 8518TIP3   OH225517   5.789   2.966   2.705  0.3689  0.1581 -0.1794
 8518TIP3    H125518   5.714   3.011   2.743  0.7105  0.3718  0.2598
 8518TIP3    H225519   5.752   2.905   2.642 -0.1652  0.3109 -0.0150
 8519TIP3   OH225520   0.954   4.200   1.132  0.7573  0.2621  0.4101
 8519TIP3    H125521   0.975   4.120   1.083  0.8019  1.0152 -0.8484
 8519TIP3    H225522   0.912   4.169   1.212 -0.1851 -0.9838 -0.5305
 8520TIP3   OH225523   4.598   1.260   3.949 -0.5993  0.0447  0.3980
 8520TIP3    H125524   4.524   1.253   4.009 -0.5960 -0.0567  0.3915
 8520TIP3    H225525   4.612   1.170   3.918 -1.7853  0.3487 -1.1848
 8521TIP3   OH225526   3.939   5.547   3.777  0.3703 -0.1549  0.2680
 8521TIP3    H125527   3.900   5.460   3.791 -0.2098  0.1107  0.3215
 8521TIP3    H225528   4.029   5.529   3.750  0.3965 -0.7668  0.7431
 8522TIP3   OH225529   1.872   5.602   2.915  0.4476  0.1428 -0.2436
 8522TIP3    H125530   1.859   5.640   3.002 -1.2041  1.0647 -0.8635
 8522TIP3    H225531   1.952   5.550   2.924  0.3385  0.2414  1.8140
 8523TIP3   OH225532   2.424   5.802   5.721 -0.1238 -0.0705 -0.1105
 8523TIP3    H125533   2.413   5.729   5.660 -0.9315  0.7131 -0.9343
 8523TIP3    H225534   2.517   5.826   5.712 -0.2556  0.1278 -1.1750
 8524TIP3   OH225535   2.525   6.410   5.674  0.3428  0.4884 -0.4954
 8524TIP3    H125536   2.527   6.506   5.668  0.6165  0.7548  2.5157
 8524TIP3    H225537   2.481   6.392   5.757  2.2502 -1.8977  0.1187
 8525TIP3   OH225538   5.149   4.807   3.405 -0.4485 -0.4648  0.1194
 8525TIP3    H125539   5.079   4.761   3.452 -1.1792 -0.2112 -0.6909
 8525TIP3    H225540   5.121   4.806   3.314  1.4490 -1.8277 -0.5001
 8526TIP3   OH225541   6.514   0.195   0.130  0.2858 -0.3779  0.6659
 8526TIP3    H125542   6.444   0.179   0.193 -0.1697  0.0677  0.2755
 8526TIP3    H225543   6.469   0.223   0.050  0.9630  1.5627  0.9182
 8527TIP3   OH225544   2.205   4.972   2.818 -0.0518 -0.4768 -0.7893
 8527TIP3    H125545   2.170   5.061   2.820 -0.9510 -0.8124 -1.1543
 8527TIP3    H225546   2.217   4.949   2.910  1.1796  0.3903 -0.7126
 8528TIP3   OH225547   4.414   2.775   3.249  0.6137 -0.2003  0.4927
 8528TIP3    H125548   4.323   2.744   3.251  0.1123  1.2449  1.1328
 8528TIP3    H225549   4.462   2.703   3.208 -1.2268  0.0311 -2.3794
 8529TIP3   OH225550   1.630   0.328   1.889  0.2247  0.2741  0.7020
 8529TIP3    H125551   1.662   0.247   1.851 -0.0336  0.3734  0.2661
 8529TIP3    H225552   1.564   0.300   1.953 -0.8236  0.1746 -0.3744
 8530TIP3   OH225553   2.739   6.731   4.182  0.3248 -0.0503 -0.8190
 8530TIP3    H125554   2.685   6.656   4.207 -1.8970  0.8501 -2.6016
 8530TIP3    H225555   2.818   6.723   4.236 -0.8222 -2.3876  0.6504
 8531TIP3   OH225556   4.027   5.734   0.564  0.3319 -0.7639  0.0597
 8531TIP3    H125557   3.962   5.740   0.493 -1.1317  0.6685  1.4369
 8531TIP3    H225558   4.110   5.717   0.519 -1.0892 -4.1463 -1.7056
 8532TIP3   OH225559   4.924   5.649   5.814 -0.0847  0.0577 -0.0436
 8532TIP3    H125560   4.926   5.744   5.819 -1.8825  0.0758  2.8984
 8532TIP3    H225561   4.988   5.627   5.747  1.7553  3.2440  0.4691
 8533TIP3   OH225562   3.200   3.502   2.064 -0.1529  0.8029  0.1459
 8533TIP3    H125563   3.188   3.569   2.131 -1.0019  0.8942 -0.0880
 8533TIP3    H225564   3.230   3.551   1.987 -2.1285  1.1582 -0.4643
 8534TIP3   OH225565   0.496   4.562   0.643  0.0996  0.5009 -0.2150
 8534TIP3    H125566   0.469   4.654   0.632 -1.4690 -0.0493 -1.4825
 8534TIP3    H225567   0.554   4.563   0.718 -1.4328  2.2622  1.0596
 8535TIP3   OH225568   7.101   2.742   2.702 -0.0337  0.2366 -0.2952
 8535TIP3    H125569   7.140   2.829   2.712  2.3600 -0.5250 -2.0550
 8535TIP3    H225570   7.070   2.720   2.790 -1.0992  2.9739  0.1420
 8536TIP3   OH225571   1.269   2.326   5.029 -0.7977  0.2731 -0.3049
 8536TIP3    H125572   1.227   2.327   4.943  0.5283  1.1875 -0.9794
 8536TIP3    H225573   1.345   2.268   5.018 -1.2921 -0.5713  0.6073
 8537TIP3   OH225574   2.770   3.688   2.003 -0.2550 -0.3406  0.3862
 8537TIP3    H125575   2.784   3.628   1.930  0.9569 -0.6694  0.8504
 8537TIP3    H225576   2.858   3.715   2.029 -0.3851 -2.2619  3.3649
 8538TIP3   OH225577   2.953   2.970   1.709  0.3118 -0.0132  0.4378
 8538TIP3    H125578   3.000   3.001   1.787 -0.3435 -0.4308  1.0133
 8538TIP3    H225579   3.017   2.977   1.638  0.5824  1.4037  0.7917
 8539TIP3   OH225580   5.869   2.968   1.157  0.1718 -0.4038  0.0983
 8539TIP3    H125581   5.845   3.023   1.232 -1.6007 -0.8245 -0.1089
 8539TIP3    H225582   5.787   2.958   1.108  1.1574 -0.6436 -1.5761
 8540TIP3   OH225583   0.603   3.253   5.126  0.3473 -0.4529  0.3140
 8540TIP3    H125584   0.687   3.233   5.166  1.2031 -0.9415 -1.6433
 8540TIP3    H225585   0.541   3.251   5.199  1.9579 -0.3944  1.7404
 8541TIP3   OH225586   1.796   0.508   1.527  0.2012 -0.0811  0.2716
 8541TIP3    H125587   1.751   0.562   1.461 -0.1354 -1.1910 -0.4373
 8541TIP3    H225588   1.764   0.541   1.611  0.2264  1.0124 -0.1307
 8542TIP3   OH225589   4.724   2.660   1.198 -0.0229  0.0231 -0.4112
 8542TIP3    H125590   4.722   2.588   1.261  3.6613  0.0893  0.0104
 8542TIP3    H225591   4.662   2.725   1.233  0.4258 -0.7882  2.0782
 8543TIP3   OH225592   3.302   5.751   4.248  0.3171 -0.0526 -0.5604
 8543TIP3    H125593   3.234   5.756   4.181 -0.8675 -1.5899  0.4430
 8543TIP3    H225594   3.253   5.743   4.330  1.7270  0.9555  0.4108
 8544TIP3   OH225595   3.691   5.480   4.923  0.0132 -0.4756  0.3758
 8544TIP3    H125596   3.654   5.430   4.996 -0.5752 -0.5634  0.0270
 8544TIP3    H225597   3.641   5.561   4.922 -0.2190 -0.6175 -0.1371
 8545TIP3   OH225598   0.718   4.816   4.880  0.5007  0.2483 -0.1873
 8545TIP3    H125599   0.711   4.905   4.845 -0.6956  0.6038  0.8766
 8545TIP3    H225600   0.773   4.770   4.816  0.6486  1.5768 -1.0759
 8546TIP3   OH225601   4.359   4.388   3.215 -0.4504  0.4188  0.0018
 8546TIP3    H125602   4.320   4.301   3.227 -1.2382  0.5702 -1.3349
 8546TIP3    H225603   4.284   4.447   3.206  0.0887  1.0978 -0.0930
 8547TIP3   OH225604   1.420   6.177   2.043 -0.1226 -0.2994 -0.0577
 8547TIP3    H125605   1.356   6.115   2.010 -0.2383 -0.6703  0.8272
 8547TIP3    H225606   1.495   6.124   2.070  0.0217 -0.0024  0.1444
 8548TIP3   OH225607   1.280   5.702   1.986  0.4708  0.1595  0.4138
 8548TIP3    H125608   1.293   5.769   1.920 -1.4528 -0.8228 -1.0582
 8548TIP3    H225609   1.221   5.742   2.050  1.3389  0.6795  0.9188
 8549TIP3   OH225610   3.826   0.818   2.370  0.0473  0.2681 -0.2549
 8549TIP3    H125611   3.829   0.785   2.280  0.2129  1.0621 -0.5478
 8549TIP3    H225612   3.858   0.745   2.423  1.5832  0.3638 -1.0106
 8550TIP3   OH225613   6.509   4.675   0.783 -0.1145 -0.5935  0.0187
 8550TIP3    H125614   6.454   4.753   0.794  2.5959  1.2442  1.4613
 8550TIP3    H225615   6.503   4.629   0.867  1.3757  0.2278  0.5970
 8551TIP3   OH225616   2.271   6.577   0.932 -0.2211  0.3300  0.4254
 8551TIP3    H125617   2.183   6.542   0.946  0.0097 -0.2915  0.3578
 8551TIP3    H225618   2.287   6.634   1.008 -1.2968  1.7393 -0.3606
 8552TIP3   OH225619   1.808   4.172   4.894  0.0949 -0.3270  0.5272
 8552TIP3    H125620   1.897   4.161   4.862 -0.0476  1.3054 -0.5175
 8552TIP3    H225621   1.791   4.092   4.944  1.5294 -1.4356 -0.6658
 8553TIP3   OH225622   2.263   4.379   2.304  0.5512  0.3289 -0.1008
 8553TIP3    H125623   2.300   4.460   2.339 -0.9669  0.6708  0.8458
 8553TIP3    H225624   2.264   4.319   2.378  0.0736  0.0637 -0.3033
 8554TIP3   OH225625   0.623   3.513   4.781  0.3009 -0.0893  0.5429
 8554TIP3    H125626   0.698   3.484   4.729  0.3764  2.0258 -0.6346
 8554TIP3    H225627   0.580   3.578   4.726 -1.4938 -0.1053  1.8554
 8555TIP3   OH225628   1.509   6.672   4.461  0.4230  0.4767  0.2262
 8555TIP3    H125629   1.458   6.670   4.381  0.2575 -0.6926  0.3445
 8555TIP3    H225630   1.456   6.626   4.525  0.9807  0.5431  0.7481
 8556TIP3   OH225631   4.799   3.634   1.053 -0.2975  0.2162 -0.6163
 8556TIP3    H125632   4.804   3.562   1.115 -1.8473 -0.0634 -0.7783
 8556TIP3    H225633   4.887   3.674   1.055 -0.5035  0.7267  2.3236
 8557TIP3   OH225634   7.080   1.683   1.935 -0.2172 -0.0897 -0.0588
 8557TIP3    H125635   7.171   1.710   1.926 -0.5014  1.1269  0.5435
 8557TIP3    H225636   7.047   1.734   2.009 -1.0469 -1.4361  0.5244
 8558TIP3   OH225637   2.155   6.330   3.528 -0.2998  0.2904  0.5085
 8558TIP3    H125638   2.248   6.319   3.508 -0.2012  0.3329  0.9345
 8558TIP3    H225639   2.141   6.425   3.525 -0.2316  0.3138  0.8608
 8559TIP3   OH225640   2.571   1.528   2.631  0.2175 -0.6081  0.5184
 8559TIP3    H125641   2.576   1.432   2.633 -0.3739 -0.6609 -0.0276
 8559TIP3    H225642   2.618   1.552   2.551 -1.5807 -0.6200 -0.6090
 8560TIP3   OH225643   2.554   6.113   4.523 -0.1506 -0.1895 -0.7463
 8560TIP3    H125644   2.638   6.084   4.489 -0.0012 -0.4078 -0.2098
 8560TIP3    H225645   2.526   6.182   4.464 -0.3081 -1.1303 -1.8046
 8561TIP3   OH225646   3.946   2.041   3.972  0.4304 -0.5751  0.3438
 8561TIP3    H125647   3.990   2.118   4.007 -2.7745  0.5345  2.3920
 8561TIP3    H225648   3.958   1.974   4.040  0.1112 -0.6912  0.2870
 8562TIP3   OH225649   6.093   2.613   5.040  0.6068 -0.1179  0.2050
 8562TIP3    H125650   6.071   2.538   5.094  2.9405 -0.7524  0.3588
 8562TIP3    H225651   6.113   2.576   4.954  4.1111 -0.1088  0.8695
 8563TIP3   OH225652   3.984   6.668   2.907 -0.1245 -0.5103  0.6890
 8563TIP3    H125653   3.906   6.641   2.956 -0.3465 -2.0302 -0.4025
 8563TIP3    H225654   4.038   6.589   2.904  0.3842 -0.1330 -0.5481
 8564TIP3   OH225655   2.443   3.960   2.418 -0.6192  0.1689 -0.0088
 8564TIP3    H125656   2.425   3.961   2.324  0.8600  0.7461 -0.2992
 8564TIP3    H225657   2.532   3.928   2.425 -0.4913  0.7483  1.1666
 8565TIP3   OH225658   2.995   6.415   5.439 -0.3790  0.4027  0.2364
 8565TIP3    H125659   2.916   6.459   5.471 -0.7222  0.5143 -0.7082
 8565TIP3    H225660   2.963   6.362   5.365  0.7771  2.1834 -1.6127
 8566TIP3   OH225661   0.345   5.416   1.177 -0.1648 -0.6210  0.2502
 8566TIP3    H125662   0.372   5.463   1.098 -0.3158 -0.3072  0.3840
 8566TIP3    H225663   0.260   5.453   1.199 -0.0979 -0.6654  0.5898
 8567TIP3   OH225664   1.249   3.408   3.634  0.3985  0.3983  0.4292
 8567TIP3    H125665   1.322   3.469   3.637  0.2347  0.9182 -2.6822
 8567TIP3    H225666   1.269   3.349   3.562 -2.0769  0.3948 -0.3701
 8568TIP3   OH225667   1.150   3.813   1.104 -0.3728 -0.3328 -0.1266
 8568TIP3    H125668   1.147   3.899   1.062  2.3720  0.5083  1.1567
 8568TIP3    H225669   1.121   3.830   1.194 -0.6001 -0.9376 -0.0818
 8569TIP3   OH225670   3.347   5.729   3.306  0.1358  0.2156  0.0631
 8569TIP3    H125671   3.431   5.713   3.262  0.7870  1.6380  0.7079
 8569TIP3    H225672   3.283   5.678   3.256  1.4104 -1.0721 -0.3077
 8570TIP3   OH225673   3.120   1.601   0.169  0.8839 -0.3932 -0.2045
 8570TIP3    H125674   3.059   1.641   0.232 -0.0914 -0.3044 -1.1876
 8570TIP3    H225675   3.112   1.507   0.184 -1.2859 -0.5451 -1.8791
 8571TIP3   OH225676   3.555   3.332   2.778 -0.1373 -1.1142 -0.3384
 8571TIP3    H125677   3.555   3.405   2.717  0.7582 -0.2184  0.7035
 8571TIP3    H225678   3.502   3.362   2.852  0.9038 -1.1839  0.4583
 8572TIP3   OH225679   5.162   6.672   2.970  0.1474 -0.1884 -0.2893
 8572TIP3    H125680   5.146   6.644   3.060 -0.4714 -0.0444 -0.3515
 8572TIP3    H225681   5.105   6.617   2.917  0.5174 -0.2782 -0.5959
 8573TIP3   OH225682   1.162   0.750   3.231  1.1606  0.0172 -0.0900
 8573TIP3    H125683   1.187   0.660   3.249 -0.0769  0.0538  2.1250
 8573TIP3    H225684   1.221   0.803   3.284 -1.3490  0.2071  2.8259
 8574TIP3   OH225685   2.312   4.885   3.484  0.0105 -0.0866 -0.4025
 8574TIP3    H125686   2.342   4.854   3.570 -1.7637  0.5384  0.4990
 8574TIP3    H225687   2.359   4.967   3.470 -2.2144  1.7197  1.7260
 8575TIP3   OH225688   1.649   3.851   2.967  0.0047  0.0900 -0.0871
 8575TIP3    H125689   1.570   3.893   2.932 -1.4883 -2.7344 -0.4187
 8575TIP3    H225690   1.616   3.796   3.039  1.6927 -1.0006 -0.1065
 8576TIP3   OH225691   4.458   0.682   5.628  0.3674  0.4419 -0.1478
 8576TIP3    H125692   4.412   0.662   5.547 -0.4524 -1.0076  0.6435
 8576TIP3    H225693   4.425   0.769   5.653 -0.5002  0.2421 -0.5726
 8577TIP3   OH225694   1.543   5.315   0.169 -0.0620  0.1872 -0.2051
 8577TIP3    H125695   1.558   5.220   0.177  0.1838  0.1298 -1.1766
 8577TIP3    H225696   1.599   5.354   0.236  0.6844 -0.3059 -0.5205
 8578TIP3   OH225697   1.076   2.351   4.064 -0.5454  0.4177 -0.4229
 8578TIP3    H125698   1.136   2.396   4.005  0.8586  0.8511  1.2697
 8578TIP3    H225699   1.099   2.258   4.055 -2.0115  0.1702 -2.3231
 8579TIP3   OH225700   0.618   3.780   2.416  0.5761 -0.0850  0.4356
 8579TIP3    H125701   0.619   3.863   2.464  2.1632  0.2840 -0.1607
 8579TIP3    H225702   0.643   3.714   2.480  0.9382  0.1484  0.5366
 8580TIP3   OH225703   4.930   5.102   4.566 -0.1798 -0.0619  0.2942
 8580TIP3    H125704   4.920   5.186   4.610 -1.3556  0.1532 -0.3359
 8580TIP3    H225705   4.890   5.115   4.480  0.8677 -0.8585 -0.3419
 8581TIP3   OH225706   1.597   3.130   4.434  0.2650  0.2631  0.3109
 8581TIP3    H125707   1.669   3.094   4.381  0.6935 -0.1465  1.1473
 8581TIP3    H225708   1.588   3.220   4.404  0.1651 -0.1125 -0.8020
 8582TIP3   OH225709   2.183   6.145   4.018 -0.2042 -0.3335  0.0691
 8582TIP3    H125710   2.148   6.209   4.080 -0.8902  0.6156 -1.2383
 8582TIP3    H225711   2.235   6.197   3.957  1.0843 -1.3508  0.2548
 8583TIP3   OH225712   7.146   2.403   0.242  0.2557 -0.1739  0.5758
 8583TIP3    H125713   7.053   2.381   0.239 -0.0689  1.2071 -1.6164
 8583TIP3    H225714   7.167   2.432   0.154  2.6072  0.2756  1.2115
 8584TIP3   OH225715   5.337   1.379   1.361  0.3568 -0.0333 -0.3061
 8584TIP3    H125716   5.258   1.346   1.403  1.0862 -2.0379 -0.3571
 8584TIP3    H225717   5.352   1.319   1.288  1.6723  0.5730 -0.5643
 8585TIP3   OH225718   6.040   3.705   3.055  0.3153 -0.2114  0.3517
 8585TIP3    H125719   6.098   3.681   3.127 -0.0285 -0.0243  0.6962
 8585TIP3    H225720   5.977   3.765   3.094  0.6389  0.5695 -0.3077
 8586TIP3   OH225721   5.070   5.730   1.218 -0.1975 -0.2605  0.1230
 8586TIP3    H125722   5.086   5.640   1.246  2.3557  0.1662  0.2360
 8586TIP3    H225723   5.042   5.721   1.126  2.1411 -1.0974 -0.5689
 8587TIP3   OH225724   3.772   1.611   1.164 -0.0283  1.1322  0.1369
 8587TIP3    H125725   3.697   1.615   1.223 -0.9425  0.3149 -0.9066
 8587TIP3    H225726   3.771   1.695   1.118  0.6103  1.7186  1.1505
 8588TIP3   OH225727   4.287   3.484   1.076 -0.5860 -0.0508  0.8001
 8588TIP3    H125728   4.279   3.476   1.172  3.6114 -0.3643  1.3165
 8588TIP3    H225729   4.381   3.483   1.060 -1.1273 -1.6324 -3.5386
 8589TIP3   OH225730   2.491   1.521   0.562  0.2561 -0.2513 -0.1911
 8589TIP3    H125731   2.568   1.556   0.607 -1.0435 -0.5653  2.4519
 8589TIP3    H225732   2.485   1.430   0.590 -0.4796 -0.5404 -1.2202
 8590TIP3   OH225733   5.028   0.081   0.495 -0.3640  0.0536 -0.8946
 8590TIP3    H125734   5.012   0.095   0.588  1.1338  0.3623 -0.6558
 8590TIP3    H225735   4.978   0.002   0.474 -2.0473  0.9025 -0.2454
 8591TIP3   OH225736   6.672   1.273   2.726 -0.7719  0.5635  0.4928
 8591TIP3    H125737   6.663   1.178   2.719  1.9046 -0.0013  2.8902
 8591TIP3    H225738   6.582   1.306   2.727 -1.8409 -2.1479  1.6904
 8592TIP3   OH225739   0.037   6.638   4.231  0.6994 -0.1070  0.3429
 8592TIP3    H125740   0.060   6.723   4.270  2.2308 -0.0262 -0.6402
 8592TIP3    H225741  -0.037   6.657   4.174 -0.4600  0.0967  1.8564
 8593TIP3   OH225742   0.865   2.440   1.348 -0.0125 -0.0209  0.4378
 8593TIP3    H125743   0.884   2.446   1.442  1.4082 -0.1069  0.1812
 8593TIP3    H225744   0.868   2.346   1.329 -2.1445 -0.1771  0.6276
 8594TIP3   OH225745   1.369   1.943   3.330  0.3824 -0.7052  0.5001
 8594TIP3    H125746   1.305   2.004   3.368  1.4587  1.6776 -1.2546
 8594TIP3    H225747   1.317   1.889   3.271 -0.2969  0.0575  0.3677
 8595TIP3   OH225748   5.591   0.730   3.321  0.3599 -0.5304  0.2666
 8595TIP3    H125749   5.646   0.808   3.310 -0.5233 -0.0854 -1.2610
 8595TIP3    H225750   5.651   0.662   3.351  1.7290  0.0006 -1.1258
 8596TIP3   OH225751   2.360   4.302   1.646 -0.6922 -0.0306  0.5014
 8596TIP3    H125752   2.289   4.251   1.608 -0.1443 -0.6944  0.3295
 8596TIP3    H225753   2.431   4.296   1.582  0.2139 -1.0875  1.5369
 8597TIP3   OH225754   1.103   0.163   1.197  0.0326 -0.3093  0.0672
 8597TIP3    H125755   1.162   0.205   1.134  0.2197 -1.0350 -0.2540
 8597TIP3    H225756   1.023   0.145   1.147  0.4218 -1.4855 -0.1636
 8598TIP3   OH225757   2.432   1.923   4.552 -0.0927  0.1547  0.7799
 8598TIP3    H125758   2.489   1.989   4.514 -0.4573  0.2899  0.4590
 8598TIP3    H225759   2.378   1.971   4.615 -0.1500  0.1068  0.7682
 8599TIP3   OH225760   0.724   1.261   2.658  0.2913  0.5150 -0.5309
 8599TIP3    H125761   0.740   1.234   2.749 -0.5399 -0.4557 -0.6647
 8599TIP3    H225762   0.645   1.316   2.664 -1.1184 -1.3532 -0.9121
 8600TIP3   OH225763   4.397   6.350   4.576 -0.5593  0.5108 -0.2542
 8600TIP3    H125764   4.470   6.289   4.565 -0.8021 -0.4366  2.5914
 8600TIP3    H225765   4.331   6.318   4.514  0.9726  0.7417 -2.1019
 8601TIP3   OH225766   6.776   0.936   0.306 -0.3078  0.3679 -0.5763
 8601TIP3    H125767   6.833   0.895   0.371 -0.7818 -0.9067 -0.9413
 8601TIP3    H225768   6.717   0.866   0.278 -2.7232  1.8577  0.4898
 8602TIP3   OH225769   1.583   2.833   4.539 -0.0153  0.5708  0.0089
 8602TIP3    H125770   1.639   2.779   4.484  0.9021  1.3512  0.1617
 8602TIP3    H225771   1.537   2.891   4.477 -0.8003 -0.1721 -0.1298
 8603TIP3   OH225772   4.256   4.646   1.736 -0.2003  0.4472 -0.3896
 8603TIP3    H125773   4.281   4.735   1.710 -0.8066  0.3897 -1.2111
 8603TIP3    H225774   4.269   4.594   1.657  0.6939 -0.3197  0.2459
 8604TIP3   OH225775   4.468   3.773   2.872 -0.3088 -0.2849  0.2289
 8604TIP3    H125776   4.423   3.689   2.859 -0.8520 -0.1377  1.0361
 8604TIP3    H225777   4.530   3.756   2.943  0.4028 -0.2947 -0.3889
 8605TIP3   OH225778   0.325   4.185   0.291 -0.5843 -0.0001  0.2517
 8605TIP3    H125779   0.262   4.190   0.219 -1.4740 -1.7286  0.8611
 8605TIP3    H225780   0.299   4.256   0.351 -0.5218  0.7334 -0.5674
 8606TIP3   OH225781   3.936   3.120   3.634 -0.2675 -0.7603  0.0253
 8606TIP3    H125782   3.879   3.191   3.604  1.6716  1.7152  1.7306
 8606TIP3    H225783   3.897   3.091   3.716  0.0564 -0.1306  0.4130
 8607TIP3   OH225784   1.335   5.466   0.947 -0.5074 -0.1173 -0.2897
 8607TIP3    H125785   1.251   5.429   0.920  0.4828 -1.3271 -1.9038
 8607TIP3    H225786   1.379   5.489   0.865  0.5985  0.8245  0.5366
 8608TIP3   OH225787   1.373   0.824   4.897  0.0405 -0.3222  0.6158
 8608TIP3    H125788   1.439   0.765   4.859 -0.0948 -0.2848  0.3180
 8608TIP3    H225789   1.292   0.801   4.852  0.1950  0.8360 -0.3142
 8609TIP3   OH225790   1.062   1.909   0.680 -0.0994 -0.4181  0.0006
 8609TIP3    H125791   1.157   1.897   0.686 -0.1160  0.0172  1.2908
 8609TIP3    H225792   1.050   2.003   0.683 -0.5981 -0.4824  0.0444
 8610TIP3   OH225793   3.008   6.552   0.224 -0.6336 -0.1750 -0.2068
 8610TIP3    H125794   2.921   6.512   0.223 -0.5208 -0.5125 -2.8243
 8610TIP3    H225795   3.068   6.479   0.210 -0.0951  0.3458 -0.6621
 8611TIP3   OH225796   4.150   4.143   3.690  0.0653  0.0974  0.1630
 8611TIP3    H125797   4.234   4.178   3.659 -1.9708  3.4023 -2.3246
 8611TIP3    H225798   4.173   4.089   3.766  4.5153 -0.3956 -1.2342
 8612TIP3   OH225799   6.351   4.269   2.643  0.1236  0.1570  0.0260
 8612TIP3    H125800   6.310   4.202   2.697  1.1882 -1.8150 -1.4576
 8612TIP3    H225801   6.321   4.249   2.554 -0.2682  2.2696 -0.3604
 8613TIP3   OH225802   1.930   0.181   2.001  0.3382  0.4490 -0.0148
 8613TIP3    H125803   1.963   0.234   1.929  1.6554 -0.4908 -0.1375
 8613TIP3    H225804   1.919   0.093   1.963 -0.1083  0.2221  0.6225
 8614TIP3   OH225805   4.885   6.428   2.284 -0.3064  0.1860 -0.0086
 8614TIP3    H125806   4.945   6.379   2.227 -0.3914  0.1806 -0.0930
 8614TIP3    H225807   4.931   6.434   2.367 -0.7738 -1.0469  0.3637
 8615TIP3   OH225808   1.993   5.642   3.487 -0.2290 -0.3823 -0.6852
 8615TIP3    H125809   1.950   5.693   3.556 -0.1043  0.8253 -1.4634
 8615TIP3    H225810   1.956   5.554   3.496  0.1377 -0.3894  1.2178
 8616TIP3   OH225811   0.271   5.822   4.458 -0.3066  0.8469  0.2696
 8616TIP3    H125812   0.235   5.799   4.372  0.3414  0.1010  0.1861
 8616TIP3    H225813   0.201   5.798   4.520 -0.2510  0.0708  0.0500
 8617TIP3   OH225814   3.237   0.628   2.458 -0.0192 -0.0877  0.3470
 8617TIP3    H125815   3.297   0.615   2.532 -1.1878  1.7046  1.7205
 8617TIP3    H225816   3.151   0.609   2.494 -0.5383 -0.0296 -0.8216
 8618TIP3   OH225817   5.717   5.304   4.029  0.1822 -0.3447  0.6447
 8618TIP3    H125818   5.796   5.314   3.974  1.3350 -1.9684  1.9120
 8618TIP3    H225819   5.648   5.280   3.968 -0.1031  3.6563 -0.9190
 8619TIP3   OH225820   7.094   6.408   2.654 -0.3614 -0.5328 -0.4362
 8619TIP3    H125821   7.157   6.473   2.622 -0.0899 -0.8907 -0.6427
 8619TIP3    H225822   7.054   6.373   2.574 -2.1884  0.9907 -0.2842
 8620TIP3   OH225823   1.167   2.924   1.435 -0.4376 -0.5869 -0.8129
 8620TIP3    H125824   1.199   3.000   1.484 -1.5005 -1.2669  1.0207
 8620TIP3    H225825   1.073   2.939   1.425 -0.4885 -1.1977 -1.3189
 8621TIP3   OH225826   0.320   1.132   5.877  0.4830  0.3603 -0.0331
 8621TIP3    H125827   0.354   1.203   5.932  0.4008 -1.3993  2.4171
 8621TIP3    H225828   0.396   1.102   5.828  1.2644  0.0695  1.3095
 8622TIP3   OH225829   2.142   2.181   2.330 -0.6640  0.1821  0.3008
 8622TIP3    H125830   2.114   2.271   2.344 -0.5405  0.2029  0.4167
 8622TIP3    H225831   2.231   2.188   2.296 -0.8473  0.1202 -0.1887
 8623TIP3   OH225832   3.518   5.369   4.362  0.5710  0.1027 -0.2074
 8623TIP3    H125833   3.492   5.453   4.401  3.5412  1.2061 -0.3888
 8623TIP3    H225834   3.475   5.303   4.417 -0.4989  1.6966  0.9514
 8624TIP3   OH225835   1.310   0.074   4.099  0.2986  0.0349 -0.6207
 8624TIP3    H125836   1.310   0.025   4.181  1.5867  1.7676  0.4937
 8624TIP3    H225837   1.246   0.143   4.112  0.9025  0.6519 -0.8497
 8625TIP3   OH225838   2.249   0.684   3.988  0.4968  0.5453 -0.4123
 8625TIP3    H125839   2.330   0.722   4.022  0.0127  2.7840 -1.5334
 8625TIP3    H225840   2.262   0.682   3.893 -0.6252  0.6362 -0.5809
 8626TIP3   OH225841   0.180   3.818   2.460  0.1593  0.5020  0.3366
 8626TIP3    H125842   0.196   3.893   2.404  0.2840  1.2002  1.2841
 8626TIP3    H225843   0.263   3.804   2.506  0.4220 -0.7758 -0.4658
 8627TIP3   OH225844   3.551   6.767   2.152  0.0663 -0.1089  0.2046
 8627TIP3    H125845   3.613   6.824   2.197  0.2068  0.7189 -0.9869
 8627TIP3    H225846   3.471   6.772   2.205  1.0049 -1.3053  1.8328
 8628TIP3   OH225847   4.364   2.438   1.619  0.5109 -0.1133 -0.4148
 8628TIP3    H125848   4.320   2.522   1.603  1.0617  0.1180 -0.7444
 8628TIP3    H225849   4.304   2.390   1.676  0.3696  0.6626  0.1000
 8629TIP3   OH225850   0.380   6.350   2.877  0.4658 -0.1898 -0.2503
 8629TIP3    H125851   0.472   6.325   2.878 -0.0024 -2.1054  1.1353
 8629TIP3    H225852   0.376   6.429   2.930  1.2079 -0.6717  0.5663
 8630TIP3   OH225853   3.131   0.529   3.804 -0.7489 -0.2184  0.9136
 8630TIP3    H125854   3.175   0.519   3.720  0.4673 -2.3344  1.7108
 8630TIP3    H225855   3.180   0.597   3.849  0.9170 -1.5269  1.2139
 8631TIP3   OH225856   1.053   5.384   0.728  0.1959 -0.0738  0.2663
 8631TIP3    H125857   1.094   5.308   0.687 -1.3336 -1.0353  0.4180
 8631TIP3    H225858   1.067   5.371   0.822 -0.9937 -0.7875  0.3719
 8632TIP3   OH225859   4.915   2.244   0.844  0.2188 -0.3099  0.3941
 8632TIP3    H125860   4.882   2.175   0.902 -1.7030  1.1064  1.0839
 8632TIP3    H225861   4.945   2.313   0.903  0.5963  0.1259 -0.2941
 8633TIP3   OH225862   6.498   5.308   4.491 -0.3562 -0.0706  0.1277
 8633TIP3    H125863   6.478   5.226   4.444 -1.0131  0.3288 -0.3137
 8633TIP3    H225864   6.414   5.332   4.532 -0.3416  0.7233 -0.2932
 8634TIP3   OH225865   3.497   4.719   4.499  0.0134  0.4820 -0.3895
 8634TIP3    H125866   3.431   4.752   4.560  0.3520 -1.5660  1.1756
 8634TIP3    H225867   3.447   4.664   4.438 -0.1783  1.6963 -1.3494
 8635TIP3   OH225868   5.943   3.511   0.303  0.1615  0.2944  0.3064
 8635TIP3    H125869   5.907   3.537   0.388  1.0107 -0.3733  0.8918
 8635TIP3    H225870   6.038   3.511   0.317  0.2824 -0.3912 -0.4794
 8636TIP3   OH225871   1.904   2.502   5.269 -0.7417  0.2954 -0.0939
 8636TIP3    H125872   1.948   2.457   5.342 -0.4498  1.7108  0.6326
 8636TIP3    H225873   1.975   2.531   5.212 -0.9002  0.2999 -0.2890
 8637TIP3   OH225874   2.474   0.823   2.808 -0.4685  0.7225 -0.2320
 8637TIP3    H125875   2.409   0.886   2.840  0.5226  2.1237 -0.8437
 8637TIP3    H225876   2.557   0.858   2.840  0.0954 -0.3608 -0.4980
 8638TIP3   OH225877   5.038   1.576   4.703  0.0737  0.3456  0.8650
 8638TIP3    H125878   4.968   1.519   4.672  0.0852  0.4424  0.6603
 8638TIP3    H225879   5.047   1.555   4.796  1.4086 -1.4067  0.3882
 8639TIP3   OH225880   0.945   3.533   0.722  0.2529 -0.3878 -0.0720
 8639TIP3    H125881   0.958   3.578   0.638  0.2062  0.5089  0.3982
 8639TIP3    H225882   0.859   3.564   0.752 -0.0543 -1.2598 -0.0275
 8640TIP3   OH225883   5.647   1.028   3.476  0.6504  0.4362 -0.1093
 8640TIP3    H125884   5.559   1.003   3.503  1.0693 -0.7960  0.1685
 8640TIP3    H225885   5.653   1.122   3.497  0.1332  0.0760  1.8858
 8641TIP3   OH225886   1.333   0.416   5.019 -0.3783 -0.3780 -0.0378
 8641TIP3    H125887   1.415   0.446   4.981  0.4458  1.9634  3.1789
 8641TIP3    H225888   1.266   0.471   4.979 -0.0003 -0.2980 -0.5624
 8642TIP3   OH225889   1.449   4.669   2.052 -0.0699 -0.4157  0.7160
 8642TIP3    H125890   1.366   4.626   2.033 -0.3457  0.7166 -0.8424
 8642TIP3    H225891   1.508   4.637   1.984  0.3677 -0.1065  0.9458
 8643TIP3   OH225892   2.710   6.714   3.153 -0.1630  0.2902 -0.6126
 8643TIP3    H125893   2.721   6.635   3.100 -0.2967  0.3706 -0.7617
 8643TIP3    H225894   2.779   6.773   3.122 -0.4077  0.4362 -0.8813
 8644TIP3   OH225895   3.758   5.047   3.389 -0.8351 -0.2317 -0.3885
 8644TIP3    H125896   3.679   5.026   3.340 -0.6568 -0.4822 -0.5679
 8644TIP3    H225897   3.741   5.134   3.425 -0.3302  0.7011 -2.2556
 8645TIP3   OH225898   3.867   6.575   5.776 -0.1575  0.1335  0.3360
 8645TIP3    H125899   3.874   6.642   5.844  0.7836 -0.1250  0.5098
 8645TIP3    H225900   3.916   6.501   5.810  1.3890  0.4209 -1.1255
 8646TIP3   OH225901   6.613   5.164   2.807  0.0874 -0.1659 -0.5804
 8646TIP3    H125902   6.537   5.131   2.854  0.6010 -0.0516  0.3468
 8646TIP3    H225903   6.639   5.092   2.749 -0.4877 -0.3394 -0.6237
 8647TIP3   OH225904   2.537   3.740   0.531  0.1371  0.2739 -0.3397
 8647TIP3    H125905   2.604   3.671   0.519 -0.3598 -0.2880  0.0621
 8647TIP3    H225906   2.475   3.724   0.460 -1.4639 -1.4729  1.3327
 8648TIP3   OH225907   1.249   5.329   5.427  0.0040  0.2256 -0.7520
 8648TIP3    H125908   1.200   5.313   5.346 -1.7279 -1.2554  0.5001
 8648TIP3    H225909   1.209   5.271   5.491  0.7989  1.8953  1.3924
 8649TIP3   OH225910   1.171   5.869   2.220 -0.1572 -0.5952 -0.4480
 8649TIP3    H125911   1.260   5.901   2.238 -1.2727  2.2020  0.6981
 8649TIP3    H225912   1.142   5.832   2.304 -0.5306 -0.2924 -0.4443
 8650TIP3   OH225913   0.980   6.671   3.627  0.6559 -0.6917 -0.0463
 8650TIP3    H125914   0.901   6.703   3.584  1.5860 -1.0079 -2.0888
 8650TIP3    H225915   0.962   6.579   3.646 -0.1645 -0.2822  1.3190
 8651TIP3   OH225916   6.284   0.504   2.418 -0.2932  0.2318  0.3294
 8651TIP3    H125917   6.323   0.590   2.432 -0.0588  0.1140  0.4075
 8651TIP3    H225918   6.318   0.450   2.489 -0.5560  0.1127  0.3662
 8652TIP3   OH225919   4.782   2.198   4.332 -0.0916 -0.1323 -0.5381
 8652TIP3    H125920   4.702   2.246   4.352  0.4439  0.5140  0.0993
 8652TIP3    H225921   4.850   2.240   4.384  0.3895 -1.6426  0.1316
 8653TIP3   OH225922   3.294   0.937   1.246 -0.1650  0.2063 -0.2939
 8653TIP3    H125923   3.350   1.014   1.247  1.1525 -0.7097  1.1669
 8653TIP3    H225924   3.310   0.897   1.161  3.4483 -1.3761  0.9422
 8654TIP3   OH225925   1.505   5.325   5.554 -0.6654  0.2965 -0.6788
 8654TIP3    H125926   1.505   5.390   5.624  1.0843 -0.1336 -0.2229
 8654TIP3    H225927   1.422   5.338   5.509 -1.9139  0.4791  1.5423
 8655TIP3   OH225928   1.247   1.525   4.784 -0.4599 -0.1960 -0.4245
 8655TIP3    H125929   1.235   1.591   4.715  0.6593  0.2733 -0.1886
 8655TIP3    H225930   1.197   1.559   4.858 -0.0730  0.2865 -0.3794
 8656TIP3   OH225931   1.428   2.528   1.558 -0.5629 -0.2507  0.1681
 8656TIP3    H125932   1.373   2.457   1.525 -1.4024  0.3263  0.3073
 8656TIP3    H225933   1.377   2.607   1.542 -1.0148  0.0756  2.8167
 8657TIP3   OH225934   4.705   5.559   1.726  0.9638  0.0788 -0.1062
 8657TIP3    H125935   4.614   5.589   1.733  0.9358  0.0507 -0.3617
 8657TIP3    H225936   4.746   5.623   1.668  1.5907  1.2217  1.5169
 8658TIP3   OH225937   4.856   4.151   5.162  0.3093  0.6388  0.3762
 8658TIP3    H125938   4.894   4.198   5.087  0.0003  2.3760  1.2469
 8658TIP3    H225939   4.780   4.105   5.126  1.0626  0.1604 -0.6597
 8659TIP3   OH225940   5.839   6.742   2.695 -0.3836  0.3594  0.2934
 8659TIP3    H125941   5.747   6.740   2.670 -0.8647 -0.6600  1.9494
 8659TIP3    H225942   5.838   6.768   2.787  1.0649  1.2616  0.0722
 8660TIP3   OH225943   4.263   4.130   1.015  0.2931 -0.4053 -0.0367
 8660TIP3    H125944   4.193   4.147   0.953 -0.1919  0.6374  0.7661
 8660TIP3    H225945   4.250   4.039   1.042 -0.5094 -0.3457 -0.1980
 8661TIP3   OH225946   1.539   5.704   2.081 -1.0733  0.6056 -0.3685
 8661TIP3    H125947   1.465   5.675   2.135  0.7044 -0.4010  1.6689
 8661TIP3    H225948   1.506   5.699   1.991 -2.6435 -2.6665  0.2135
 8662TIP3   OH225949   2.508   5.773   3.693 -0.6150 -0.3742  0.3202
 8662TIP3    H125950   2.580   5.793   3.753 -1.3425 -0.9267  1.4215
 8662TIP3    H225951   2.502   5.851   3.637  1.0367 -0.4644 -0.0360
 8663TIP3   OH225952   6.837   2.343   0.279 -0.7030  0.2743  0.8098
 8663TIP3    H125953   6.807   2.407   0.214  1.9572  1.0402  0.1895
 8663TIP3    H225954   6.787   2.363   0.358 -2.0669  1.1397 -0.2429
 8664TIP3   OH225955   3.934   1.135   1.590  0.0624  0.3519 -0.1458
 8664TIP3    H125956   3.997   1.109   1.523 -1.7317 -1.2453 -1.3099
 8664TIP3    H225957   3.982   1.123   1.673  1.0103 -1.8140 -0.9152
 8665TIP3   OH225958   3.175   0.617   1.828  0.2688  0.0130 -0.1916
 8665TIP3    H125959   3.092   0.569   1.841 -0.7443  0.9794 -2.5221
 8665TIP3    H225960   3.152   0.709   1.841  0.6222  0.4157 -2.1310
 8666TIP3   OH225961   1.731   3.203   2.356  0.1929  0.5099  0.3103
 8666TIP3    H125962   1.740   3.142   2.282 -1.8021  0.5800 -0.0434
 8666TIP3    H225963   1.821   3.216   2.387  0.7694 -2.1313  0.0231
 8667TIP3   OH225964   2.998   0.258   1.863 -0.8633 -0.6104  0.1191
 8667TIP3    H125965   2.955   0.343   1.855 -0.1317 -0.4219 -2.4205
 8667TIP3    H225966   2.989   0.236   1.956 -1.5774  1.9476  0.7394
 8668TIP3   OH225967   0.135   5.321   5.161  0.1047  0.0609  0.2801
 8668TIP3    H125968   0.177   5.407   5.163  0.5818 -0.1889  1.4925
 8668TIP3    H225969   0.091   5.314   5.246  1.1420 -1.4131  0.7282
 8669TIP3   OH225970   3.948   6.117   1.233  0.2892  0.3382 -0.7713
 8669TIP3    H125971   3.926   6.151   1.320  0.8706  0.3699 -0.6331
 8669TIP3    H225972   3.865   6.115   1.186  0.1636  1.5036 -0.6188
 8670TIP3   OH225973   0.742   6.346   0.482 -0.0523 -0.3007 -0.0012
 8670TIP3    H125974   0.828   6.339   0.523 -0.6855 -2.2474  1.1064
 8670TIP3    H225975   0.760   6.347   0.388  1.1970 -0.1665  0.2275
 8671TIP3   OH225976   2.963   3.806   0.456  0.3154 -1.1940  0.3647
 8671TIP3    H125977   3.024   3.869   0.494  0.0515  0.4085 -1.6875
 8671TIP3    H225978   2.876   3.841   0.477  0.1636 -0.1854 -1.7168
 8672TIP3   OH225979   3.994   0.251   0.798  0.8085  0.2791  0.7617
 8672TIP3    H125980   3.973   0.203   0.718  0.5814 -0.1662  1.0846
 8672TIP3    H225981   3.910   0.276   0.835  0.9060  3.8528 -1.0977
 8673TIP3   OH225982   6.595   3.762   1.607 -0.1727  0.3087  0.9821
 8673TIP3    H125983   6.601   3.717   1.691 -1.4045  0.3028  1.0847
 8673TIP3    H225984   6.537   3.706   1.555  0.5271  0.3420  0.1391
 8674TIP3   OH225985   3.842   0.171   4.127 -0.1556 -0.1564 -0.0243
 8674TIP3    H125986   3.757   0.217   4.131 -0.5293 -0.8910  0.9678
 8674TIP3    H225987   3.885   0.208   4.050 -1.7370 -0.3873 -1.0778
 8675TIP3   OH225988   6.101   0.238   2.742 -0.3391  0.5921 -0.8496
 8675TIP3    H125989   6.032   0.301   2.766  0.3470  1.7575 -1.7823
 8675TIP3    H225990   6.157   0.234   2.819 -1.8546 -1.0020  0.2343
 8676TIP3   OH225991   2.863   1.951   0.721 -0.0698  0.1142  0.0570
 8676TIP3    H125992   2.841   1.883   0.784  0.6166 -0.0503  0.1203
 8676TIP3    H225993   2.957   1.942   0.707  0.2172  1.6265  0.7609
 8677TIP3   OH225994   0.789   2.863   1.908 -0.0798  0.2270 -0.3062
 8677TIP3    H125995   0.742   2.782   1.889 -2.5810  1.7966 -1.2653
 8677TIP3    H225996   0.750   2.928   1.849  1.0494  2.3903  1.1808
 8678TIP3   OH225997   6.576   0.597   5.531  0.6957  0.3890  0.0116
 8678TIP3    H125998   6.485   0.569   5.521  1.1083 -1.2491  0.5128
 8678TIP3    H225999   6.617   0.578   5.446  0.8375  0.0108  0.1620
 8679TIP3   OH226000   2.134   2.153   5.644 -0.4789 -0.2329  0.2135
 8679TIP3    H126001   2.186   2.081   5.608 -1.3096 -1.1690  0.8314
 8679TIP3    H226002   2.067   2.110   5.698 -2.2139  0.8732 -0.9320
 8680TIP3   OH226003   3.949   5.940   0.768 -0.0184 -0.2866  0.1444
 8680TIP3    H126004   3.977   5.881   0.698 -0.1737  0.0612 -0.2180
 8680TIP3    H226005   3.894   6.004   0.723  1.6818  1.2806  0.1691
 8681TIP3   OH226006   6.220   1.551   3.250  0.4526 -0.2576 -0.0636
 8681TIP3    H126007   6.291   1.592   3.200  0.1143 -1.2684 -1.4490
 8681TIP3    H226008   6.202   1.612   3.321  1.2449  1.0529 -0.9496
 8682TIP3   OH226009   2.341   4.390   3.125 -0.5022 -0.1481  0.5890
 8682TIP3    H126010   2.258   4.394   3.173 -0.1945  0.9656  1.0462
 8682TIP3    H226011   2.400   4.447   3.173  0.4091 -0.5603 -0.0017
 8683TIP3   OH226012   5.572   5.234   4.985  0.1126  0.2441 -0.2004
 8683TIP3    H126013   5.618   5.151   4.999  0.1603  0.1107 -1.0936
 8683TIP3    H226014   5.505   5.213   4.921  1.3292  1.3001 -1.8816
 8684TIP3   OH226015   5.738   1.741   0.739 -0.9480 -0.2705  0.6142
 8684TIP3    H126016   5.675   1.669   0.752  0.6071 -1.5138  1.7737
 8684TIP3    H226017   5.724   1.798   0.815 -2.0137  0.5529 -0.1775
 8685TIP3   OH226018   4.407   1.018   0.416 -0.9260 -0.7283  0.8992
 8685TIP3    H126019   4.491   0.972   0.421 -0.5694 -0.1782  0.1533
 8685TIP3    H226020   4.423   1.090   0.355 -1.5773  0.1439  1.7124
 8686TIP3   OH226021   4.384   2.894   5.519  0.0987  0.7389  0.2876
 8686TIP3    H126022   4.437   2.939   5.584  0.0419  0.5586  0.4579
 8686TIP3    H226023   4.411   2.802   5.525 -0.5209  0.5752  0.6596
 8687TIP3   OH226024   1.573   5.506   4.095  0.1594  0.2385  0.3688
 8687TIP3    H126025   1.565   5.411   4.105 -0.2870  0.1097 -1.0290
 8687TIP3    H226026   1.663   5.525   4.121  0.4827 -0.6712 -0.0463
 8688TIP3   OH226027   4.612   1.512   3.393  0.2266 -0.1111  0.1133
 8688TIP3    H126028   4.583   1.603   3.398  2.9015  0.8787 -0.5337
 8688TIP3    H226029   4.648   1.504   3.305 -0.7234 -2.0963 -0.1462
 8689TIP3   OH226030   3.530   3.521   5.664  0.4949  0.4039 -0.3894
 8689TIP3    H126031   3.447   3.555   5.697 -0.0565 -0.1253 -1.1727
 8689TIP3    H226032   3.596   3.554   5.724 -0.0977  2.2261 -0.6886
 8690TIP3   OH226033   0.102   5.748   3.844 -0.0089 -0.0219  0.2985
 8690TIP3    H126034   0.016   5.726   3.881  0.1993  0.7395  1.3063
 8690TIP3    H226035   0.156   5.671   3.860 -0.0917  0.0710  1.0836
 8691TIP3   OH226036   3.465   0.845   2.964 -0.4788  0.3079 -0.3665
 8691TIP3    H126037   3.395   0.800   3.012  0.0042  1.4735  1.5597
 8691TIP3    H226038   3.546   0.811   3.003 -0.0600  1.1769 -0.4643
 8692TIP3   OH226039   2.934   2.732   3.381  0.2115 -0.1654  0.7033
 8692TIP3    H126040   2.902   2.690   3.302  0.6803  2.5120 -1.0329
 8692TIP3    H226041   2.867   2.797   3.403  1.4589  1.1478  0.7409
 8693TIP3   OH226042   6.644   4.829   1.099  0.3703 -0.9241  0.0648
 8693TIP3    H126043   6.714   4.894   1.090  0.5048 -1.1167 -0.3349
 8693TIP3    H226044   6.614   4.837   1.189  1.1672 -1.0959  0.3509
 8694TIP3   OH226045   4.649   3.842   3.115  0.0131 -1.2212 -0.0461
 8694TIP3    H126046   4.623   3.932   3.135 -0.1332 -1.1167 -0.6899
 8694TIP3    H226047   4.742   3.848   3.094 -0.2819 -0.9877 -1.4102
 8695TIP3   OH226048   4.782   6.183   3.318  0.1610 -1.0676  0.0677
 8695TIP3    H126049   4.743   6.260   3.276  2.7809  0.0319 -0.5405
 8695TIP3    H226050   4.707   6.130   3.345 -1.9433  2.6772  2.5128
 8696TIP3   OH226051   5.649   1.576   0.168 -0.1807  0.5194  0.0452
 8696TIP3    H126052   5.624   1.594   0.259 -2.2805 -0.0542 -0.3600
 8696TIP3    H226053   5.661   1.662   0.128  0.5141  0.7765  0.7704
 8697TIP3   OH226054   7.022   2.961   3.377 -0.0894  0.6578 -0.2184
 8697TIP3    H126055   7.035   3.044   3.424  2.0914  0.4124 -0.2726
 8697TIP3    H226056   7.041   2.982   3.285 -0.2983  0.2599 -0.3570
 8698TIP3   OH226057   6.462   4.435   5.714  0.0263 -0.2903  0.8518
 8698TIP3    H126058   6.463   4.435   5.809  1.2920 -0.2926  0.8486
 8698TIP3    H226059   6.541   4.388   5.688 -0.0551  0.1103 -0.2036
 8699TIP3   OH226060   3.435   2.929   5.845 -0.3330  0.5763  0.0891
 8699TIP3    H126061   3.472   2.965   5.925 -0.6626  1.1639 -0.0203
 8699TIP3    H226062   3.350   2.972   5.835 -0.2481  0.6015 -0.6346
 8700TIP3   OH226063   5.074   6.671   5.431  0.5667  0.0915 -0.1574
 8700TIP3    H126064   5.156   6.630   5.402  0.6663  0.2122 -0.0414
 8700TIP3    H226065   5.035   6.705   5.350  0.8913  0.5109 -0.1382
 8701TIP3   OH226066   1.021   3.844   2.831 -0.5704 -0.3431 -0.1591
 8701TIP3    H126067   1.018   3.939   2.835  1.7236 -0.1410 -1.4222
 8701TIP3    H226068   1.112   3.822   2.851 -0.7956 -2.1955 -0.9540
 8702TIP3   OH226069   1.337   5.152   1.512 -0.1523  0.0462 -0.8557
 8702TIP3    H126070   1.292   5.234   1.535  1.4481  0.6379  0.3709
 8702TIP3    H226071   1.307   5.133   1.423 -3.2007  0.0983  0.0291
 8703TIP3   OH226072   4.750   4.561   4.658 -0.2763 -0.1443 -0.3331
 8703TIP3    H126073   4.787   4.499   4.721 -3.6704 -2.7437 -0.6008
 8703TIP3    H226074   4.704   4.625   4.711 -1.5088 -1.2263 -0.0322
 8704TIP3   OH226075   1.222   1.340   5.307 -0.4272 -0.5694  0.3711
 8704TIP3    H126076   1.221   1.424   5.259 -0.8697 -0.9905 -0.3731
 8704TIP3    H226077   1.299   1.294   5.273  0.7115  0.1264  1.8683
 8705TIP3   OH226078   1.684   5.000   0.730  0.1802  0.2591  1.0530
 8705TIP3    H126079   1.636   4.981   0.810 -2.2167  1.1073 -0.0764
 8705TIP3    H226080   1.622   5.048   0.676  2.0835  0.7090 -0.8827
 8706TIP3   OH226081   4.610   3.729   5.485 -0.0750  0.3515 -0.0107
 8706TIP3    H126082   4.653   3.806   5.523 -0.4744  0.6623 -0.1846
 8706TIP3    H226083   4.544   3.704   5.550 -0.0704  0.2679 -0.0384
 8707TIP3   OH226084   5.235   1.312   2.814  0.2370  0.0828  0.0888
 8707TIP3    H126085   5.140   1.302   2.812  0.3449 -1.3008  0.7830
 8707TIP3    H226086   5.261   1.304   2.722 -0.4356  2.2744 -0.3564
 8708TIP3   OH226087   0.738   6.377   2.191  0.1985 -0.3249 -0.5734
 8708TIP3    H126088   0.751   6.349   2.101  0.4792  0.2229 -0.7051
 8708TIP3    H226089   0.775   6.465   2.195  1.3547 -0.8297  0.4002
 8709TIP3   OH226090   5.861   6.033   4.628  0.6782  0.0642 -0.0516
 8709TIP3    H126091   5.767   6.016   4.617  0.5600  1.1839 -1.0201
 8709TIP3    H226092   5.880   6.004   4.717 -0.7138  0.3353  0.3664
 8710TIP3   OH226093   4.782   0.487   3.064  0.5990 -0.0439  0.0351
 8710TIP3    H126094   4.856   0.521   3.115  0.9673 -0.8846  0.0673
 8710TIP3    H226095   4.810   0.495   2.973  0.3139  0.5889 -0.0012
 8711TIP3   OH226096   0.645   2.022   3.847 -0.1756 -0.2365 -0.0855
 8711TIP3    H126097   0.725   2.010   3.897 -0.6381 -0.9130  0.5138
 8711TIP3    H226098   0.636   2.117   3.838  1.8596 -0.1474 -2.1062
 8712TIP3   OH226099   5.136   1.245   1.511 -0.0895 -0.0545 -0.1575
 8712TIP3    H126100   5.158   1.163   1.555 -0.3663 -0.1310 -0.1568
 8712TIP3    H226101   5.060   1.279   1.560  0.2008  0.3472  0.0193
 8713TIP3   OH226102   5.750   3.264   1.751  0.4656 -0.5751  0.6509
 8713TIP3    H126103   5.718   3.336   1.805  0.1057 -1.7615  2.1046
 8713TIP3    H226104   5.696   3.267   1.672 -0.1247  0.2096  1.0680
 8714TIP3   OH226105   6.534   3.339   4.611 -0.1965 -0.2334 -0.6092
 8714TIP3    H126106   6.534   3.404   4.680  0.9905 -0.3266 -0.5088
 8714TIP3    H226107   6.580   3.380   4.538  0.1715 -0.7873 -0.6997
 8715TIP3   OH226108   6.989   4.021   3.714  0.4047 -0.2035 -0.1341
 8715TIP3    H126109   7.073   3.986   3.685  0.2581 -0.5958 -0.0873
 8715TIP3    H226110   6.943   3.946   3.752 -0.3961 -0.2564 -1.1314
 8716TIP3   OH226111   3.842   2.513   3.060 -0.8538  0.2590  0.7472
 8716TIP3    H126112   3.897   2.449   3.105 -0.1149  1.3297  1.3995
 8716TIP3    H226113   3.770   2.461   3.023  1.0977 -1.3376 -0.9970
 8717TIP3   OH226114   3.214   5.745   0.929 -0.0217  0.3392 -0.1649
 8717TIP3    H126115   3.156   5.669   0.934 -0.9058  0.9164 -1.2326
 8717TIP3    H226116   3.301   5.710   0.946 -0.5049 -0.7865  0.0690
 8718TIP3   OH226117   1.266   6.350   0.455 -0.3815  0.2979 -0.1607
 8718TIP3    H126118   1.262   6.358   0.550  0.9962  3.4477 -0.2456
 8718TIP3    H226119   1.179   6.318   0.430 -0.9331 -0.1139  2.1199
 8719TIP3   OH226120   3.124   3.957   2.189  0.1265  0.5287 -0.6876
 8719TIP3    H126121   3.117   4.033   2.247 -1.1008 -0.0024 -0.0920
 8719TIP3    H226122   3.103   3.991   2.103  0.6988  1.0840 -0.6109
 8720TIP3   OH226123   4.890   6.420   1.254 -0.3765  0.4439  0.5106
 8720TIP3    H126124   4.795   6.431   1.251 -0.3351  0.5422 -1.3459
 8720TIP3    H226125   4.924   6.484   1.192  0.8688 -0.0656  0.6314
 8721TIP3   OH226126   1.974   1.632   2.435 -0.7403  0.7097  0.2346
 8721TIP3    H126127   1.880   1.617   2.440 -0.4632 -3.0084 -2.0362
 8721TIP3    H226128   2.012   1.545   2.425  2.7380  2.2173 -1.3263
 8722TIP3   OH226129   3.573   3.615   2.367  0.1273  0.2327 -0.1389
 8722TIP3    H126130   3.545   3.539   2.418 -0.1620  0.7914  0.5567
 8722TIP3    H226131   3.517   3.615   2.290 -3.7002  2.6731  2.3056
 8723TIP3   OH226132   5.125   6.271   1.193 -0.4047  0.0167 -0.8874
 8723TIP3    H126133   5.069   6.337   1.234 -1.0237 -1.4710  0.7968
 8723TIP3    H226134   5.186   6.244   1.262  1.1356  0.2046 -2.1181
 8724TIP3   OH226135   5.487   2.849   5.435 -1.0949 -0.2644  0.4278
 8724TIP3    H126136   5.406   2.869   5.389  0.0736  0.9435 -1.2498
 8724TIP3    H226137   5.498   2.922   5.496 -1.2407 -0.4000  0.6168
 8725TIP3   OH226138   7.199   5.835   0.929 -0.4098 -0.2159 -0.1894
 8725TIP3    H126139   7.134   5.852   0.861  0.1538  0.4514 -0.5735
 8725TIP3    H226140   7.148   5.811   1.006 -1.0670 -0.7209 -0.7695
 8726TIP3   OH226141   5.708   0.607   4.798  0.5943 -0.2488 -0.2296
 8726TIP3    H126142   5.697   0.595   4.704  2.0840  0.6405 -0.5387
 8726TIP3    H226143   5.655   0.684   4.819  0.1879 -0.5025 -0.3087
 8727TIP3   OH226144   0.517   4.269   5.708 -0.1155 -0.4629 -0.4258
 8727TIP3    H126145   0.575   4.204   5.668  0.2964  0.6556 -1.7609
 8727TIP3    H226146   0.514   4.340   5.644  0.6369  1.4962  1.5908
 8728TIP3   OH226147   2.911   0.631   5.817  0.2808 -0.0251 -0.1437
 8728TIP3    H126148   2.990   0.639   5.764 -0.6531 -0.0843 -1.6037
 8728TIP3    H226149   2.841   0.615   5.753 -0.5154 -2.9498  1.2873
 8729TIP3   OH226150   0.608   4.386   4.553 -0.1838  0.2019  0.3765
 8729TIP3    H126151   0.660   4.335   4.615  2.6233  1.8587 -0.4396
 8729TIP3    H226152   0.556   4.445   4.608 -0.9633 -1.2008  1.2031
 8730TIP3   OH226153   4.239   3.518   1.366 -0.4258 -0.2052  0.2361
 8730TIP3    H126154   4.259   3.534   1.458  0.2792  0.4802 -0.0214
 8730TIP3    H226155   4.179   3.589   1.342  1.6330  1.3833 -0.5519
 8731TIP3   OH226156   2.795   0.132   0.800 -0.2832  0.2565  0.3658
 8731TIP3    H126157   2.815   0.225   0.812 -0.2238  0.0959  1.5916
 8731TIP3    H226158   2.881   0.090   0.800 -0.2671  0.2616 -0.8651
 8732TIP3   OH226159   0.752   0.525   0.194  0.0096  0.4108 -0.2790
 8732TIP3    H126160   0.692   0.599   0.202  0.1712  0.5527 -0.3739
 8732TIP3    H226161   0.777   0.525   0.101  0.8401  0.8887 -0.0617
 8733TIP3   OH226162   0.241   4.746   5.575 -0.1054  0.3889 -0.5185
 8733TIP3    H126163   0.219   4.653   5.581 -0.1901  0.4972  2.2173
 8733TIP3    H226164   0.330   4.748   5.541 -0.1282 -0.6770 -0.6738
 8734TIP3   OH226165   5.919   6.798   0.884 -0.3155  0.2854  0.1593
 8734TIP3    H126166   5.832   6.823   0.854 -0.5007 -0.5875 -0.0521
 8734TIP3    H226167   5.910   6.707   0.913  0.9553 -0.5117 -1.7287
 8735TIP3   OH226168   3.738   0.844   1.693  0.2834  0.3046 -0.1922
 8735TIP3    H126169   3.740   0.796   1.610  0.1717  1.8141 -1.1207
 8735TIP3    H226170   3.660   0.900   1.686  0.5635  0.8297  0.7184
 8736TIP3   OH226171   7.034   1.479   0.321  0.9713  0.1660  0.0650
 8736TIP3    H126172   7.038   1.451   0.230 -0.8452  1.1276 -0.3461
 8736TIP3    H226173   7.054   1.572   0.319 -1.7207  0.8342  0.2282
 8737TIP3   OH226174   7.062   2.615   1.126 -0.7265 -0.4475 -0.2042
 8737TIP3    H126175   7.001   2.688   1.118  0.5578  1.3120  3.7661
 8737TIP3    H226176   7.138   2.641   1.073 -1.3342 -0.2511 -1.0021
 8738TIP3   OH226177   6.386   6.370   4.223 -0.9942 -0.1720  0.0325
 8738TIP3    H126178   6.364   6.410   4.307 -1.3711  3.2949 -1.5454
 8738TIP3    H226179   6.481   6.359   4.226 -0.6140  2.4240  0.0550
 8739TIP3   OH226180   6.363   5.854   0.746  0.0041  0.3846  0.3619
 8739TIP3    H126181   6.394   5.773   0.706 -1.6484  0.4056 -1.0934
 8739TIP3    H226182   6.307   5.825   0.819 -1.7089  0.1061 -1.0013
 8740TIP3   OH226183   1.252   3.366   4.164  0.0758 -0.9207 -0.1501
 8740TIP3    H126184   1.319   3.357   4.095  0.3793 -0.8867  0.1366
 8740TIP3    H226185   1.190   3.429   4.129  0.2504 -0.8726 -0.3779
 8741TIP3   OH226186   3.357   0.409   1.680  0.1776 -0.3617 -0.2392
 8741TIP3    H126187   3.441   0.435   1.642  0.7592 -0.1046  1.1437
 8741TIP3    H226188   3.294   0.472   1.646  0.9677  0.8416  0.4448
 8742TIP3   OH226189   4.421   2.160   0.375 -0.3347 -0.0087 -0.7774
 8742TIP3    H126190   4.343   2.105   0.388 -2.0241  1.9830 -1.9324
 8742TIP3    H226191   4.477   2.109   0.317 -1.4652 -0.8690 -1.1563
 8743TIP3   OH226192   5.862   0.565   1.035 -0.3403 -0.5068 -0.7686
 8743TIP3    H126193   5.817   0.646   1.013  0.3220  0.0731 -0.0635
 8743TIP3    H226194   5.823   0.499   0.978 -0.0182  0.5463 -2.2692
 8744TIP3   OH226195   1.264   4.349   1.659 -0.0078 -0.2180 -0.0328
 8744TIP3    H126196   1.320   4.401   1.716 -0.1591 -0.8845  0.7320
 8744TIP3    H226197   1.179   4.393   1.663  0.4971  0.9779 -1.4409
 8745TIP3   OH226198   4.152   3.887   2.590 -0.1521 -0.2372 -0.6321
 8745TIP3    H126199   4.062   3.870   2.561 -0.5732  1.0502 -0.1705
 8745TIP3    H226200   4.203   3.813   2.557 -1.1052 -0.2190 -2.2307
 8746TIP3   OH226201   7.064   3.335   1.620 -0.4929  0.1585  0.4840
 8746TIP3    H126202   7.136   3.322   1.683 -0.9665 -0.8516  0.8422
 8746TIP3    H226203   6.985   3.326   1.673 -0.8942 -0.6794 -0.2396
 8747TIP3   OH226204   1.010   3.768   5.306  0.4288 -0.3107  0.5462
 8747TIP3    H126205   1.020   3.680   5.269  0.3305 -0.4690  0.8897
 8747TIP3    H226206   1.090   3.814   5.281 -0.1290 -0.0306 -0.8698
 8748TIP3   OH226207   7.094   0.275   0.122  0.5749 -0.1270 -0.5435
 8748TIP3    H126208   7.049   0.206   0.171 -1.6418  0.7341 -1.2325
 8748TIP3    H226209   7.174   0.292   0.172 -1.0741  0.0246  2.2679
 8749TIP3   OH226210   2.788   4.594   1.435  0.4162  0.2221 -0.1499
 8749TIP3    H126211   2.708   4.646   1.441  1.0311  1.1187  0.6799
 8749TIP3    H226212   2.825   4.616   1.349  0.7292  1.2819  0.2398
 8750TIP3   OH226213   4.621   2.122   0.782  0.5097 -0.7714  0.1617
 8750TIP3    H126214   4.588   2.061   0.716 -1.8590  0.6376 -0.0801
 8750TIP3    H226215   4.682   2.178   0.735  0.5691 -1.2067 -0.2865
 8751TIP3   OH226216   0.212   6.554   0.094  0.4889  0.1632  0.6337
 8751TIP3    H126217   0.280   6.555   0.160  2.0664 -2.6454 -0.7449
 8751TIP3    H226218   0.195   6.646   0.075  2.2155  0.9783  2.6686
 8752TIP3   OH226219   5.138   1.592   2.198  0.1270 -0.3028  0.3529
 8752TIP3    H126220   5.194   1.643   2.140 -1.8983 -0.3459 -1.7984
 8752TIP3    H226221   5.169   1.502   2.187 -0.3440 -0.3402 -0.9051
 8753TIP3   OH226222   0.199   4.724   1.288  0.0431 -0.1575  0.4806
 8753TIP3    H126223   0.105   4.710   1.279  0.3105 -0.8948 -1.9659
 8753TIP3    H226224   0.238   4.638   1.277  1.0790  0.3953 -0.3843
 8754TIP3   OH226225   5.956   3.797   5.320  0.7051  0.0573 -0.5563
 8754TIP3    H126226   6.019   3.750   5.376 -0.2020  0.0312  0.4736
 8754TIP3    H226227   5.880   3.739   5.315  0.7277  0.1094 -1.7580
 8755TIP3   OH226228   2.534   0.737   1.175 -0.1696  0.1194 -0.1494
 8755TIP3    H126229   2.453   0.759   1.221  0.5662  2.4425  0.1639
 8755TIP3    H226230   2.515   0.755   1.083 -0.4113 -0.7206 -0.2781
 8756TIP3   OH226231   5.104   1.991   0.477 -0.8070  0.5716  0.2551
 8756TIP3    H126232   5.082   2.039   0.556 -2.9934 -0.5849  0.4292
 8756TIP3    H226233   5.115   1.900   0.506  3.3287  0.7877 -0.0416
 8757TIP3   OH226234   4.600   1.525   4.295  0.1969 -0.0257 -0.4105
 8757TIP3    H126235   4.521   1.578   4.307  0.9451  1.2874 -1.0128
 8757TIP3    H226236   4.642   1.563   4.218  1.5003 -0.6077 -0.0060
 8758TIP3   OH226237   4.822   6.567   4.133 -0.1879  0.6922 -0.5849
 8758TIP3    H126238   4.734   6.596   4.159 -0.4045 -0.0621 -0.4687
 8758TIP3    H226239   4.807   6.508   4.059  0.0132 -1.2505  0.8337
 8759TIP3   OH226240   4.268   2.226   5.706 -0.0195 -0.1163  0.0253
 8759TIP3    H126241   4.227   2.158   5.652  1.8670 -0.4148 -1.1554
 8759TIP3    H226242   4.285   2.183   5.790 -1.5508 -0.1472  0.3400
 8760TIP3   OH226243   6.092   5.806   2.414 -0.2411  0.2057 -0.1470
 8760TIP3    H126244   6.058   5.777   2.499 -2.2298  0.4888 -0.7756
 8760TIP3    H226245   6.147   5.735   2.384  1.1692  0.4319  1.7130
 8761TIP3   OH226246   4.685   2.046   2.621  0.4460 -0.0122  0.4972
 8761TIP3    H126247   4.640   2.127   2.597 -1.1015 -1.2479 -0.9855
 8761TIP3    H226248   4.776   2.073   2.635 -0.2209  2.1427  1.1149
 8762TIP3   OH226249   1.953   2.475   1.846 -0.2849 -0.1130  0.3574
 8762TIP3    H126250   1.879   2.530   1.821  0.2363  1.9511  2.9193
 8762TIP3    H226251   2.025   2.504   1.790 -0.5579  0.2935  0.2131
 8763TIP3   OH226252   4.607   0.729   2.276  0.0866 -0.5044 -0.1560
 8763TIP3    H126253   4.566   0.783   2.208  0.0603 -0.5598 -0.1842
 8763TIP3    H226254   4.686   0.777   2.300 -0.0249 -0.3669 -0.0608
 8764TIP3   OH226255   3.379   1.376   1.870  0.0138  0.1434  0.0534
 8764TIP3    H126256   3.367   1.388   1.964 -0.2035 -0.5104  0.1162
 8764TIP3    H226257   3.450   1.312   1.863 -0.8865 -0.8627 -0.1894
 8765TIP3   OH226258   4.363   0.319   0.734  0.4131  0.0228  0.2251
 8765TIP3    H126259   4.457   0.313   0.715  0.1819 -1.8558 -0.5223
 8765TIP3    H226260   4.357   0.323   0.829  1.2132 -1.4107  0.3553
 8766TIP3   OH226261   2.501   4.085   1.194  0.1251 -0.2137  0.3333
 8766TIP3    H126262   2.454   4.165   1.170  2.3509  0.6573 -1.5472
 8766TIP3    H226263   2.544   4.107   1.277  1.0399  0.7578 -0.3599
 8767TIP3   OH226264   0.506   1.764   2.158  0.0311 -0.0192  0.3162
 8767TIP3    H126265   0.527   1.855   2.179  0.8784  0.3039 -1.6702
 8767TIP3    H226266   0.552   1.713   2.224  1.1776  0.9586  0.3181
 8768TIP3   OH226267   0.485   6.309   4.325  0.0455 -0.0931  0.0637
 8768TIP3    H126268   0.541   6.301   4.402 -2.0248  1.0452  1.7660
 8768TIP3    H226269   0.408   6.255   4.344 -1.3689  1.6955 -0.3285
 8769TIP3   OH226270   6.010   4.164   3.259 -0.2297  0.0368 -0.5562
 8769TIP3    H126271   6.029   4.243   3.309  0.6675  0.4712 -1.5392
 8769TIP3    H226272   5.964   4.195   3.181  0.4545 -0.3540 -1.1284
 8770TIP3   OH226273   3.673   3.879   0.151 -0.1229 -0.4391  0.0865
 8770TIP3    H126274   3.768   3.881   0.134 -0.4105  0.9410 -1.7750
 8770TIP3    H226275   3.647   3.971   0.145 -1.7599 -0.9194 -0.5822
 8771TIP3   OH226276   2.010   2.331   5.449  0.1458  0.1533 -0.4907
 8771TIP3    H126277   2.086   2.322   5.393 -0.7488 -1.0359 -1.5790
 8771TIP3    H226278   2.028   2.276   5.525 -0.3039 -1.5191 -1.5487
 8772TIP3   OH226279   1.587   5.910   1.525  0.3017  0.1872  0.0523
 8772TIP3    H126280   1.565   5.848   1.455 -1.1327  1.8289 -1.0189
 8772TIP3    H226281   1.528   5.886   1.597 -0.3652  0.3846 -0.4159
 8773TIP3   OH226282   5.363   4.275   4.885  0.0685 -0.1202 -0.1066
 8773TIP3    H126283   5.298   4.308   4.823 -0.5504 -2.6692 -0.9174
 8773TIP3    H226284   5.312   4.245   4.960  0.4809 -0.4290  0.0533
 8774TIP3   OH226285   0.207   2.987   2.029 -0.3246  0.0194  0.2603
 8774TIP3    H126286   0.143   3.046   2.070  0.0937  0.5586  0.1427
 8774TIP3    H226287   0.198   3.005   1.935  1.7122  1.9148  0.3546
 8775TIP3   OH226288   4.091   0.760   4.887 -0.0854 -0.3112  0.0834
 8775TIP3    H126289   4.096   0.729   4.978 -0.8623  1.5289  0.7984
 8775TIP3    H226290   4.132   0.846   4.889  2.6586 -1.4468 -1.9865
 8776TIP3   OH226291   1.378   0.609   2.343 -0.1796 -0.1845 -0.0824
 8776TIP3    H126292   1.434   0.543   2.383  1.1216 -0.1310 -1.6736
 8776TIP3    H226293   1.373   0.680   2.407  0.9786 -0.5249  0.4089
 8777TIP3   OH226294   2.303   3.319   2.037 -0.3940  0.9688  0.1500
 8777TIP3    H126295   2.219   3.273   2.037 -0.3812  0.9392  0.9095
 8777TIP3    H226296   2.284   3.402   1.994 -0.4509  0.3408 -1.1005
 8778TIP3   OH226297   4.317   5.026   4.244 -0.1053  0.4888  0.0588
 8778TIP3    H126298   4.287   4.935   4.252 -1.3225  0.7810 -0.8512
 8778TIP3    H226299   4.402   5.020   4.200  0.3894 -0.2662  1.0818
 8779TIP3   OH226300   0.700   6.637   3.586  0.3155  0.2819 -0.2847
 8779TIP3    H126301   0.697   6.660   3.679  2.9918  0.5122 -0.1790
 8779TIP3    H226302   0.719   6.720   3.542 -0.3868  0.0710 -1.0005
 8780TIP3   OH226303   3.735   6.329   0.936  0.3346  0.7830  0.0196
 8780TIP3    H126304   3.697   6.312   1.022 -0.4154  0.1717 -0.4152
 8780TIP3    H226305   3.739   6.425   0.930  0.8139  0.8275  0.9020
 8781TIP3   OH226306   5.504   1.590   2.609 -0.9075 -0.0924  0.1398
 8781TIP3    H126307   5.592   1.597   2.572 -0.6854 -0.9751  0.4865
 8781TIP3    H226308   5.453   1.654   2.559  0.2875  1.6878  1.0653
 8782TIP3   OH226309   2.500   0.223   3.266  0.2032 -0.2610  0.4403
 8782TIP3    H126310   2.450   0.257   3.192  0.4427  1.1841  0.9057
 8782TIP3    H226311   2.468   0.274   3.341  1.7781  0.1373  0.8770
 8783TIP3   OH226312   6.785   2.204   1.573 -0.5737 -0.2161 -0.2432
 8783TIP3    H126313   6.815   2.287   1.610 -1.8476  1.0543 -1.9017
 8783TIP3    H226314   6.840   2.138   1.615  0.8119  1.4883  0.7788
 8784TIP3   OH226315   4.049   1.886   4.870 -0.0582  0.4575  0.3633
 8784TIP3    H126316   4.086   1.941   4.801 -0.9249  0.0999 -0.4104
 8784TIP3    H226317   3.959   1.870   4.841 -0.5670  0.6403  1.7878
 8785TIP3   OH226318   5.526   2.620   3.670 -0.2791 -0.0979  0.4175
 8785TIP3    H126319   5.491   2.703   3.701 -0.3135  0.1734 -0.3463
 8785TIP3    H226320   5.525   2.627   3.575  0.8834 -0.4860  0.3598
 8786TIP3   OH226321   6.535   2.727   1.491  0.5847 -0.4696  0.4472
 8786TIP3    H126322   6.468   2.768   1.545  1.5629  1.1785  0.4614
 8786TIP3    H226323   6.513   2.754   1.401  1.9260  1.1900  0.5748
 8787TIP3   OH226324   6.777   3.552   4.097 -0.6051 -0.7252 -0.3633
 8787TIP3    H126325   6.867   3.530   4.117 -0.0688  0.8861 -0.8286
 8787TIP3    H226326   6.775   3.564   4.002 -0.7633  1.3540 -0.1392
 8788TIP3   OH226327   5.192   1.338   0.927  0.6882 -0.2322 -0.0208
 8788TIP3    H126328   5.226   1.249   0.920 -0.0129 -0.5338  0.3436
 8788TIP3    H226329   5.158   1.358   0.840  1.2093 -0.1681 -0.2107
 8789TIP3   OH226330   1.808   1.358   0.054  0.5385 -0.1281  0.5759
 8789TIP3    H126331   1.870   1.303   0.101  0.7210 -1.1650 -0.7905
 8789TIP3    H226332   1.803   1.319  -0.033 -2.4078 -0.3853  0.7659
 8790TIP3   OH226333   1.125   2.675   5.868 -0.1186 -0.2001 -0.8444
 8790TIP3    H126334   1.210   2.662   5.828 -0.5217 -1.4181 -1.3501
 8790TIP3    H226335   1.112   2.770   5.869  1.1281 -0.0228 -0.9715
 8791TIP3   OH226336   3.119   0.334   4.044 -0.2825  0.1085 -0.2933
 8791TIP3    H126337   3.131   0.245   4.077 -0.2148  0.2729  0.1334
 8791TIP3    H226338   3.143   0.329   3.952 -2.6636 -0.8680 -0.9323
 8792TIP3   OH226339   1.337   4.360   3.290  0.1970 -0.8450 -0.1378
 8792TIP3    H126340   1.360   4.373   3.382 -0.2435 -0.5785 -0.0620
 8792TIP3    H226341   1.311   4.268   3.285  0.0626 -0.8176  0.0391
 8793TIP3   OH226342   6.980   2.229   4.058  0.0094  0.0143  0.2701
 8793TIP3    H126343   6.976   2.313   4.104  2.9465  0.3581  0.1048
 8793TIP3    H226344   6.981   2.253   3.965 -2.9123 -0.5168 -0.0069
 8794TIP3   OH226345   1.231   3.017   0.033  0.5563  0.1096  0.4034
 8794TIP3    H126346   1.220   3.101   0.077  1.2853  0.2931  0.2413
 8794TIP3    H226347   1.325   3.002   0.032  0.4520 -0.5993  0.2173
 8795TIP3   OH226348   6.637   2.212   4.621 -0.1065 -0.2054 -0.2731
 8795TIP3    H126349   6.644   2.279   4.689 -1.8994 -0.6391  0.4058
 8795TIP3    H226350   6.655   2.258   4.539 -1.0218  1.0420  0.2066
 8796TIP3   OH226351   6.008   4.330   0.246 -0.0549 -0.5310 -0.2746
 8796TIP3    H126352   5.973   4.412   0.281 -0.2058 -0.1624 -1.2486
 8796TIP3    H226353   6.051   4.356   0.164  1.4777 -1.1533  0.2970
 8797TIP3   OH226354   5.048   4.631   4.750 -0.1544 -0.2650 -0.0936
 8797TIP3    H126355   4.982   4.684   4.705  1.3749  0.5646 -1.5001
 8797TIP3    H226356   5.077   4.685   4.823  0.2130  0.1300 -0.5285
 8798TIP3   OH226357   5.030   2.188   1.175  0.6753  0.6971 -0.1950
 8798TIP3    H126358   5.085   2.250   1.222 -0.3933 -0.0425  2.1591
 8798TIP3    H226359   5.067   2.102   1.197  1.5960  0.3660 -2.6914
 8799TIP3   OH226360   1.184   5.008   5.574  0.3036 -0.4492  0.0158
 8799TIP3    H126361   1.098   4.968   5.557  0.3446 -0.5575  0.0623
 8799TIP3    H226362   1.164   5.096   5.605  0.1505 -0.9868  1.5231
 8800TIP3   OH226363   0.009   0.222   4.548  0.4221 -0.2226  0.0321
 8800TIP3    H126364   0.032   0.134   4.519  0.5334 -0.6489  1.3680
 8800TIP3    H226365   0.046   0.229   4.636 -0.4698  0.7967  0.3463
 8801TIP3   OH226366   1.406   3.851   0.299  0.1813  0.1934  0.2488
 8801TIP3    H126367   1.320   3.885   0.274 -0.1786 -1.1312 -0.4799
 8801TIP3    H226368   1.469   3.909   0.256 -0.3490  1.1201  0.7107
 8802TIP3   OH226369   1.899   2.269   3.301 -0.0626 -0.1930 -0.7189
 8802TIP3    H126370   1.990   2.281   3.275 -0.3119  2.1266 -0.7054
 8802TIP3    H226371   1.870   2.355   3.330 -2.1542 -0.9611 -0.3033
 8803TIP3   OH226372   4.551   1.455   2.773  0.3125  0.1109 -0.2657
 8803TIP3    H126373   4.637   1.465   2.731  1.4244 -0.0934  1.8544
 8803TIP3    H226374   4.562   1.381   2.833 -1.0696  0.6584  0.7136
 8804TIP3   OH226375   5.939   5.515   3.269 -0.4810  0.2333  0.4536
 8804TIP3    H126376   5.887   5.454   3.216  1.4327  1.0064 -2.5072
 8804TIP3    H226377   5.994   5.459   3.324 -0.1846 -0.7024 -0.7633
 8805TIP3   OH226378   2.471   3.277   5.423  0.0876  0.1002 -0.2855
 8805TIP3    H126379   2.411   3.315   5.486 -0.1503 -1.4128  0.4547
 8805TIP3    H226380   2.428   3.289   5.338  0.2985  1.9211 -0.1733
 8806TIP3   OH226381   0.138   5.257   2.132 -0.2206  0.5767  0.1418
 8806TIP3    H126382   0.119   5.255   2.038 -0.7816 -0.2624  0.2660
 8806TIP3    H226383   0.053   5.245   2.174 -0.2155  2.5618  0.8012
 8807TIP3   OH226384   4.673   2.439   2.644 -0.1709  0.2514 -0.6359
 8807TIP3    H126385   4.579   2.417   2.648 -0.1490  0.1273 -0.7701
 8807TIP3    H226386   4.683   2.512   2.705 -0.0071 -0.9400  0.8289
 8808TIP3   OH226387   0.407   1.543   2.927 -0.1234 -0.3997  0.0000
 8808TIP3    H126388   0.355   1.502   2.996 -2.1366 -0.4488 -1.4489
 8808TIP3    H226389   0.384   1.636   2.930 -1.4081 -0.6198 -1.4805
 8809TIP3   OH226390   1.335   0.466   5.622 -0.4043  0.2925  0.5760
 8809TIP3    H126391   1.356   0.480   5.530  1.7869 -0.4734  0.9168
 8809TIP3    H226392   1.239   0.472   5.625 -0.4098  3.1608 -1.2429
 8810TIP3   OH226393   3.709   4.079   3.527  0.6321  0.2058 -0.3843
 8810TIP3    H126394   3.789   4.127   3.508 -0.3160  2.6824  1.3563
 8810TIP3    H226395   3.729   4.028   3.605  1.1888 -1.1343 -1.3669
 8811TIP3   OH226396   4.891   5.363   1.757 -0.3686  0.0435  0.5070
 8811TIP3    H126397   4.890   5.347   1.662  0.7777  0.7032  0.3707
 8811TIP3    H226398   4.833   5.439   1.768 -1.9233 -1.1032  0.5754
 8812TIP3   OH226399   6.134   6.201   5.278 -0.3267  0.5204  0.4095
 8812TIP3    H126400   6.153   6.236   5.365 -0.4576  0.0962  0.6104
 8812TIP3    H226401   6.112   6.109   5.293  2.8442 -0.5147 -0.3854
 8813TIP3   OH226402   6.369   3.162   0.154  0.7586  0.5197 -0.5727
 8813TIP3    H126403   6.404   3.171   0.065  1.8524  2.8098  0.0302
 8813TIP3    H226404   6.420   3.224   0.206 -1.6583  1.1990  1.1204
 8814TIP3   OH226405   6.567   6.107   5.020  0.3383 -0.1887 -0.1265
 8814TIP3    H126406   6.615   6.036   4.976  1.3817  0.4733 -0.1047
 8814TIP3    H226407   6.518   6.149   4.950  0.9448  0.0280 -0.4339
 8815TIP3   OH226408   0.069   1.071   5.780  0.3039 -0.1064  0.3802
 8815TIP3    H126409   0.158   1.091   5.810  0.7389 -0.6452 -0.5128
 8815TIP3    H226410   0.065   0.976   5.777  0.8590 -0.1531 -2.7552
 8816TIP3   OH226411   0.756   5.842   4.522 -0.4894  0.4466 -0.0933
 8816TIP3    H126412   0.816   5.787   4.573 -1.0191 -0.5060 -0.4716
 8816TIP3    H226413   0.671   5.798   4.529 -0.9995  1.4035 -0.1394
 8817TIP3   OH226414   1.922   1.375   4.334  0.2685 -0.0145  0.2221
 8817TIP3    H126415   1.947   1.466   4.324 -0.2591  0.3331  1.7015
 8817TIP3    H226416   1.834   1.369   4.296 -0.1220  0.3614  1.0270
 8818TIP3   OH226417   3.748   4.513   5.665  0.3035 -0.0885  0.0990
 8818TIP3    H126418   3.804   4.438   5.644  0.7949  0.0747  0.7958
 8818TIP3    H226419   3.807   4.578   5.701 -0.2834  0.2228  0.5246
 8819TIP3   OH226420   1.820   0.769   2.514  0.1051  0.9785  0.6456
 8819TIP3    H126421   1.872   0.690   2.501  0.3702  1.3972 -1.1557
 8819TIP3    H226422   1.787   0.762   2.603  0.0923 -1.1787  0.5277
 8820TIP3   OH226423   2.272   4.468   4.347  0.5807  0.3341 -0.2902
 8820TIP3    H126424   2.233   4.490   4.432 -0.5311  1.3294 -1.0239
 8820TIP3    H226425   2.311   4.550   4.317  0.6597  0.0760 -0.8953
 8821TIP3   OH226426   1.614   5.515   1.571 -0.5164 -0.1842  0.2939
 8821TIP3    H126427   1.536   5.551   1.615 -1.1898 -1.2780  0.0360
 8821TIP3    H226428   1.673   5.491   1.643 -0.9619 -0.5322  0.5506
 8822TIP3   OH226429   4.261   6.200   4.414  0.9656 -0.7346 -0.2168
 8822TIP3    H126430   4.262   6.205   4.319 -2.7389  0.0091 -0.3504
 8822TIP3    H226431   4.178   6.158   4.436  2.6236 -2.8623  2.7075
 8823TIP3   OH226432   5.119   6.512   2.432 -0.4872  0.5542 -0.4244
 8823TIP3    H126433   5.176   6.587   2.415  0.0086  0.4073  0.5284
 8823TIP3    H226434   5.093   6.522   2.523 -1.2825  0.1363 -0.5955
 8824TIP3   OH226435   0.567   1.093   5.745  0.5147 -0.0542  0.0361
 8824TIP3    H126436   0.537   1.134   5.664 -1.1961 -0.9356  0.1633
 8824TIP3    H226437   0.637   1.149   5.776  1.2830  0.2537 -2.0879
 8825TIP3   OH226438   4.926   6.741   0.310 -0.1398 -0.0061 -0.3981
 8825TIP3    H126439   4.877   6.824   0.309  1.4664  0.9961  0.7456
 8825TIP3    H226440   5.018   6.767   0.310  0.4045 -1.8113 -0.0325
 8826TIP3   OH226441   7.120   4.100   4.502 -0.1857  0.8494  0.3737
 8826TIP3    H126442   7.163   4.015   4.511  1.3376  1.4388 -0.8689
 8826TIP3    H226443   7.098   4.107   4.409  0.8680  2.3046  0.1991
 8827TIP3   OH226444   5.321   4.043   5.578 -0.0246  0.3137 -0.3475
 8827TIP3    H126445   5.390   4.088   5.529 -0.2054  0.4740 -0.4550
 8827TIP3    H226446   5.363   3.963   5.609 -0.1739 -0.2381 -1.5349
 8828TIP3   OH226447   5.673   5.286   2.493 -0.5615  0.2226 -0.1528
 8828TIP3    H126448   5.637   5.373   2.478  1.7670  1.3403  0.2429
 8828TIP3    H226449   5.668   5.273   2.588  0.7454  0.7605  0.0163
 8829TIP3   OH226450   6.483   5.316   0.029  0.0287  0.2816 -0.2238
 8829TIP3    H126451   6.496   5.385   0.094  1.8846 -0.3670  0.1454
 8829TIP3    H226452   6.513   5.236   0.072 -0.9484 -0.5822 -1.0698
 8830TIP3   OH226453   2.440   2.318   3.987  0.4914 -0.7715  0.5993
 8830TIP3    H126454   2.478   2.359   4.064 -0.4525 -0.2936  0.8245
 8830TIP3    H226455   2.381   2.251   4.021 -0.7191  0.1356  0.3460
 8831TIP3   OH226456   4.958   2.142   3.672 -1.0671  0.7782  0.4582
 8831TIP3    H126457   5.036   2.133   3.618 -0.8666  0.6274  0.7687
 8831TIP3    H226458   4.974   2.085   3.747 -0.5918  2.3021  1.5566
 8832TIP3   OH226459   5.243   3.266   0.683  0.2885  0.8037  0.2167
 8832TIP3    H126460   5.234   3.171   0.692 -1.1215  0.8043 -0.8900
 8832TIP3    H226461   5.324   3.277   0.633  0.1399  0.1548 -0.1880
 8833TIP3   OH226462   6.397   1.364   0.313  0.6042 -0.1621 -0.0230
 8833TIP3    H126463   6.421   1.275   0.286 -0.0200 -0.8053  1.4499
 8833TIP3    H226464   6.352   1.352   0.396 -0.7191  1.4300 -0.4710
 8834TIP3   OH226465   7.163   2.266   5.874  0.7451  0.5320  0.1633
 8834TIP3    H126466   7.257   2.251   5.865  1.0740  0.9368  2.3610
 8834TIP3    H226467   7.155   2.360   5.890 -0.1507  0.6776 -1.0136
 8835TIP3   OH226468   0.450   6.342   1.468  0.5357  0.2429 -0.5869
 8835TIP3    H126469   0.449   6.269   1.406  0.0329  0.8317 -1.2876
 8835TIP3    H226470   0.524   6.324   1.526 -0.4601 -1.5841  0.1875
 8836TIP3   OH226471   4.234   3.998   5.866 -0.0107 -0.3378 -0.1983
 8836TIP3    H126472   4.155   4.012   5.814 -0.2406  1.5534  0.5726
 8836TIP3    H226473   4.299   4.058   5.829  0.2811 -0.0698  0.6975
 8837TIP3   OH226474   5.557   6.377   1.374 -0.0414 -0.5534 -0.2556
 8837TIP3    H126475   5.477   6.401   1.421  0.1723  2.6408 -1.3193
 8837TIP3    H226476   5.525   6.332   1.295 -0.7298 -0.1861 -0.1920
 8838TIP3   OH226477   3.656   6.058   1.328  0.7527  0.4871 -0.1265
 8838TIP3    H126478   3.657   5.988   1.264  2.0629  0.6174 -0.2751
 8838TIP3    H226479   3.650   6.138   1.276 -1.8828  0.5284  0.0679
 8839TIP3   OH226480   4.382   6.621   5.542  0.1521 -0.2475 -0.2074
 8839TIP3    H126481   4.426   6.652   5.463  0.4609 -0.3003 -0.0587
 8839TIP3    H226482   4.405   6.685   5.610 -2.1580  1.2478 -0.6959
 8840TIP3   OH226483   5.884   2.884   2.048 -0.3875  0.2498  0.1046
 8840TIP3    H126484   5.971   2.866   2.011 -0.6658  1.8496 -1.4588
 8840TIP3    H226485   5.893   2.863   2.141  1.0341 -1.6765 -0.4190
 8841TIP3   OH226486   6.614   3.260   5.654 -0.4154 -0.0202  0.2301
 8841TIP3    H126487   6.519   3.251   5.665 -0.5397  0.1476 -0.6066
 8841TIP3    H226488   6.650   3.180   5.691 -0.7484  0.6260  2.0529
 8842TIP3   OH226489   0.052   5.188   3.477  0.9853 -0.3490  0.0825
 8842TIP3    H126490   0.023   5.277   3.495  1.1314 -0.1095 -0.7943
 8842TIP3    H226491  -0.026   5.134   3.489  1.1050 -0.2434  1.5211
 8843TIP3   OH226492   1.506   4.791   4.365 -0.4547  0.3821  0.4978
 8843TIP3    H126493   1.427   4.740   4.349 -0.5168  0.8378 -0.7357
 8843TIP3    H226494   1.476   4.882   4.366 -0.0052  0.5340  0.3872
 8844TIP3   OH226495   6.802   4.155   1.868 -0.1637  0.1206  0.4597
 8844TIP3    H126496   6.850   4.237   1.874 -0.1524  0.2309 -0.7663
 8844TIP3    H226497   6.849   4.104   1.801 -0.5391 -0.6176  0.7385
 8845TIP3   OH226498   2.141   6.148   0.583 -0.2184  0.2039  0.3783
 8845TIP3    H126499   2.173   6.104   0.662  0.8601  2.0076  1.0169
 8845TIP3    H226500   2.192   6.109   0.511 -1.3338 -1.5759  0.5135
 8846TIP3   OH226501   3.192   5.091   3.456  0.2404  0.0292  0.3219
 8846TIP3    H126502   3.199   5.082   3.361  1.6657  2.2493  0.1661
 8846TIP3    H226503   3.117   5.149   3.470  0.1587 -0.1280  0.5462
 8847TIP3   OH226504   2.440   4.660   0.656  0.2325 -0.8324  0.1050
 8847TIP3    H126505   2.476   4.613   0.581 -0.2485  0.4392 -0.9742
 8847TIP3    H226506   2.473   4.749   0.647  0.2429 -0.6755  1.4778
 8848TIP3   OH226507   4.353   1.662   2.665 -0.2621  0.8434  0.3995
 8848TIP3    H126508   4.334   1.640   2.574 -0.8119  1.8858  0.2425
 8848TIP3    H226509   4.412   1.593   2.695  0.2629  0.7201 -0.8677
 8849TIP3   OH226510   1.563   5.964   2.172 -0.0840 -0.0088  0.0827
 8849TIP3    H126511   1.557   5.966   2.268 -0.2247  0.0452  0.0723
 8849TIP3    H226512   1.580   5.872   2.151  1.8496  0.2578  0.2727
 8850TIP3   OH226513   7.191   0.765   3.538 -0.3211 -0.1103 -0.7164
 8850TIP3    H126514   7.236   0.686   3.568 -0.6159 -1.1434 -2.8067
 8850TIP3    H226515   7.100   0.752   3.564  0.1828  1.3090  2.1993
 8851TIP3   OH226516   6.022   1.793   3.772  0.5026 -0.1550  0.2245
 8851TIP3    H126517   5.949   1.796   3.711  0.0002  1.9507  0.8607
 8851TIP3    H226518   6.004   1.717   3.827 -1.0040  0.0946  0.1209
 8852TIP3   OH226519   4.173   0.929   5.396 -0.0090 -0.2246 -0.1072
 8852TIP3    H126520   4.145   0.844   5.361 -1.3946 -0.1039  0.6623
 8852TIP3    H226521   4.269   0.926   5.392 -0.0672 -1.2756 -1.3628
 8853TIP3   OH226522   4.080   1.076   4.015 -0.0323 -0.3893  0.1303
 8853TIP3    H126523   4.141   1.126   4.069  0.6971 -1.0355 -0.0691
 8853TIP3    H226524   4.099   0.984   4.036 -1.4868 -0.6066  0.6565
 8854TIP3   OH226525   3.367   2.816   3.677 -0.3869  0.0681  0.2972
 8854TIP3    H126526   3.339   2.749   3.739 -3.0640  0.4404 -0.3819
 8854TIP3    H226527   3.298   2.818   3.610  2.1963 -0.1398 -2.6270
 8855TIP3   OH226528   4.333   6.531   5.910  0.2336  0.6581  0.2868
 8855TIP3    H126529   4.423   6.547   5.883  0.3106  1.3175  0.9328
 8855TIP3    H226530   4.280   6.581   5.847  0.4106  2.0923  1.2372
 8856TIP3   OH226531   4.438   4.470   5.152  0.4378  0.0665  0.1025
 8856TIP3    H126532   4.486   4.537   5.103  0.2672 -0.3604 -0.6667
 8856TIP3    H226533   4.350   4.472   5.115  0.9658 -2.0336 -1.4652
 8857TIP3   OH226534   6.776   3.053   1.948  0.0402 -0.4238  0.0565
 8857TIP3    H126535   6.703   3.014   1.900 -0.6275  0.0347  0.6869
 8857TIP3    H226536   6.747   3.055   2.039  0.1770  1.2283  0.0973
 8858TIP3   OH226537   2.059   3.392   4.908 -0.4839  0.1287  0.3773
 8858TIP3    H126538   1.981   3.432   4.870 -0.8641  0.1651  1.1617
 8858TIP3    H226539   2.034   3.300   4.923 -0.7491  0.3721  1.5650
 8859TIP3   OH226540   0.563   4.449   1.368 -0.4041  0.2691 -0.0191
 8859TIP3    H126541   0.494   4.485   1.424  1.5021  0.3225  2.4559
 8859TIP3    H226542   0.645   4.480   1.407  1.1817  2.9916 -4.6130
 8860TIP3   OH226543   5.050   6.034   1.516 -0.1782  0.2084 -0.0017
 8860TIP3    H126544   4.979   6.049   1.453  0.0813  2.3482  0.1199
 8860TIP3    H226545   5.117   5.988   1.466 -0.7649  0.1248 -0.7399
 8861TIP3   OH226546   4.170   4.461   5.094  0.1802 -0.1202 -0.5172
 8861TIP3    H126547   4.145   4.527   5.158  0.6769  0.4829 -0.9400
 8861TIP3    H226548   4.114   4.386   5.114  0.6329 -0.1103  0.9078
 8862TIP3   OH226549   1.341   5.118   5.165  0.0672 -0.2301  0.3240
 8862TIP3    H126550   1.317   5.208   5.187  0.7400  0.1243 -0.3445
 8862TIP3    H226551   1.436   5.115   5.178  0.0255 -0.8831  0.4794
 8863TIP3   OH226552   1.495   3.728   2.573  0.2499  0.4028 -0.4148
 8863TIP3    H126553   1.480   3.788   2.646  0.5150 -2.1771  1.9161
 8863TIP3    H226554   1.583   3.749   2.543 -0.2303  2.1626 -0.7192
 8864TIP3   OH226555   4.375   3.313   4.901  0.4174  0.3413 -0.5126
 8864TIP3    H126556   4.291   3.360   4.904 -0.1148 -0.6503  0.9887
 8864TIP3    H226557   4.402   3.319   4.809 -1.5998  0.1889 -1.1703
 8865TIP3   OH226558   1.336   1.889   0.673  0.0531 -0.2634  0.4573
 8865TIP3    H126559   1.428   1.913   0.684  0.6172 -2.0541 -0.1107
 8865TIP3    H226560   1.329   1.859   0.582 -1.0599 -0.2841  0.5354
 8866TIP3   OH226561   4.980   6.638   3.509 -0.3752  0.1114  0.2963
 8866TIP3    H126562   5.028   6.661   3.588 -0.7253  0.3657  0.4343
 8866TIP3    H226563   5.010   6.702   3.444  0.3492 -0.4559  0.0568
 8867TIP3   OH226564   2.697   5.410   1.805  0.2102 -0.2012 -0.1395
 8867TIP3    H126565   2.695   5.324   1.847  0.9392 -0.9252 -1.5138
 8867TIP3    H226566   2.789   5.424   1.783  0.0393  0.7620 -0.3070
 8868TIP3   OH226567   0.785   5.448   5.631 -0.7069 -0.2157 -0.0854
 8868TIP3    H126568   0.705   5.397   5.642 -1.3676  0.9383  0.7366
 8868TIP3    H226569   0.832   5.405   5.559 -0.7447 -2.5152  1.1948
 8869TIP3   OH226570   6.264   1.066   3.446 -0.6553  0.2110  0.3693
 8869TIP3    H126571   6.294   1.152   3.417 -0.3460  0.0770  0.2911
 8869TIP3    H226572   6.189   1.046   3.389  0.1302 -0.1829 -0.5431
 8870TIP3   OH226573   1.051   3.832   3.751 -0.3433  0.0020 -0.1834
 8870TIP3    H126574   1.070   3.871   3.836 -1.0141  0.5618 -0.2857
 8870TIP3    H226575   0.972   3.877   3.721  0.4323  0.4974 -1.5481
 8871TIP3   OH226576   2.687   0.381   3.477  0.2262 -0.4654  0.4439
 8871TIP3    H126577   2.763   0.419   3.521  0.4474  0.2744 -0.5176
 8871TIP3    H226578   2.614   0.437   3.502  0.2587 -0.3448  0.2704
 8872TIP3   OH226579   6.445   0.156   4.473  0.0115  0.9386 -0.3553
 8872TIP3    H126580   6.495   0.087   4.429  1.4528  2.2647 -0.8948
 8872TIP3    H226581   6.495   0.173   4.553 -1.1395  0.3859  0.5061
 8873TIP3   OH226582   2.256   6.003   0.779  0.1928  0.4648  0.5429
 8873TIP3    H126583   2.275   5.923   0.731 -1.7325 -0.5376  1.3289
 8873TIP3    H226584   2.332   6.059   0.765  1.2980 -1.2438 -0.5609
 8874TIP3   OH226585   0.022   3.542   1.812  0.6107  0.4432  0.3618
 8874TIP3    H126586  -0.072   3.553   1.826  0.7459  1.1073  0.7568
 8874TIP3    H226587   0.051   3.625   1.776  0.5591 -0.6521 -2.5221
 8875TIP3   OH226588   0.052   4.567   2.916 -0.1385 -0.3563 -0.2592
 8875TIP3    H126589   0.057   4.661   2.930 -0.8568 -0.2853 -0.4271
 8875TIP3    H226590  -0.037   4.552   2.883  0.2250 -1.0006 -0.9776
 8876TIP3   OH226591   3.017   1.255   0.785 -0.3793  0.8042 -0.9383
 8876TIP3    H126592   3.038   1.346   0.805 -1.0631  0.9362 -0.7996
 8876TIP3    H226593   2.941   1.235   0.840  1.2913 -0.6626  0.9813
 8877TIP3   OH226594   0.158   4.474   4.796  0.8988 -0.2403  0.1326
 8877TIP3    H126595   0.195   4.407   4.738  0.3995  0.5485 -1.1386
 8877TIP3    H226596   0.065   4.450   4.804  0.5251  0.7006 -0.9913
 8878TIP3   OH226597   6.636   3.274   1.212 -0.3229  0.1953 -0.4737
 8878TIP3    H126598   6.553   3.311   1.242  0.1640  0.9951 -0.0807
 8878TIP3    H226599   6.671   3.339   1.151  0.1629  0.0157 -0.3934
 8879TIP3   OH226600   3.758   6.498   1.493  0.3853 -0.2281  0.0735
 8879TIP3    H126601   3.796   6.532   1.574 -0.2652 -0.1130  0.3346
 8879TIP3    H226602   3.679   6.453   1.521  0.3400 -0.4850 -0.4640
 8880TIP3   OH226603   5.774   1.898   1.397 -0.3702  0.3350  0.1575
 8880TIP3    H126604   5.735   1.922   1.312  0.7962 -1.1392 -0.8507
 8880TIP3    H226605   5.865   1.926   1.391  0.5345 -2.3742 -0.3256
 8881TIP3   OH226606   5.127   1.389   5.442 -0.2012  0.3328 -0.0967
 8881TIP3    H126607   5.120   1.484   5.456 -0.9140  0.0477  1.7414
 8881TIP3    H226608   5.115   1.351   5.529  0.0297 -1.4599 -0.8105
 8882TIP3   OH226609   5.689   0.050   1.987 -0.2489  0.4221  0.1696
 8882TIP3    H126610   5.729   0.034   2.073 -1.4666  0.1924  0.7062
 8882TIP3    H226611   5.697  -0.033   1.940  0.8345  0.6797 -0.1293
 8883TIP3   OH226612   1.837   4.480   4.252 -0.4159 -0.0943 -0.6537
 8883TIP3    H126613   1.768   4.413   4.253 -0.8783  0.3446  0.9395
 8883TIP3    H226614   1.789   4.563   4.256  0.1869  0.2893 -1.2497
 8884TIP3   OH226615   6.258   2.617   0.610 -0.1054  0.3355  0.6187
 8884TIP3    H126616   6.279   2.524   0.622  1.6529  0.6132  0.0533
 8884TIP3    H226617   6.282   2.635   0.519 -2.2699  0.9216  0.1133
 8885TIP3   OH226618   6.147   3.022   1.305  0.1929  0.5695 -0.5557
 8885TIP3    H126619   6.075   3.052   1.249  0.4730 -0.9833 -1.8274
 8885TIP3    H226620   6.194   2.959   1.251 -0.3884 -2.1810  1.8922
 8886TIP3   OH226621   3.641   3.736   1.492  0.3303 -0.4258 -0.7214
 8886TIP3    H126622   3.637   3.690   1.408 -0.2443  0.2317 -1.0617
 8886TIP3    H226623   3.724   3.785   1.490  0.6660 -0.9811 -0.5951
 8887TIP3   OH226624   5.742   1.303   1.358  0.2124  0.3973 -0.4130
 8887TIP3    H126625   5.805   1.372   1.378  0.4563  0.3903 -1.1363
 8887TIP3    H226626   5.663   1.329   1.405  0.7050  0.4654  0.4037
 8888TIP3   OH226627   4.511   3.935   2.655 -0.1975 -0.7942 -0.4417
 8888TIP3    H126628   4.530   3.860   2.711  1.3737 -0.2589 -0.2159
 8888TIP3    H226629   4.574   4.002   2.682 -0.6102  0.1088 -1.6276
 8889TIP3   OH226630   4.300   1.243   2.328  0.1984 -0.5177  0.1605
 8889TIP3    H126631   4.300   1.150   2.350  0.0264 -0.3925  0.7018
 8889TIP3    H226632   4.391   1.270   2.340  0.3667 -0.7297 -0.5334
 8890TIP3   OH226633   3.860   0.778   3.726  0.8687 -0.1175  0.3010
 8890TIP3    H126634   3.816   0.747   3.805 -0.1279 -0.9557 -0.5347
 8890TIP3    H226635   3.789   0.810   3.670  1.1775 -2.0453 -1.3376
 8891TIP3   OH226636   3.022   6.694   3.707 -0.1749 -0.0472 -0.6577
 8891TIP3    H126637   3.017   6.778   3.753  1.5486  0.4472 -1.3256
 8891TIP3    H226638   2.962   6.637   3.756 -1.6319  1.6325 -0.3842
 8892TIP3   OH226639   5.146   4.810   4.958 -0.3260  0.3592  0.3650
 8892TIP3    H126640   5.113   4.811   5.048 -3.4676  0.9061 -0.6839
 8892TIP3    H226641   5.140   4.901   4.929 -1.3808 -0.1218 -1.0238
 8893TIP3   OH226642   4.526   0.840   3.628 -0.2707 -0.5168 -0.4309
 8893TIP3    H126643   4.479   0.894   3.564 -0.7918 -1.1457 -0.5827
 8893TIP3    H226644   4.618   0.845   3.600  0.1264  2.3364  1.0103
 8894TIP3   OH226645   3.752  -0.014   2.363  0.1440 -0.0695 -0.3946
 8894TIP3    H126646   3.759   0.063   2.307 -1.3331  0.7043  0.3988
 8894TIP3    H226647   3.836  -0.020   2.407  0.4322  0.8443 -0.7951
 8895TIP3   OH226648   3.953   4.253   1.353 -0.3103 -0.0431  0.6323
 8895TIP3    H126649   3.938   4.207   1.270  1.3898  0.0277  0.2289
 8895TIP3    H226650   4.041   4.290   1.343 -0.3718  0.5854  2.2013
 8896TIP3   OH226651   5.093   0.945   0.358  0.2475  0.1287 -0.1263
 8896TIP3    H126652   5.138   0.965   0.440  0.8296  0.1386 -0.4492
 8896TIP3    H226653   5.060   0.856   0.369  1.1029 -0.2078 -0.2236
 8897TIP3   OH226654   6.549   2.895   3.146 -0.1977 -0.3829 -0.1741
 8897TIP3    H126655   6.495   2.970   3.123  0.7093  0.7216  1.1639
 8897TIP3    H226656   6.639   2.926   3.137  0.1919 -1.1790  0.7801
 8898TIP3   OH226657   1.843   0.213   3.108 -0.3146 -0.2540 -0.0257
 8898TIP3    H126658   1.864   0.175   3.193  2.1470 -0.0812 -0.4899
 8898TIP3    H226659   1.895   0.163   3.045  0.6480  1.8309 -0.9917
 8899TIP3   OH226660   3.306   5.553   2.711 -0.0623 -0.0334  0.5241
 8899TIP3    H126661   3.321   5.644   2.686  0.0633 -0.3126 -0.4342
 8899TIP3    H226662   3.337   5.502   2.637 -1.5557 -0.8079  0.4014
 8900TIP3   OH226663   1.102   6.267   1.009  0.1834 -0.1646 -0.3199
 8900TIP3    H126664   1.026   6.226   0.968 -0.9050  0.2557  1.1750
 8900TIP3    H226665   1.155   6.195   1.041 -0.7567 -0.4587  0.6219
 8901TIP3   OH226666   1.658   5.117   3.857 -0.0648  0.3347 -0.5455
 8901TIP3    H126667   1.628   5.073   3.778  0.6178 -0.2465 -0.4849
 8901TIP3    H226668   1.663   5.048   3.923 -2.5325  1.0973  0.5942
 8902TIP3   OH226669   2.591   3.940   3.144  0.0663  0.2731 -0.2595
 8902TIP3    H126670   2.582   3.850   3.177  1.1073  1.3672  3.4876
 8902TIP3    H226671   2.685   3.950   3.129 -0.0384  0.7805 -0.5738
 8903TIP3   OH226672   2.114   0.833   2.368  0.3077 -0.5797 -0.0076
 8903TIP3    H126673   2.181   0.854   2.304 -0.6962 -3.6054 -2.2995
 8903TIP3    H226674   2.163   0.817   2.449  1.8481  1.2560 -0.5180
 8904TIP3   OH226675   5.750   3.613   3.379  0.1910 -0.0847  0.4049
 8904TIP3    H126676   5.827   3.565   3.410 -0.3043 -0.4127  1.1643
 8904TIP3    H226677   5.750   3.694   3.429 -1.4500 -1.2578  2.5228
 8905TIP3   OH226678   2.915   1.579   1.130 -0.6296 -0.0165  0.5762
 8905TIP3    H126679   2.917   1.486   1.111  0.5596  0.1405 -0.2412
 8905TIP3    H226680   2.998   1.596   1.174 -0.9041  0.6273  0.8595
 8906TIP3   OH226681   4.613   4.310   4.996 -1.1603 -0.7963 -0.2820
 8906TIP3    H126682   4.619   4.224   5.039 -1.8958 -0.4062  0.6560
 8906TIP3    H226683   4.560   4.362   5.056  0.3279  0.7148 -0.2091
 8907TIP3   OH226684   2.358   6.014   4.858 -0.2837 -0.2728 -0.3922
 8907TIP3    H126685   2.450   6.012   4.830  0.1122  1.4881  0.6189
 8907TIP3    H226686   2.313   5.958   4.795  1.4365 -0.9820 -1.0656
 8908TIP3   OH226687   6.328   3.136   3.439  0.4801 -0.4571  0.1890
 8908TIP3    H126688   6.302   3.116   3.529 -2.0078 -3.6102 -1.0254
 8908TIP3    H226689   6.268   3.206   3.412  0.1588 -0.6009  0.5211
 8909TIP3   OH226690   5.195   3.446   2.893 -0.6663  0.2420  0.2477
 8909TIP3    H126691   5.159   3.534   2.885  1.0726  0.8919 -1.3287
 8909TIP3    H226692   5.194   3.412   2.803 -0.9468 -1.2064  0.7786
 8910TIP3   OH226693   7.106   4.200   2.258 -0.2503  0.3333 -0.1821
 8910TIP3    H126694   7.151   4.283   2.273 -0.6680  0.6792 -0.8400
 8910TIP3    H226695   7.096   4.193   2.163  0.2066 -0.7013 -0.1693
 8911TIP3   OH226696   2.188   5.553   0.768 -0.6712 -0.1152 -0.4667
 8911TIP3    H126697   2.245   5.506   0.708 -0.1932  1.4076 -1.2589
 8911TIP3    H226698   2.179   5.495   0.843  0.9537 -0.9045 -0.8428
 8912TIP3   OH226699   5.772   5.329   5.837  0.0192  0.5349 -0.1847
 8912TIP3    H126700   5.679   5.314   5.819  0.4105 -1.7811 -0.5879
 8912TIP3    H226701   5.807   5.365   5.756 -0.0719 -0.9523 -0.9150
 8913TIP3   OH226702   4.900   6.800   4.825 -0.3496 -0.4994  0.3280
 8913TIP3    H126703   4.854   6.718   4.846  0.3021 -0.5979  1.4824
 8913TIP3    H226704   4.978   6.771   4.778 -0.3965 -0.4957  0.2477
 8914TIP3   OH226705   6.170   2.573   2.272 -0.2571  0.0180  0.2620
 8914TIP3    H126706   6.121   2.654   2.288 -0.6278 -0.0664 -0.4043
 8914TIP3    H226707   6.151   2.552   2.181 -0.3472 -0.9467  0.4992
 8915TIP3   OH226708   0.612   4.463   1.677 -0.3206 -0.1102 -0.0184
 8915TIP3    H126709   0.624   4.374   1.646  1.3556 -0.2615  0.9484
 8915TIP3    H226710   0.604   4.455   1.772  0.1854  0.7900  0.1137
 8916TIP3   OH226711   0.038   3.791   0.689 -0.2533  0.1947 -0.2945
 8916TIP3    H126712  -0.042   3.740   0.676 -1.7153  1.5901  2.3112
 8916TIP3    H226713   0.018   3.875   0.646 -0.0010  0.3849 -0.0365
 8917TIP3   OH226714   4.506   3.832   0.058 -0.1565  0.0946  0.2100
 8917TIP3    H126715   4.471   3.884   0.130  1.6622  1.7320 -0.0046
 8917TIP3    H226716   4.471   3.874  -0.021 -0.7678 -0.6426  0.0787
 8918TIP3   OH226717   0.782   1.647   1.242 -0.3326 -0.4088 -0.2499
 8918TIP3    H126718   0.861   1.612   1.282  0.3687  0.7095 -0.6050
 8918TIP3    H226719   0.771   1.595   1.162  0.4486 -0.1349 -0.5522
 8919TIP3   OH226720   1.981   5.944   1.222  0.0215 -0.1552 -0.1012
 8919TIP3    H126721   2.040   6.001   1.272 -0.4625  0.1111  0.1783
 8919TIP3    H226722   2.020   5.939   1.135  0.5890 -0.1844  0.1537
 8920TIP3   OH226723   2.399   3.712   3.272  0.1995  0.2486 -0.1646
 8920TIP3    H126724   2.480   3.692   3.320  0.1726 -1.0515 -0.6144
 8920TIP3    H226725   2.396   3.646   3.203 -0.5690  1.1210 -0.9813
 8921TIP3   OH226726   5.792   1.608   2.536 -0.0249 -0.7469 -0.3575
 8921TIP3    H126727   5.860   1.640   2.594 -0.8670 -0.5090  0.5240
 8921TIP3    H226728   5.830   1.530   2.495  0.7014 -0.7270  0.2581
 8922TIP3   OH226729   2.782   1.670   3.325  0.5856 -0.3577 -0.0825
 8922TIP3    H126730   2.813   1.719   3.402 -0.2434  0.8489 -0.4963
 8922TIP3    H226731   2.862   1.637   3.284  1.0978 -0.1503  0.7277
 8923TIP3   OH226732   4.196   1.916   5.661 -0.1761  0.2096 -0.1203
 8923TIP3    H126733   4.176   1.938   5.752 -1.5281  0.4782 -0.4692
 8923TIP3    H226734   4.161   1.828   5.649  2.0754 -0.7955  0.2562
 8924TIP3   OH226735   4.432   2.265   3.766 -0.3711  0.4994  0.5571
 8924TIP3    H126736   4.506   2.214   3.797 -1.4271 -1.0300  0.6634
 8924TIP3    H226737   4.471   2.343   3.727  1.4278 -1.2238 -1.3225
 8925TIP3   OH226738   4.908   3.426   2.456  0.1555 -0.3919  0.0453
 8925TIP3    H126739   4.958   3.505   2.435 -0.9334  0.4793  0.5932
 8925TIP3    H226740   4.884   3.437   2.548  2.0580 -2.5498  0.9026
 8926TIP3   OH226741   7.184   5.670   4.374 -0.3881 -0.0775  0.0310
 8926TIP3    H126742   7.155   5.580   4.361  0.7377 -0.6122  1.0270
 8926TIP3    H226743   7.263   5.678   4.320 -1.2321  0.7548 -1.1271
 8927TIP3   OH226744   3.764   3.577   3.290 -0.2753  0.4160 -0.3431
 8927TIP3    H126745   3.782   3.621   3.373 -2.1287  0.1008  0.2702
 8927TIP3    H226746   3.741   3.648   3.230 -0.0620  0.5473 -0.2718
 8928TIP3   OH226747   4.329   6.744   2.657  0.3699  0.0501 -0.1150
 8928TIP3    H126748   4.309   6.659   2.697 -1.0008  0.4852  0.1794
 8928TIP3    H226749   4.265   6.804   2.695  1.6692  1.3623  0.1055
 8929TIP3   OH226750   2.872   1.203   5.599 -0.0378 -0.0961 -0.7872
 8929TIP3    H126751   2.788   1.245   5.615 -0.5541 -0.6133 -2.0041
 8929TIP3    H226752   2.902   1.176   5.685  0.0094  2.1565 -0.0553
 8930TIP3   OH226753   1.586   5.627   0.995 -0.3309 -0.5644 -0.0041
 8930TIP3    H126754   1.665   5.652   1.043  0.1427 -0.7066 -0.6816
 8930TIP3    H226755   1.584   5.531   1.000 -2.0893 -0.4734  2.5045
 8931TIP3   OH226756   2.362   4.718   4.271 -0.5885  0.5646 -0.1645
 8931TIP3    H126757   2.359   4.758   4.185  1.8858  1.6693  0.1826
 8931TIP3    H226758   2.352   4.791   4.333 -0.0914  0.1085  0.4750
 8932TIP3   OH226759   3.162   1.117   0.053 -0.1737 -0.1351 -0.4427
 8932TIP3    H126760   3.163   1.033   0.006 -1.0178 -0.5468  0.2458
 8932TIP3    H226761   3.215   1.175  -0.001  0.7181 -1.2055 -0.7518
 8933TIP3   OH226762   1.267   2.343   0.130 -0.3359 -0.4247 -0.2989
 8933TIP3    H126763   1.329   2.305   0.192  0.1252  1.2609  0.3442
 8933TIP3    H226764   1.221   2.268   0.093  1.4288 -1.6597 -0.1106
 8934TIP3   OH226765   6.513   6.402   4.738  0.8471  0.2149  0.5672
 8934TIP3    H126766   6.492   6.313   4.766  0.7084  0.8685  2.7344
 8934TIP3    H226767   6.428   6.440   4.714  1.1350 -0.9013 -2.8755
 8935TIP3   OH226768   2.067   4.115   4.771  0.6614  0.2079  0.0129
 8935TIP3    H126769   2.078   4.058   4.695  0.7674 -1.3914  1.1836
 8935TIP3    H226770   2.134   4.085   4.834 -0.7199  0.1435  1.5134
 8936TIP3   OH226771   5.858   5.527   5.549  0.3305 -0.4232  0.0964
 8936TIP3    H126772   5.917   5.601   5.553  0.2674 -0.3665 -0.0107
 8936TIP3    H226773   5.772   5.563   5.570  0.6045 -0.8416  2.1509
 8937TIP3   OH226774   4.557   4.565   3.088 -0.2525 -0.3312  0.2665
 8937TIP3    H126775   4.506   4.546   3.167  0.1082 -3.2026 -0.1017
 8937TIP3    H226776   4.492   4.596   3.025 -0.7919  0.4742  1.1888
 8938TIP3   OH226777   3.599   0.744   3.564  0.2255 -0.1506 -0.2694
 8938TIP3    H126778   3.569   0.830   3.594 -1.0805 -0.8557  0.4996
 8938TIP3    H226779   3.578   0.684   3.636  0.4680 -1.2417 -1.0774
 8939TIP3   OH226780   4.070   2.891   1.440 -0.1673  0.0378  0.2725
 8939TIP3    H126781   4.072   2.957   1.509 -0.1601 -0.4312  0.7267
 8939TIP3    H226782   4.104   2.936   1.363  0.3834  0.3933  0.7183
 8940TIP3   OH226783   4.392   3.213   1.901 -0.1090  0.4125  0.1930
 8940TIP3    H126784   4.391   3.290   1.959 -0.3153 -0.4029  1.3180
 8940TIP3    H226785   4.301   3.200   1.877 -0.0723  0.5160 -0.0087
 8941TIP3   OH226786   4.370   3.030   2.322  0.3565  0.9472 -0.3145
 8941TIP3    H126787   4.431   3.043   2.250  3.0358 -1.5229  1.2878
 8941TIP3    H226788   4.424   3.031   2.401 -1.5877 -1.4573  1.2224
 8942TIP3   OH226789   5.268   3.984   3.292 -0.0684  0.8302 -0.8153
 8942TIP3    H126790   5.220   3.909   3.256 -0.2381  2.0842 -3.4657
 8942TIP3    H226791   5.354   3.949   3.316 -1.0632 -0.7384  0.7161
 8943TIP3   OH226792   4.325   1.934   2.728  0.0803 -0.4939 -0.4830
 8943TIP3    H126793   4.327   1.843   2.697 -1.1763 -0.3808 -0.9254
 8943TIP3    H226794   4.343   1.986   2.650 -1.0457 -0.2993 -0.6295
 8944TIP3   OH226795   5.534   0.023   5.383  0.6920  0.2398 -0.0827
 8944TIP3    H126796   5.537  -0.063   5.425  2.9978  0.3607  0.0956
 8944TIP3    H226797   5.625   0.046   5.368  0.0634  1.6778 -2.2032
 8945TIP3   OH226798   6.847   0.248   2.805  0.0207  0.4306 -0.5048
 8945TIP3    H126799   6.891   0.203   2.877 -1.8334 -1.4538 -0.4355
 8945TIP3    H226800   6.875   0.199   2.727  0.6760  1.3768 -0.8767
 8946TIP3   OH226801   3.196   4.748   5.357  0.1362  0.0662  0.4350
 8946TIP3    H126802   3.116   4.720   5.314 -0.8036  2.0510  0.7902
 8946TIP3    H226803   3.179   4.738   5.451  0.3015  0.4978  0.5146
 8947TIP3   OH226804   3.581   1.668   1.955  0.1649  0.4692  0.1168
 8947TIP3    H126805   3.549   1.602   1.893  0.9734 -0.5544  0.7400
 8947TIP3    H226806   3.520   1.663   2.029  0.6713 -0.1763  0.5085
 8948TIP3   OH226807   4.352   1.772   3.726  1.4635  0.3448 -0.4510
 8948TIP3    H126808   4.297   1.844   3.756  0.9744  0.0448 -0.6186
 8948TIP3    H226809   4.423   1.767   3.790  2.0328  1.5818 -0.9356
 8949TIP3   OH226810   3.240   4.905   0.871  0.2822  0.2456 -0.6137
 8949TIP3    H126811   3.221   4.944   0.786 -1.1920  2.2425  0.5408
 8949TIP3    H226812   3.160   4.858   0.896  0.1956  0.8171  0.2389
 8950TIP3   OH226813   0.735   2.363   4.995 -0.2511  0.2990  0.3596
 8950TIP3    H126814   0.643   2.342   5.014 -0.7179  2.0657  0.2412
 8950TIP3    H226815   0.758   2.430   5.059  1.2441 -0.6789  0.9044
 8951TIP3   OH226816   3.567   1.071   2.719 -0.1496 -0.3900 -0.0873
 8951TIP3    H126817   3.510   1.009   2.765  0.9013 -0.6621  0.8797
 8951TIP3    H226818   3.526   1.081   2.633 -0.5589 -2.1540 -0.1493
 8952TIP3   OH226819   0.229   1.018   5.475  0.0153 -0.1560 -0.2290
 8952TIP3    H126820   0.226   1.082   5.404 -0.4198  0.8345  0.6534
 8952TIP3    H226821   0.170   1.053   5.542  1.2807 -0.4574  1.1041
 8953TIP3   OH226822   2.471   3.952   0.071 -0.3316 -0.0001  0.6649
 8953TIP3    H126823   2.408   4.004   0.121 -1.3671  0.1048 -0.6981
 8953TIP3    H226824   2.534   3.922   0.137  0.2828  2.8759  1.5059
 8954TIP3   OH226825   5.621   6.229   0.759  0.2085  0.4857  0.3148
 8954TIP3    H126826   5.627   6.137   0.732  0.4827  0.6977 -0.3653
 8954TIP3    H226827   5.530   6.240   0.786  0.1194  0.0678  0.2013
 8955TIP3   OH226828   3.656   5.533   3.451 -0.1443 -0.0404 -0.4997
 8955TIP3    H126829   3.747   5.561   3.461 -0.5252  0.7686  0.9116
 8955TIP3    H226830   3.630   5.568   3.365  0.0282  2.2790  0.3109
 8956TIP3   OH226831   3.848   3.214   0.167 -0.4521 -0.0512  0.1391
 8956TIP3    H126832   3.869   3.156   0.239 -0.0624  0.3972  0.3936
 8956TIP3    H226833   3.928   3.218   0.115 -1.0063 -1.0902 -0.8370
 8957TIP3   OH226834   5.350   6.405   2.993  0.2338  0.7498 -0.3077
 8957TIP3    H126835   5.281   6.349   3.029  1.5824 -0.2585  0.8300
 8957TIP3    H226836   5.412   6.344   2.952  0.6571  1.5981 -0.9766
 8958TIP3   OH226837   6.177   2.049   0.652  0.9078  0.2702 -0.0092
 8958TIP3    H126838   6.163   2.047   0.746  0.3389 -0.1915 -0.1044
 8958TIP3    H226839   6.090   2.050   0.614  1.1178  1.3724 -0.5218
 8959TIP3   OH226840   5.343   2.247   5.291 -0.3145 -0.4907 -0.0844
 8959TIP3    H126841   5.253   2.260   5.261  0.3342  1.1882 -1.4840
 8959TIP3    H226842   5.341   2.270   5.384 -1.5708 -1.7422  0.2161
 8960TIP3   OH226843   2.630   5.179   2.110 -0.2407 -0.2626  0.1527
 8960TIP3    H126844   2.672   5.141   2.033 -0.5428  1.9791 -1.2218
 8960TIP3    H226845   2.635   5.111   2.177  1.6734 -1.6184 -1.2763
 8961TIP3   OH226846   6.582   0.070   2.409  0.0914  0.2773  0.8729
 8961TIP3    H126847   6.588   0.163   2.390 -0.2540 -0.0987 -1.2312
 8961TIP3    H226848   6.651   0.054   2.474  0.7156  1.8106  0.6140
 8962TIP3   OH226849   2.616   1.440   3.413  0.5799 -0.0328 -0.1694
 8962TIP3    H126850   2.561   1.387   3.357 -1.3033  3.4312 -1.8864
 8962TIP3    H226851   2.655   1.505   3.355  0.9530  1.8837  2.0519
 8963TIP3   OH226852   2.048   6.218   3.728  0.3274 -0.2458 -0.2702
 8963TIP3    H126853   2.013   6.290   3.778 -0.1753 -0.7923  0.1771
 8963TIP3    H226854   2.112   6.258   3.669  1.6487  0.3134  1.4435
 8964TIP3   OH226855   6.662   2.223   2.318  0.6834  0.2872  0.0370
 8964TIP3    H126856   6.725   2.226   2.246  1.7181 -2.5267  0.6742
 8964TIP3    H226857   6.595   2.161   2.289 -0.5709  1.4491  0.3278
 8965TIP3   OH226858   1.892   2.715   3.075  0.1317 -0.7815 -0.1449
 8965TIP3    H126859   1.960   2.773   3.040 -0.9180  1.0898  0.7818
 8965TIP3    H226860   1.821   2.719   3.012  0.6712 -2.4295 -0.9140
 8966TIP3   OH226861   5.191   4.274   2.259 -0.1555 -0.2881  0.3824
 8966TIP3    H126862   5.229   4.278   2.172  0.2999  3.1003  0.6293
 8966TIP3    H226863   5.097   4.264   2.243  0.0718 -1.4818 -0.3883
 8967TIP3   OH226864   2.047   0.405   0.649  0.1063  0.5322  0.4531
 8967TIP3    H126865   2.049   0.498   0.623  1.6562  0.7464  1.2187
 8967TIP3    H226866   1.981   0.401   0.718 -0.7501  0.8347 -0.3213
 8968TIP3   OH226867   0.322   5.039   5.032  0.5153 -0.0521 -0.5317
 8968TIP3    H126868   0.351   5.107   4.971 -0.1511  1.5084  0.8088
 8968TIP3    H226869   0.403   4.994   5.058  1.0272  0.5198 -1.0871
 8969TIP3   OH226870   0.086   5.424   0.749  0.5183 -0.1159  0.0898
 8969TIP3    H126871   0.017   5.483   0.779  0.3721 -0.7173  0.9767
 8969TIP3    H226872   0.107   5.454   0.661  0.8488  1.5973  0.7312
 8970TIP3   OH226873   6.560   3.626   4.411 -0.1964 -0.1685 -0.2068
 8970TIP3    H126874   6.472   3.650   4.384  0.4258  2.1131 -0.4252
 8970TIP3    H226875   6.597   3.581   4.335 -0.3386  1.1578 -1.0956
 8971TIP3   OH226876   0.694   1.593   1.637  0.1115 -0.0010 -0.1405
 8971TIP3    H126877   0.631   1.549   1.695  1.1950  0.2280  1.2742
 8971TIP3    H226878   0.677   1.686   1.651 -0.5750  0.0648 -1.3108
 8972TIP3   OH226879   1.826   3.181   5.633  0.6928  0.7189  0.0211
 8972TIP3    H126880   1.736   3.164   5.660  0.4007 -0.4313 -1.5375
 8972TIP3    H226881   1.832   3.276   5.627  0.0982  0.9000  1.7177
 8973TIP3   OH226882   4.759   5.240   0.281 -0.4282  0.1142 -0.5171
 8973TIP3    H126883   4.721   5.170   0.227 -1.3925  0.6388 -0.5329
 8973TIP3    H226884   4.741   5.213   0.371  0.9305 -0.6186 -0.4387
 8974TIP3   OH226885   5.732   3.508   4.395  0.9199  0.0847  0.2946
 8974TIP3    H126886   5.769   3.573   4.335  0.2922  1.3303  1.2086
 8974TIP3    H226887   5.804   3.447   4.413  0.3722 -2.2335 -4.0913
 8975TIP3   OH226888   0.441   6.539   3.097 -0.6091 -1.4048  0.2557
 8975TIP3    H126889   0.372   6.592   3.136 -0.9055 -1.1734 -0.5520
 8975TIP3    H226890   0.503   6.522   3.168 -0.1646  0.5702  0.3905
 8976TIP3   OH226891   6.263   0.661   4.026 -0.2038  0.5190 -0.4953
 8976TIP3    H126892   6.277   0.598   3.956  0.1871 -0.5315  0.5032
 8976TIP3    H226893   6.333   0.644   4.089  0.4568  2.5405 -0.5918
 8977TIP3   OH226894   3.437   2.325   3.699 -0.4946  0.1038 -0.7056
 8977TIP3    H126895   3.352   2.302   3.736  0.9777 -1.6049  1.9115
 8977TIP3    H226896   3.452   2.416   3.726 -0.2727 -0.5195  1.4331
 8978TIP3   OH226897   4.253   2.426   3.868  0.2911 -0.3619  0.6862
 8978TIP3    H126898   4.304   2.352   3.836  0.2085 -0.7880  1.5116
 8978TIP3    H226899   4.315   2.499   3.869  0.0427 -0.0658 -1.3688
 8979TIP3   OH226900   0.318   5.577   4.852 -0.1210  0.4936  0.3668
 8979TIP3    H126901   0.257   5.611   4.787 -1.7638 -0.7038  1.2262
 8979TIP3    H226902   0.381   5.527   4.801 -0.9525  0.1769 -0.3744
 8980TIP3   OH226903   2.071   3.319   1.413  0.1917 -0.4908  0.3452
 8980TIP3    H126904   2.051   3.235   1.453 -0.8749 -0.1695  0.5044
 8980TIP3    H226905   2.067   3.303   1.318  1.4107 -0.9370  0.3465
 8981TIP3   OH226906   2.014   0.579   4.540 -0.1179  0.1224  0.7013
 8981TIP3    H126907   1.993   0.564   4.449  1.3148 -1.4230  0.5721
 8981TIP3    H226908   2.048   0.669   4.542 -0.2986  0.2200 -0.2460
 8982TIP3   OH226909   2.981   0.478   0.679  0.0430  0.2447  0.0538
 8982TIP3    H126910   3.030   0.398   0.699  0.1098  0.5380  1.0883
 8982TIP3    H226911   3.048   0.539   0.647  0.5950  1.0139  2.4993
 8983TIP3   OH226912   5.990   1.955   4.903  0.2085 -0.4660 -0.2365
 8983TIP3    H126913   5.954   1.873   4.869  1.8227 -1.5562  0.5674
 8983TIP3    H226914   5.918   2.017   4.894 -1.9454 -2.5078  1.3029
 8984TIP3   OH226915   1.391   5.637   3.747  0.2504 -0.0036  0.1023
 8984TIP3    H126916   1.427   5.696   3.812  0.8125  0.9051 -0.9910
 8984TIP3    H226917   1.369   5.693   3.673 -1.0946 -0.8965 -0.2149
 8985TIP3   OH226918   2.097   3.462   0.874  0.5021 -0.5792  0.0885
 8985TIP3    H126919   2.155   3.389   0.850  1.9126  1.0278 -1.7620
 8985TIP3    H226920   2.148   3.512   0.938 -0.4104 -1.1015  1.2536
 8986TIP3   OH226921   6.217   3.058   5.544 -0.2582 -0.0472  0.0226
 8986TIP3    H126922   6.253   3.024   5.626  1.2081 -1.4481 -1.1075
 8986TIP3    H226923   6.123   3.059   5.557 -0.0468 -0.0438  1.7760
 8987TIP3   OH226924   1.615   4.808   5.250 -0.2672  0.2393  0.7552
 8987TIP3    H126925   1.647   4.895   5.227  1.2079  0.2446  2.6643
 8987TIP3    H226926   1.520   4.819   5.257  0.0679  2.3940  3.4799
 8988TIP3   OH226927   6.516   2.447   1.555  0.5627 -0.4907  0.0584
 8988TIP3    H126928   6.550   2.537   1.555 -0.5184 -0.0529  0.5319
 8988TIP3    H226929   6.422   2.458   1.540  0.5677 -1.6260 -0.9127
 8989TIP3   OH226930   1.005   6.373   4.764  0.4430  0.2269 -0.1262
 8989TIP3    H126931   1.033   6.291   4.805 -0.3270  0.1743  0.3139
 8989TIP3    H226932   1.017   6.358   4.670 -2.2943 -1.4402 -0.3073
 8990TIP3   OH226933   1.075   1.175   3.202  0.5091  0.3029  0.1809
 8990TIP3    H126934   1.112   1.189   3.115  1.2155 -3.1808 -0.2281
 8990TIP3    H226935   0.988   1.139   3.186  0.0525  1.0302  0.9659
 8991TIP3   OH226936   4.209   0.615   1.051  0.2228  0.0432  0.3679
 8991TIP3    H126937   4.270   0.561   1.000 -1.4802 -2.5896  0.9355
 8991TIP3    H226938   4.232   0.705   1.028  1.5124 -0.9370 -2.6818
 8992TIP3   OH226939   4.695   1.371   5.733 -0.1551  0.0724 -0.1344
 8992TIP3    H126940   4.630   1.429   5.774  0.4375  0.8908 -0.3329
 8992TIP3    H226941   4.670   1.367   5.641  1.0889  1.8514 -0.5952
 8993TIP3   OH226942   7.056   0.561   1.399  0.1923 -0.2231 -0.2687
 8993TIP3    H126943   6.979   0.609   1.429  0.7834 -0.6441  2.1838
 8993TIP3    H226944   7.030   0.469   1.403  0.0205 -0.2865 -2.0414
 8994TIP3   OH226945   5.574   3.155   3.158  0.0011  0.3393 -0.0968
 8994TIP3    H126946   5.488   3.140   3.118 -0.4436  0.4607  0.7694
 8994TIP3    H226947   5.617   3.069   3.155 -0.2584  0.2160 -0.3115
 8995TIP3   OH226948   1.324   4.842   5.271 -0.6763 -1.3302  0.0369
 8995TIP3    H126949   1.232   4.816   5.272 -0.6391 -1.4852  1.6009
 8995TIP3    H226950   1.323   4.932   5.237 -1.5855 -0.8146  1.3239
 8996TIP3   OH226951   3.011   4.710   5.722  0.1328 -0.0450 -0.1634
 8996TIP3    H126952   3.037   4.625   5.757 -1.6865 -0.1618  0.9937
 8996TIP3    H226953   3.088   4.766   5.733  1.4633 -1.5894 -1.2458
 8997TIP3   OH226954   0.220   0.549   1.950 -0.2767  0.4699  0.1175
 8997TIP3    H126955   0.260   0.580   1.869  0.3874  2.2181  1.0749
 8997TIP3    H226956   0.215   0.454   1.938 -0.9535  0.7315 -2.2861
 8998TIP3   OH226957   2.867   4.098   1.807  0.3945 -0.7489 -0.2055
 8998TIP3    H126958   2.888   4.149   1.729  0.2448 -0.3210  0.0285
 8998TIP3    H226959   2.834   4.163   1.870 -0.6527 -1.2557 -0.2144
 8999TIP3   OH226960   7.057   0.048   4.321 -0.0181  0.2629 -0.1336
 8999TIP3    H126961   6.972   0.091   4.332 -0.2099  0.2194 -1.2977
 8999TIP3    H226962   7.052  -0.029   4.377 -1.4245 -0.6785 -1.4616
 9000TIP3   OH226963   3.889   3.790   0.391 -0.4892 -0.1011  0.6004
 9000TIP3    H126964   3.845   3.717   0.347 -0.4937  1.0055 -1.3432
 9000TIP3    H226965   3.979   3.762   0.401 -0.0052  0.3175 -1.9679
 9001TIP3   OH226966   6.134   2.963   2.954  0.4013 -0.4047 -0.0019
 9001TIP3    H126967   6.051   2.991   2.914  0.9132 -0.6136 -1.2639
 9001TIP3    H226968   6.201   3.013   2.908  1.0928 -1.4424 -0.1545
 9002TIP3   OH226969   3.704   4.151   5.772 -0.4351  0.6920 -0.0386
 9002TIP3    H126970   3.714   4.234   5.818 -0.1158  0.5541  0.1459
 9002TIP3    H226971   3.669   4.174   5.686 -0.5543  0.9957  0.0909
 9003TIP3   OH226972   7.113   6.498   3.730  0.1479  0.4587 -0.1759
 9003TIP3    H126973   7.118   6.517   3.636  1.0203 -1.5753 -0.5989
 9003TIP3    H226974   7.028   6.532   3.757 -0.9536 -0.5581 -2.1329
 9004TIP3   OH226975   5.921   6.177   0.330 -0.0002 -0.4758 -0.4141
 9004TIP3    H126976   5.961   6.131   0.404 -1.4883 -0.5818  0.3463
 9004TIP3    H226977   5.833   6.199   0.360 -0.1841  0.6352 -1.6916
 9005TIP3   OH226978   1.471   1.625   0.414 -0.3997  0.5637  0.5936
 9005TIP3    H126979   1.544   1.563   0.407 -1.4892 -0.7140  0.0192
 9005TIP3    H226980   1.485   1.669   0.498 -0.1794 -1.2818  1.5888
 9006TIP3   OH226981   3.549   5.942   0.335 -0.0815  0.2260  0.3730
 9006TIP3    H126982   3.616   5.969   0.398 -0.3264 -0.5889  0.9908
 9006TIP3    H226983   3.584   5.971   0.250  1.1136 -0.2729  0.6670
 9007TIP3   OH226984   5.185   3.319   5.692 -0.3633  0.1400  0.0601
 9007TIP3    H126985   5.219   3.318   5.782  0.0989  0.8541 -0.1020
 9007TIP3    H226986   5.154   3.229   5.678  1.8361 -0.6859  0.0774
 9008TIP3   OH226987   2.459   1.081   1.947  0.3027  0.1085  0.0088
 9008TIP3    H126988   2.448   1.058   1.855  0.8284 -0.1445  0.0061
 9008TIP3    H226989   2.548   1.053   1.969  0.1973  0.2007  0.5840
 9009TIP3   OH226990   1.070   3.210   3.376 -0.1401  0.1926 -0.6578
 9009TIP3    H126991   1.011   3.229   3.303 -0.7652  0.6582 -0.0476
 9009TIP3    H226992   1.145   3.268   3.362  0.0242 -0.1565 -1.2542
 9010TIP3   OH226993   5.452   4.679   5.718  0.4324 -0.0660 -0.0922
 9010TIP3    H126994   5.516   4.717   5.778  0.7829 -0.5385 -0.1633
 9010TIP3    H226995   5.381   4.650   5.775  0.4748  0.0716  0.0303
 9011TIP3   OH226996   3.163   1.576   4.755  0.1072 -0.6641 -0.5553
 9011TIP3    H126997   3.074   1.551   4.729  0.6168 -1.9978 -1.1372
 9011TIP3    H226998   3.154   1.608   4.844 -1.0010 -0.4876 -0.7096
 9012TIP3   OH226999   5.463   6.253   3.815 -0.4497  0.4466 -0.4794
 9012TIP3    H127000   5.403   6.208   3.874  0.1122  1.0149  0.5612
 9012TIP3    H227001   5.542   6.199   3.815 -0.4757  0.4060 -0.7802
 9013TIP3   OH227002   5.036   5.020   1.530  0.0337  0.6860 -0.4750
 9013TIP3    H127003   5.054   5.029   1.623  0.7373 -1.2449 -0.3825
 9013TIP3    H227004   5.091   5.087   1.488 -0.1229  1.4141  0.4493
 9014TIP3   OH227005   0.774   5.879   2.981 -0.4117 -0.4101 -0.4328
 9014TIP3    H127006   0.767   5.831   2.898  0.7803  0.2738 -0.9522
 9014TIP3    H227007   0.826   5.822   3.037  0.5863  0.0371 -0.8848
 9015TIP3   OH227008   0.652   6.583   5.385 -0.0166 -0.3471 -0.4729
 9015TIP3    H127009   0.655   6.637   5.306  0.7802 -0.6499 -0.6593
 9015TIP3    H227010   0.640   6.494   5.353  0.7330 -0.5239 -0.2858
 9016TIP3   OH227011   1.032   0.617   5.377 -0.3216 -0.3166 -0.3492
 9016TIP3    H127012   1.036   0.523   5.364  0.7027 -0.2376 -0.7417
 9016TIP3    H227013   0.942   0.641   5.358 -0.8753 -1.3532  0.8024
 9017TIP3   OH227014   6.169   5.522   2.932  0.2612  0.1565  0.1579
 9017TIP3    H127015   6.218   5.449   2.894  1.4334  0.1306  1.6164
 9017TIP3    H227016   6.237   5.579   2.968 -0.7650  0.0448  2.4129
 9018TIP3   OH227017   1.640   2.257   1.124 -0.2688 -0.6968  0.4105
 9018TIP3    H127018   1.630   2.168   1.091  1.3366 -0.5367 -0.6094
 9018TIP3    H227019   1.734   2.267   1.139 -0.3981  0.8841  0.3573
 9019TIP3   OH227020   0.606   5.552   3.755 -0.1523 -0.0482 -0.0633
 9019TIP3    H127021   0.688   5.601   3.746 -0.1104 -0.2156 -0.6568
 9019TIP3    H227022   0.608   5.518   3.845  0.2892  0.1936  0.0210
 9020TIP3   OH227023   5.581   6.599   3.664 -0.1646 -0.2397  0.5503
 9020TIP3    H127024   5.519   6.666   3.693 -0.1897  0.1249 -0.3119
 9020TIP3    H227025   5.576   6.601   3.568  0.9454 -0.4258  0.4757
 9021TIP3   OH227026   3.926   0.968   3.285 -0.2713  0.2337 -0.2761
 9021TIP3    H127027   3.999   0.908   3.296 -0.3876  0.3716  1.5651
 9021TIP3    H227028   3.940   1.037   3.350 -0.9193  1.4272 -1.3382
 9022TIP3   OH227029   4.506   1.162   2.059 -0.2456 -0.3079  0.2383
 9022TIP3    H127030   4.555   1.155   1.978 -1.1199 -0.2816 -0.3144
 9022TIP3    H227031   4.506   1.256   2.079 -0.6678 -0.2150 -0.1596
 9023TIP3   OH227032   5.884   3.502   3.996  0.1871 -0.2832 -0.1732
 9023TIP3    H127033   5.906   3.471   4.084  1.3200 -2.4584 -1.1384
 9023TIP3    H227034   5.809   3.449   3.970 -0.7815  1.0495 -0.1859
 9024TIP3   OH227035   0.105   1.113   4.364  0.2143  0.2289  0.3261
 9024TIP3    H127036   0.067   1.143   4.281 -1.8364  0.6732  1.3540
 9024TIP3    H227037   0.191   1.155   4.368 -0.0743  1.0191 -1.1108
 9025TIP3   OH227038   3.798   4.466   3.585  0.1061  0.1152  0.0045
 9025TIP3    H127039   3.823   4.382   3.545  1.2434  0.4035  0.0940
 9025TIP3    H227040   3.715   4.446   3.631 -0.5582 -0.5278 -1.4049
 9026TIP3   OH227041   7.056   3.385   1.058  0.2883  0.9006  0.2393
 9026TIP3    H127042   7.084   3.474   1.037  0.4825  0.8446  0.2629
 9026TIP3    H227043   7.051   3.383   1.154  0.9329  0.6890  0.2711
 9027TIP3   OH227044   5.579   1.843   5.113  0.0037  0.6974 -0.0742
 9027TIP3    H127045   5.519   1.832   5.040 -0.7870 -0.5947  0.7150
 9027TIP3    H227046   5.566   1.934   5.141 -2.1848  0.2768  0.5293
 9028TIP3   OH227047   0.971   0.827   3.420 -0.3825  0.3257  0.2163
 9028TIP3    H127048   1.044   0.813   3.360 -0.6693 -1.1644  0.1780
 9028TIP3    H227049   0.956   0.921   3.418 -0.5540  0.3161 -2.2541
 9029TIP3   OH227050   0.525   1.482   5.145 -0.1683 -0.2429 -0.8329
 9029TIP3    H127051   0.535   1.467   5.239  0.5321  0.6548 -0.7430
 9029TIP3    H227052   0.554   1.401   5.104  0.8972 -0.1426 -0.3049
 9030TIP3   OH227053   4.220   4.553   4.387  0.0935  0.0634  0.8884
 9030TIP3    H127054   4.305   4.573   4.428  0.4935  1.3756 -0.4938
 9030TIP3    H227055   4.156   4.597   4.442  0.2797 -0.9265  1.9391
 9031TIP3   OH227056   3.708   5.131   0.867  0.0906  0.0450 -0.2292
 9031TIP3    H127057   3.694   5.100   0.778 -1.6761 -1.1693  0.4076
 9031TIP3    H227058   3.655   5.211   0.873  1.5364  1.0648 -0.7288
 9032TIP3   OH227059   6.522   3.041   4.629  0.3903 -0.3061  0.0221
 9032TIP3    H127060   6.519   3.136   4.619 -1.6687 -0.1308  1.4482
 9032TIP3    H227061   6.435   3.019   4.662  0.4086 -2.8537 -1.4137
 9033TIP3   OH227062   2.982   2.852   4.712  0.6229  0.4241 -0.0144
 9033TIP3    H127063   3.034   2.784   4.755  0.3729  1.4066  1.9616
 9033TIP3    H227064   3.039   2.929   4.712 -0.1933  1.0473  0.6334
 9034TIP3   OH227065   4.429   1.248   3.701  0.4763  0.0881  0.2050
 9034TIP3    H127066   4.512   1.255   3.749  0.5947 -0.2455  0.0460
 9034TIP3    H227067   4.405   1.339   3.682  0.3572  0.2401  1.0133
 9035TIP3   OH227068   5.842   6.483   1.359 -0.9423  0.0921  0.2724
 9035TIP3    H127069   5.771   6.442   1.411  0.4810 -1.3358  1.2026
 9035TIP3    H227070   5.917   6.481   1.418  0.6649 -1.2706 -1.6972
 9036TIP3   OH227071   2.771   1.210   4.228 -0.5520 -0.6232 -0.3084
 9036TIP3    H127072   2.691   1.181   4.272 -1.3995 -0.6138 -1.7993
 9036TIP3    H227073   2.747   1.291   4.185  0.2126 -0.7189 -0.9423
 9037TIP3   OH227074   0.199   4.660   0.659  0.1646  0.3165 -0.4710
 9037TIP3    H127075   0.163   4.631   0.575 -1.2503 -0.5958  0.4050
 9037TIP3    H227076   0.149   4.739   0.680 -1.3423 -0.8977  0.7028
 9038TIP3   OH227077   2.388   4.820   3.758  0.1034  0.1843 -0.5570
 9038TIP3    H127078   2.299   4.816   3.794 -0.8872 -0.3727 -2.9075
 9038TIP3    H227079   2.440   4.765   3.817 -0.8056  1.3852  1.4983
 9039TIP3   OH227080   3.425   4.560   4.748 -0.0616 -0.1471 -0.0932
 9039TIP3    H127081   3.518   4.535   4.751 -0.5839 -2.1834  0.4339
 9039TIP3    H227082   3.378   4.477   4.748 -1.9499  0.8452  1.7467
 9040TIP3   OH227083   4.314   1.936   3.215 -0.5431  0.0815 -0.7168
 9040TIP3    H127084   4.322   1.990   3.136 -0.2857  0.7802 -0.2278
 9040TIP3    H227085   4.390   1.960   3.268 -1.4213  0.6266  0.3405
 9041TIP3   OH227086   7.098   1.636   4.862  0.0266 -0.2998 -0.4691
 9041TIP3    H127087   7.174   1.584   4.837  0.6386  0.5206 -0.3575
 9041TIP3    H227088   7.052   1.652   4.780  1.1714  1.0422 -0.8928
 9042TIP3   OH227089   1.567   6.227   1.269 -0.4031 -0.0136  0.5523
 9042TIP3    H127090   1.617   6.306   1.249  0.9090 -0.9730 -0.0867
 9042TIP3    H227091   1.519   6.208   1.189 -0.5295  0.0056  0.6234
 9043TIP3   OH227092   4.426   4.963   0.333 -0.5533 -0.5683  0.4232
 9043TIP3    H127093   4.455   4.989   0.420  0.1229  0.4158 -0.0792
 9043TIP3    H227094   4.496   4.906   0.300  0.5160  1.1757 -0.4796
 9044TIP3   OH227095   6.637   2.107   4.980 -0.2165 -0.0376 -0.0348
 9044TIP3    H127096   6.728   2.135   4.994 -0.7942  2.6006 -1.0456
 9044TIP3    H227097   6.645   2.028   4.926  1.4984  1.3979 -2.0493
 9045TIP3   OH227098   4.585   5.015   3.322  0.0139 -0.4306  0.1203
 9045TIP3    H127099   4.617   5.033   3.233 -0.3848  1.2914  0.2965
 9045TIP3    H227100   4.626   5.082   3.376  0.5377 -1.6824  1.3310
 9046TIP3   OH227101   0.434   5.343   0.434  0.4802 -0.3223  0.5642
 9046TIP3    H127102   0.528   5.357   0.439  0.8243 -2.0479 -0.3339
 9046TIP3    H227103   0.413   5.355   0.341 -0.0954 -0.4440  0.6740
 9047TIP3   OH227104   2.970   2.209   5.494  0.0049 -0.1641  0.4483
 9047TIP3    H127105   2.893   2.175   5.447  0.1963 -2.3283  1.5864
 9047TIP3    H227106   2.975   2.301   5.467  0.3007 -1.2247 -4.0447
 9048TIP3   OH227107   5.306   6.324   5.244  0.3843  0.3554 -0.1080
 9048TIP3    H127108   5.393   6.292   5.269  0.9317 -0.2348 -2.5361
 9048TIP3    H227109   5.250   6.246   5.246  0.0357  0.6133  0.8014
 9049TIP3   OH227110   3.318   2.075   2.821  0.3564 -0.8409  0.4910
 9049TIP3    H127111   3.376   2.100   2.749 -0.7131 -0.8415 -0.3975
 9049TIP3    H227112   3.320   2.150   2.880 -0.0238 -0.1435 -0.3605
 9050TIP3   OH227113   5.095   4.656   4.257  0.0261  0.1501 -0.5216
 9050TIP3    H127114   5.016   4.692   4.216 -0.2546 -0.9671 -0.9873
 9050TIP3    H227115   5.063   4.599   4.327  0.4859  1.3406  0.7193
 9051TIP3   OH227116   5.428   4.722   5.070 -0.1566 -0.8030 -0.9141
 9051TIP3    H127117   5.431   4.723   5.166 -0.4074 -0.5065 -0.9100
 9051TIP3    H227118   5.344   4.761   5.048  0.1947 -0.2429 -1.2750
 9052TIP3   OH227119   1.026   0.534   1.559 -0.5235  0.0567 -0.0534
 9052TIP3    H127120   1.031   0.470   1.488  1.6939 -0.6144  0.6331
 9052TIP3    H227121   0.994   0.485   1.634 -0.7733  0.2434 -0.0364
 9053TIP3   OH227122   6.280   5.160   4.777 -0.3182 -0.2623 -0.0338
 9053TIP3    H127123   6.247   5.207   4.853 -3.5779 -1.3008 -0.6484
 9053TIP3    H227124   6.283   5.225   4.707  0.5815  0.2045  0.4231
 9054TIP3   OH227125   6.309   1.869   3.625 -0.3328  0.3652  0.0013
 9054TIP3    H127126   6.311   1.832   3.713  1.5311 -2.4168 -1.0732
 9054TIP3    H227127   6.343   1.958   3.636  0.8554 -0.2703  1.9653
 9055TIP3   OH227128   1.976   2.516   2.763 -0.0904  0.1755 -0.3716
 9055TIP3    H127129   2.007   2.607   2.762  0.6814 -0.0805 -0.0055
 9055TIP3    H227130   1.901   2.517   2.704 -0.1053  1.0573 -0.3636
 9056TIP3   OH227131   2.324   1.767   1.310  0.0468 -0.4405  0.3886
 9056TIP3    H127132   2.238   1.726   1.300 -0.2683 -0.1725  1.7690
 9056TIP3    H227133   2.305   1.851   1.352  0.5037  1.9559 -3.6211
 9057TIP3   OH227134   0.252   4.412   2.584 -0.1866 -0.6976  0.0240
 9057TIP3    H127135   0.202   4.332   2.596 -1.1301 -0.3843 -1.6379
 9057TIP3    H227136   0.192   4.482   2.610  0.1854 -0.4454  0.2170
 9058TIP3   OH227137   5.736   1.920   4.612 -0.5917 -0.3034  0.2848
 9058TIP3    H127138   5.793   1.997   4.608  0.9495 -1.4249 -0.2626
 9058TIP3    H227139   5.772   1.861   4.546 -1.5773 -1.6068  0.8859
 9059TIP3   OH227140   2.663   6.632   3.408 -0.0009 -0.2313  0.2895
 9059TIP3    H127141   2.682   6.667   3.321 -0.8038 -1.1263 -0.2659
 9059TIP3    H227142   2.614   6.701   3.452  0.9761  0.4890  0.2854
 9060TIP3   OH227143   1.291   3.803   3.098  0.6737  0.5003  0.7104
 9060TIP3    H127144   1.323   3.818   3.188  0.4172  0.5665  0.7899
 9060TIP3    H227145   1.204   3.765   3.110  0.7302  0.3038  0.4903
 9061TIP3   OH227146   4.077   4.722   2.979  0.7315 -0.0776 -0.4979
 9061TIP3    H127147   4.018   4.652   2.951 -1.8190  2.3128 -1.6269
 9061TIP3    H227148   4.082   4.713   3.074  1.2589 -2.2592 -0.6694
 9062TIP3   OH227149   1.273   3.486   3.156 -0.2293 -0.0526  1.0164
 9062TIP3    H127150   1.357   3.531   3.165  0.5260 -1.3074  0.4712
 9062TIP3    H227151   1.211   3.541   3.205  0.6656  1.4850  0.4744
 9063TIP3   OH227152   6.565   1.030   5.757  0.0272 -0.4170 -0.1338
 9063TIP3    H127153   6.638   1.051   5.817 -0.1143 -2.7499  0.9798
 9063TIP3    H227154   6.568   1.099   5.691  1.1637  1.4339  1.7076
 9064TIP3   OH227155   1.919   4.549   5.791  0.3471 -0.4527 -0.0919
 9064TIP3    H127156   1.905   4.577   5.700  0.6118 -1.7423 -0.5422
 9064TIP3    H227157   1.920   4.631   5.841 -2.2029  0.1934 -0.9074
 9065TIP3   OH227158   2.628   1.848   2.727  0.1032 -0.1606 -0.1657
 9065TIP3    H127159   2.717   1.849   2.692  0.6414  2.0763  1.1040
 9065TIP3    H227160   2.572   1.846   2.650  1.2435  0.2053 -1.0343
 9066TIP3   OH227161   3.723   5.313   3.217 -0.7469 -0.5184  0.1478
 9066TIP3    H127162   3.675   5.269   3.147  0.0153  0.5371 -1.0817
 9066TIP3    H227163   3.797   5.355   3.173  0.8416 -1.3784  1.8615
 9067TIP3   OH227164   2.702   4.185   5.248  0.1946 -0.5287  0.0170
 9067TIP3    H127165   2.731   4.094   5.237  1.3210 -0.0871 -0.8420
 9067TIP3    H227166   2.777   4.238   5.221 -0.1147  0.6768  1.3720
 9068TIP3   OH227167   6.355   1.796   2.693  0.1858  0.7450 -0.5830
 9068TIP3    H127168   6.266   1.764   2.680 -0.1544  0.2600  2.2507
 9068TIP3    H227169   6.369   1.790   2.788  3.3305  0.5910 -0.9590
 9069TIP3   OH227170   3.021   3.025   5.235 -0.0151  0.0532 -0.3451
 9069TIP3    H127171   2.986   3.102   5.281  0.1877 -2.0603  3.8099
 9069TIP3    H227172   3.115   3.027   5.253  0.1688 -0.5972 -1.1838
 9070TIP3   OH227173   0.710   4.879   3.601  0.0817 -0.1218  0.2232
 9070TIP3    H127174   0.750   4.920   3.524  0.0699 -1.7672 -0.7242
 9070TIP3    H227175   0.636   4.935   3.622  0.6699  0.9133 -0.3397
 9071TIP3   OH227176   2.724   2.258   5.089 -0.5230 -0.3311 -0.5162
 9071TIP3    H127177   2.817   2.246   5.107 -0.6692  0.9356  1.4556
 9071TIP3    H227178   2.720   2.280   4.996  0.9047 -2.3714 -1.1340
 9072TIP3   OH227179   7.141   5.734   0.543  0.0927  0.1193 -0.0095
 9072TIP3    H127180   7.220   5.784   0.523 -0.0542  0.4864  0.3244
 9072TIP3    H227181   7.108   5.772   0.624  0.2237 -0.8138  0.4947
 9073TIP3   OH227182   3.542   4.008   2.160  0.3449 -0.1532  0.1736
 9073TIP3    H127183   3.508   4.095   2.143  0.5221 -0.0476  0.3582
 9073TIP3    H227184   3.477   3.949   2.121  0.1743  0.0565  0.1381
 9074TIP3   OH227185   5.755   1.977   2.893  0.0911 -0.4458 -0.1188
 9074TIP3    H127186   5.841   2.016   2.881  0.2545 -0.4018  1.0295
 9074TIP3    H227187   5.772   1.884   2.912 -0.2112 -0.7766 -1.3795
 9075TIP3   OH227188   6.305   3.217   4.452  0.4401 -1.4640  0.0741
 9075TIP3    H127189   6.384   3.210   4.505  0.7502 -1.0043 -0.3148
 9075TIP3    H227190   6.235   3.185   4.508  1.0517 -2.8917  0.0651
 9076TIP3   OH227191   5.904   4.982   5.225  0.4029  0.3835 -0.0631
 9076TIP3    H127192   5.813   4.956   5.210  0.5710  0.1474 -0.7022
 9076TIP3    H227193   5.955   4.903   5.207  0.7197  0.4381  0.5576
 9077TIP3   OH227194   3.662   1.179   0.819 -0.9317  0.4108  0.6746
 9077TIP3    H127195   3.705   1.121   0.756  0.5710 -0.2413  2.2048
 9077TIP3    H227196   3.735   1.217   0.869 -2.1011  0.1980  2.6147
 9078TIP3   OH227197   1.282   4.675   2.402  0.9644 -0.1241  0.1349
 9078TIP3    H127198   1.235   4.606   2.448  0.6663 -0.3885 -0.5535
 9078TIP3    H227199   1.341   4.712   2.468  0.0679 -0.0396  0.9111
 9079TIP3   OH227200   6.081   2.828   4.552  0.5192 -0.8208 -0.1481
 9079TIP3    H127201   6.020   2.763   4.586  2.0867 -2.5251 -0.3903
 9079TIP3    H227202   6.116   2.789   4.472  1.4451  0.3784 -0.3682
 9080TIP3   OH227203   1.339   4.924   0.962  0.6765 -0.2275 -0.5463
 9080TIP3    H127204   1.418   4.874   0.983  0.9627 -0.0150 -1.0866
 9080TIP3    H227205   1.322   4.977   1.040  0.9258 -0.4563 -0.3366
 9081TIP3   OH227206   0.365   1.665   5.566  0.2334  0.2078 -0.1213
 9081TIP3    H127207   0.300   1.731   5.547 -0.6622 -0.5748  0.1527
 9081TIP3    H227208   0.337   1.626   5.649 -0.6529 -2.1314 -1.4103
 9082TIP3   OH227209   1.784   4.520   1.188  0.1797 -0.6711  0.0908
 9082TIP3    H127210   1.710   4.546   1.243 -1.0242  0.5680 -1.9865
 9082TIP3    H227211   1.811   4.601   1.144  2.2289 -1.2794  0.1205
 9083TIP3   OH227212   2.711   3.926   2.250  0.2434  0.2770  0.2800
 9083TIP3    H127213   2.653   3.880   2.189  1.2093  0.5854 -0.9335
 9083TIP3    H227214   2.727   4.011   2.208  0.3004  0.8175  1.3725
 9084TIP3   OH227215   5.273   0.721   3.763  0.0765  0.0191  0.0042
 9084TIP3    H127216   5.308   0.692   3.679 -1.4902 -0.5219 -0.4925
 9084TIP3    H227217   5.190   0.674   3.772 -1.2386  2.2807  0.4801
 9085TIP3   OH227218   0.400   1.284   1.839  0.5626 -0.1117 -0.5309
 9085TIP3    H127219   0.377   1.268   1.931  1.5740  0.8838 -0.0829
 9085TIP3    H227220   0.411   1.197   1.801 -0.0909 -0.5356  0.2316
 9086TIP3   OH227221   6.761   0.492   5.064 -0.0484 -0.5337  0.1072
 9086TIP3    H127222   6.837   0.529   5.110 -0.6741  2.1804 -0.8551
 9086TIP3    H227223   6.766   0.528   4.976 -3.9949  2.4215  0.8030
 9087TIP3   OH227224   4.933   3.692   0.007  0.8330 -0.3294  0.7762
 9087TIP3    H127225   4.935   3.626   0.076  2.4987 -1.3811 -0.2094
 9087TIP3    H227226   5.024   3.717  -0.004  0.8153 -1.1890 -1.9352
 9088TIP3   OH227227   2.657   2.999   5.873 -0.3715 -0.5397 -0.1156
 9088TIP3    H127228   2.708   2.921   5.895 -0.6569 -0.2720  1.6975
 9088TIP3    H227229   2.566   2.968   5.870 -0.5833 -0.1766  1.4546
 9089TIP3   OH227230   4.127   6.548   4.116  0.2744 -0.2694 -0.0503
 9089TIP3    H127231   4.069   6.475   4.136 -1.9836  1.3059 -0.4265
 9089TIP3    H227232   4.205   6.508   4.078 -0.8786 -2.4608 -0.2534
 9090TIP3   OH227233   0.892   1.388   0.036 -0.2057  0.1157  0.5368
 9090TIP3    H127234   0.986   1.404   0.036  0.1891 -1.8052  2.0635
 9090TIP3    H227235   0.876   1.333  -0.040 -0.5494  2.2536 -1.0512
 9091TIP3   OH227236   3.494   4.533   2.372  0.1761 -0.0203 -0.1235
 9091TIP3    H127237   3.453   4.503   2.291 -0.1723 -1.6452  0.6357
 9091TIP3    H227238   3.587   4.541   2.350 -0.0095  0.2283 -0.8565
 9092TIP3   OH227239   2.147   3.567   1.292  0.4305 -0.3744 -0.3066
 9092TIP3    H127240   2.107   3.647   1.328 -0.8030 -0.8695 -0.5271
 9092TIP3    H227241   2.118   3.497   1.352  1.9926 -0.6023  0.2383
 9093TIP3   OH227242   2.804   1.991   2.488  0.3961  0.1455  0.1375
 9093TIP3    H127243   2.804   2.024   2.399 -2.2082  0.2112  0.0991
 9093TIP3    H227244   2.732   1.928   2.491  1.5817 -1.2582  1.7380
 9094TIP3   OH227245   4.499   1.435   2.068 -0.0190  0.4371 -0.5793
 9094TIP3    H127246   4.537   1.463   2.152  1.0463 -0.6663 -0.6565
 9094TIP3    H227247   4.563   1.462   2.003 -0.8272  1.2544 -1.0566
 9095TIP3   OH227248   4.782   1.114   5.779 -0.2750  0.0560 -0.0864
 9095TIP3    H127249   4.755   1.206   5.776  1.3763  0.5996  0.3755
 9095TIP3    H227250   4.809   1.094   5.689  0.5060  0.4244  0.0523
 9096TIP3   OH227251   0.448   2.064   2.817 -0.5405 -0.2490  0.3428
 9096TIP3    H127252   0.476   2.146   2.776 -1.5716 -0.3673 -0.6598
 9096TIP3    H227253   0.360   2.049   2.781 -1.4050 -0.4955  2.4298
 9097TIP3   OH227254   5.340   5.194   3.751  0.2477  0.2651  0.5840
 9097TIP3    H127255   5.338   5.231   3.663 -2.6000  2.5169  1.4407
 9097TIP3    H227256   5.277   5.123   3.749  2.3356 -1.6717  0.1459
 9098TIP3   OH227257   1.992   6.436   2.458 -0.5360 -0.1180  0.2139
 9098TIP3    H127258   1.945   6.411   2.378 -0.3497  1.9917 -0.6064
 9098TIP3    H227259   1.961   6.524   2.477  0.2223 -0.1883  1.9037
 9099TIP3   OH227260   0.379   0.570   0.230 -0.4508  0.1508  0.2670
 9099TIP3    H127261   0.432   0.644   0.200  0.3378  0.5957  2.5370
 9099TIP3    H227262   0.381   0.577   0.326  0.6064 -3.4588  0.6347
 9100TIP3   OH227263   0.432   2.307   3.648  1.1321  0.9404 -0.4986
 9100TIP3    H127264   0.505   2.305   3.709  0.2962  1.0466  0.5376
 9100TIP3    H227265   0.406   2.215   3.639 -0.7764  1.1561  1.8828
 9101TIP3   OH227266   3.032   5.419   4.307  0.3638  0.3462 -0.0919
 9101TIP3    H127267   2.953   5.415   4.253 -0.1101 -0.2108  0.6313
 9101TIP3    H227268   3.103   5.424   4.243 -0.1801 -0.3949 -0.7903
 9102TIP3   OH227269   2.845   3.854   5.548 -0.0320 -0.1778 -0.5534
 9102TIP3    H127270   2.817   3.841   5.458  2.7778 -1.7331 -1.3230
 9102TIP3    H227271   2.837   3.948   5.562 -2.3116 -0.1257 -1.7090
 9103TIP3   OH227272   1.016   4.308   0.693 -0.3806 -0.5523 -0.3750
 9103TIP3    H127273   0.964   4.340   0.619 -0.1582  1.1366  0.1345
 9103TIP3    H227274   0.968   4.338   0.770  0.8511  0.2791  0.1122
 9104TIP3   OH227275   7.132   5.818   1.611  0.3415 -0.1247  0.8253
 9104TIP3    H127276   7.206   5.832   1.552  0.0521 -3.3454 -0.5362
 9104TIP3    H227277   7.168   5.769   1.685  0.0309  0.6385  1.4911
 9105TIP3   OH227278   6.077   0.075   5.115  0.3437 -0.2589 -0.4146
 9105TIP3    H127279   6.078   0.111   5.204  1.5211  1.0945 -0.9382
 9105TIP3    H227280   5.984   0.078   5.089 -0.0265 -0.7517  0.7761
 9106TIP3   OH227281   4.302   0.240   5.135 -0.5633  0.4929  0.0140
 9106TIP3    H127282   4.218   0.198   5.120  0.0987 -1.0531  0.4137
 9106TIP3    H227283   4.288   0.331   5.111 -2.6371  0.5194  1.0851
 9107TIP3   OH227284   3.766   5.089   0.609  0.0320  0.4539  0.0944
 9107TIP3    H127285   3.755   5.176   0.571  1.4773  0.6030 -0.0351
 9107TIP3    H227286   3.711   5.032   0.555  1.7294  0.7235 -2.0531
 9108TIP3   OH227287   4.922   0.554   1.790 -0.6571  0.5865 -0.0015
 9108TIP3    H127288   4.975   0.476   1.807 -2.2818 -0.1899  1.9097
 9108TIP3    H227289   4.854   0.523   1.730  0.4408  1.3687 -1.7448
 9109TIP3   OH227290   6.281   3.495   3.083  0.1860 -0.2959 -0.2949
 9109TIP3    H127291   6.315   3.492   3.173  0.5155 -2.1816 -0.4340
 9109TIP3    H227292   6.195   3.454   3.089  0.1914 -0.3873 -0.8288
 9110TIP3   OH227293   5.352   0.226   3.830  0.0488  0.3948  0.5892
 9110TIP3    H127294   5.412   0.192   3.897 -1.5388  1.0820  2.4647
 9110TIP3    H227295   5.294   0.286   3.878 -0.8162  1.3708 -1.5362
 9111TIP3   OH227296   0.156   0.371   5.534  0.6176  0.8621 -0.7648
 9111TIP3    H127297   0.105   0.372   5.616  1.2426  0.1556 -0.3556
 9111TIP3    H227298   0.113   0.304   5.480 -0.1002  1.6738 -1.2350
 9112TIP3   OH227299   1.804   4.078   0.098  0.0718 -0.1311 -0.1936
 9112TIP3    H127300   1.862   4.143   0.137 -0.8253  0.7414 -0.2789
 9112TIP3    H227301   1.848   4.052   0.017 -0.2845  1.5331 -0.9476
 9113TIP3   OH227302   4.897   2.337   2.748 -0.3696 -0.1691  0.4385
 9113TIP3    H127303   4.930   2.258   2.704  1.6254 -0.0775  1.6543
 9113TIP3    H227304   4.826   2.368   2.691  0.6644 -1.2579 -1.5548
 9114TIP3   OH227305   2.182   3.670   1.031 -0.3310 -0.2183 -0.1150
 9114TIP3    H127306   2.226   3.743   1.075  0.8874 -1.0314  0.0923
 9114TIP3    H227307   2.162   3.608   1.101 -1.0170 -0.2561 -0.3357
 9115TIP3   OH227308   6.420   4.469   4.741  0.2877 -0.1794 -0.0038
 9115TIP3    H127309   6.403   4.539   4.803  1.2386 -0.3243  0.4221
 9115TIP3    H227310   6.437   4.514   4.658  0.5174  0.0733  0.1804
 9116TIP3   OH227311   6.589   4.544   5.414  0.5875 -0.0149 -0.1030
 9116TIP3    H127312   6.495   4.541   5.433  0.5206  1.0043 -0.2185
 9116TIP3    H227313   6.597   4.507   5.326  0.1140  1.0619 -0.6282
 9117TIP3   OH227314   5.491   0.379   2.736 -0.1447 -0.6646 -0.5289
 9117TIP3    H127315   5.492   0.343   2.824  0.9232 -1.2590 -0.7683
 9117TIP3    H227316   5.444   0.462   2.745 -1.0178 -1.2251  0.3774
 9118TIP3   OH227317   1.296   5.792   3.509 -0.4087 -0.0642  0.2195
 9118TIP3    H127318   1.213   5.834   3.531  0.7929  1.3626  2.3453
 9118TIP3    H227319   1.279   5.750   3.424 -3.1669  0.4457  0.4075
 9119TIP3   OH227320   2.437   3.304   0.292 -0.3818 -0.5096 -0.6961
 9119TIP3    H127321   2.382   3.282   0.216  0.8799 -0.1876 -1.7347
 9119TIP3    H227322   2.435   3.400   0.296 -1.8655 -0.5576  0.7933
 9120TIP3   OH227323   0.553   4.566   3.993  0.4344 -0.8244  1.0553
 9120TIP3    H127324   0.512   4.597   4.073  0.2949  1.0767  0.3084
 9120TIP3    H227325   0.639   4.608   3.992  1.2193 -2.3398  1.1024
 9121TIP3   OH227326   4.589   0.753   4.440 -0.3680  0.0876  0.0493
 9121TIP3    H127327   4.546   0.784   4.360 -1.2358 -0.0283  0.4586
 9121TIP3    H227328   4.629   0.670   4.415  1.7665  1.3258 -0.9928
 9122TIP3   OH227329   4.833   5.832   3.512  0.0867 -0.5350 -0.0789
 9122TIP3    H127330   4.833   5.920   3.548 -1.8771  0.2688 -1.8363
 9122TIP3    H227331   4.891   5.838   3.435  1.8328 -1.4454  1.1021
 9123TIP3   OH227332   0.010   5.920   5.793  0.1942  0.4460  0.0208
 9123TIP3    H127333   0.092   5.920   5.745 -1.2986 -0.1353 -2.7065
 9123TIP3    H227334  -0.058   5.924   5.726 -2.0668  3.3535  2.1856
 9124TIP3   OH227335   4.768   1.174   4.490  0.0166 -0.1397  0.2631
 9124TIP3    H127336   4.751   1.131   4.407 -2.6051 -1.5885  1.4064
 9124TIP3    H227337   4.744   1.109   4.556 -0.9011  1.9204  2.1249
 9125TIP3   OH227338   2.767   2.869   1.939 -0.1013 -0.6901  0.0389
 9125TIP3    H127339   2.855   2.831   1.939 -0.3140 -1.1908 -0.4679
 9125TIP3    H227340   2.771   2.939   2.005  0.5974 -0.8837  0.2073
 9126TIP3   OH227341   0.061   2.276   4.011  0.0184 -0.2433 -0.3734
 9126TIP3    H127342  -0.029   2.283   4.043 -0.5365  0.8761 -2.0171
 9126TIP3    H227343   0.110   2.238   4.083 -1.3226  1.2466  1.4212
 9127TIP3   OH227344   4.816   2.690   0.635 -0.1656  0.1284  0.4728
 9127TIP3    H127345   4.791   2.779   0.614 -1.7530 -0.7566 -1.8417
 9127TIP3    H227346   4.762   2.666   0.711  0.5624  1.2077  1.3573
 9128TIP3   OH227347   7.018   3.210   4.600 -0.1497  0.2604  0.6575
 9128TIP3    H127348   6.958   3.191   4.672  0.7934 -0.2974  1.3099
 9128TIP3    H227349   6.964   3.202   4.522 -1.2835  1.2530  1.3062
 9129TIP3   OH227350   1.131   2.326   3.092 -0.2351 -0.1811 -0.2216
 9129TIP3    H127351   1.050   2.361   3.055 -1.0348 -1.8576 -0.1647
 9129TIP3    H227352   1.111   2.234   3.110  0.9592 -0.0620  1.9665
 9130TIP3   OH227353   1.703   4.795   5.543  0.2348  0.5955 -0.1185
 9130TIP3    H127354   1.659   4.806   5.458  1.9526  1.3690 -0.9522
 9130TIP3    H227355   1.718   4.884   5.574 -1.2075  0.3336  1.5093
 9131TIP3   OH227356   5.204   6.363   2.692 -0.1365 -0.3784 -0.0982
 9131TIP3    H127357   5.217   6.359   2.597 -1.3745 -0.0248 -0.2980
 9131TIP3    H227358   5.158   6.445   2.707 -0.9673 -0.9623  0.6742
 9132TIP3   OH227359   0.087   1.031   3.202  0.2241 -0.3713 -0.2289
 9132TIP3    H127360   0.141   1.104   3.234 -1.4454  0.0924  1.7415
 9132TIP3    H227361   0.104   0.960   3.263 -0.9606 -0.3892  0.1015
 9133TIP3   OH227362   2.336   0.294   3.062  0.4723  0.2061  0.1999
 9133TIP3    H127363   2.367   0.374   3.019  1.4982 -0.3475 -0.1191
 9133TIP3    H227364   2.262   0.323   3.117 -0.4682  1.0346 -1.4295
 9134TIP3   OH227365   7.123   1.995   4.350 -0.5710 -0.3517 -0.3105
 9134TIP3    H127366   7.178   2.030   4.279  0.5700  0.7983  1.0811
 9134TIP3    H227367   7.159   1.909   4.368 -0.3170 -0.2962 -0.5428
 9135TIP3   OH227368   1.289   6.318   5.291  0.3376 -0.1709  0.5758
 9135TIP3    H127369   1.259   6.350   5.376  0.0690  1.3762 -0.0668
 9135TIP3    H227370   1.384   6.326   5.295  0.4369 -1.4289  1.2151
 9136TIP3   OH227371   0.951   5.739   4.711  0.3581  0.1086 -0.3706
 9136TIP3    H127372   0.892   5.683   4.761  1.6689 -1.7070 -0.7491
 9136TIP3    H227373   0.942   5.826   4.751  0.0759 -0.8886  1.8651
 9137TIP3   OH227374   1.458   3.711   0.726 -0.8935  0.5930  0.6028
 9137TIP3    H127375   1.526   3.740   0.666 -0.6617 -0.1855  0.4800
 9137TIP3    H227376   1.433   3.790   0.775 -3.1007  1.9453 -2.3928
 9138TIP3   OH227377   2.982   6.343   4.619 -0.3233  0.2745 -0.0131
 9138TIP3    H127378   2.914   6.380   4.562  0.1613 -0.2418 -0.9608
 9138TIP3    H227379   3.039   6.417   4.638 -0.8536  0.5983  0.3651
 9139TIP3   OH227380   4.975   5.225   3.415  0.0547 -0.3434 -0.0904
 9139TIP3    H127381   5.037   5.195   3.482  0.5516  1.1715  0.1769
 9139TIP3    H227382   5.002   5.315   3.397 -2.0755  0.3778  0.0328
 9140TIP3   OH227383   4.035   5.096   0.603 -0.4016 -0.5967 -0.2989
 9140TIP3    H127384   4.064   5.093   0.512  1.5966  1.3604  0.1602
 9140TIP3    H227385   3.944   5.066   0.601 -0.2963 -0.9823 -2.8532
 9141TIP3   OH227386   0.539   6.669   0.013 -0.3284  0.1111  0.2159
 9141TIP3    H127387   0.635   6.664   0.011 -0.3503 -0.3346 -0.8845
 9141TIP3    H227388   0.515   6.644   0.102  0.6912  3.1604  1.4801
 9142TIP3   OH227389   6.617   2.609   3.118  0.4292  0.7621  0.0226
 9142TIP3    H127390   6.633   2.567   3.033 -0.7193  0.0173  0.1532
 9142TIP3    H227391   6.562   2.684   3.097  0.4148  0.7654  0.0735
 9143TIP3   OH227392   0.690   0.054  -0.014 -0.0428  0.2734 -0.0017
 9143TIP3    H127393   0.600   0.038  -0.044  0.5983 -0.9837 -1.3626
 9143TIP3    H227394   0.689   0.029   0.078 -1.1133  0.3822  0.0287
 9144TIP3   OH227395   5.138   2.197   0.662  0.3709  0.2197 -0.0924
 9144TIP3    H127396   5.108   2.286   0.643 -1.5246 -0.8293 -2.5900
 9144TIP3    H227397   5.084   2.169   0.736  1.6671  1.4171  1.3624
 9145TIP3   OH227398   6.208   1.269   2.102  0.5314  0.7385 -0.0258
 9145TIP3    H127399   6.237   1.328   2.171 -1.0080  1.4975  0.0123
 9145TIP3    H227400   6.277   1.273   2.036  0.3260  2.8412 -0.1655
 9146TIP3   OH227401   1.859   0.164   3.791  0.1342  0.8792  0.2642
 9146TIP3    H127402   1.789   0.114   3.750  1.0734  0.4586 -0.9060
 9146TIP3    H227403   1.939   0.127   3.754  1.0059  1.0626  1.8726
 9147TIP3   OH227404   6.778   3.181   0.872 -0.4372  0.0108  0.0499
 9147TIP3    H127405   6.706   3.125   0.901 -0.0257 -1.3321 -1.4080
 9147TIP3    H227406   6.856   3.126   0.880  0.6120  1.6770  2.3039
 9148TIP3   OH227407   1.745   1.101   0.469 -0.2961 -0.4182  0.3929
 9148TIP3    H127408   1.664   1.098   0.416  0.3018  1.3869 -0.6998
 9148TIP3    H227409   1.815   1.111   0.404  0.7006 -0.5696  1.4205
 9149TIP3   OH227410   6.836   0.823   5.080 -0.2232  0.6816  0.2192
 9149TIP3    H127411   6.756   0.851   5.123 -1.0594 -1.3550  0.1018
 9149TIP3    H227412   6.904   0.829   5.147 -1.1041 -0.4948  1.2565
 9150TIP3   OH227413   3.328   0.636   0.279 -0.0051  0.5551  0.0583
 9150TIP3    H127414   3.362   0.673   0.198  0.1734  1.0055  0.3372
 9150TIP3    H227415   3.355   0.544   0.277  0.0121  0.5682 -0.3824
 9151TIP3   OH227416   1.547   3.167   2.906  0.0858 -0.1184  0.3486
 9151TIP3    H127417   1.522   3.135   2.820  0.2163  1.0733 -0.1487
 9151TIP3    H227418   1.563   3.088   2.957 -2.0527 -0.9097 -0.0805
 9152TIP3   OH227419   4.433   3.934   5.321 -0.3307 -1.1112  0.0728
 9152TIP3    H127420   4.448   3.965   5.231  2.1899  0.5452  0.9564
 9152TIP3    H227421   4.504   3.872   5.336  0.9772  0.6724  1.7441
 9153TIP3   OH227422   1.963   4.707   3.794 -0.2635  0.4323 -0.5374
 9153TIP3    H127423   2.002   4.664   3.717  0.3396  0.4919 -0.2744
 9153TIP3    H227424   1.978   4.646   3.866 -1.0124  0.2867 -0.5002
 9154TIP3   OH227425   3.742   4.870   5.484 -0.3362  0.0518 -0.5271
 9154TIP3    H127426   3.729   4.959   5.518  1.2182  0.1101 -0.0343
 9154TIP3    H227427   3.834   4.866   5.460 -0.3089 -1.5297 -0.2732
 9155TIP3   OH227428   2.048   0.297   5.509 -0.4882 -0.3201  0.2355
 9155TIP3    H127429   2.058   0.218   5.562 -1.7650 -0.6918 -0.0372
 9155TIP3    H227430   2.076   0.271   5.421 -0.7518 -0.4281  0.1822
 9156TIP3   OH227431   2.190   0.396   2.403  0.6536  0.1573  0.5565
 9156TIP3    H127432   2.158   0.346   2.328 -0.7488  3.3814 -1.2131
 9156TIP3    H227433   2.251   0.459   2.366  1.6089  0.4534  2.4959
 9157TIP3   OH227434   4.111   6.477   1.992 -0.0230  0.2107  0.3470
 9157TIP3    H127435   4.135   6.538   2.062 -0.2887  0.9117 -0.1655
 9157TIP3    H227436   4.174   6.406   2.000  0.1887  0.4703  1.0590
 9158TIP3   OH227437   1.253   0.466   3.280 -0.2896  0.3281 -0.7677
 9158TIP3    H127438   1.308   0.474   3.202 -0.4706  1.6042 -0.7934
 9158TIP3    H227439   1.256   0.373   3.303  2.8593  0.5096 -0.0421
 9159TIP3   OH227440   0.547   3.752   0.317 -0.1389  0.3962  0.3845
 9159TIP3    H127441   0.474   3.812   0.330  0.2379  0.7860  0.7514
 9159TIP3    H227442   0.541   3.725   0.226 -1.1826 -0.1627  0.6034
 9160TIP3   OH227443   2.264   3.228   5.219  0.0106 -0.3198  0.5354
 9160TIP3    H127444   2.205   3.288   5.174  0.6286  1.7896  2.3458
 9160TIP3    H227445   2.206   3.168   5.266 -0.6703  0.4595  0.7106
 9161TIP3   OH227446   4.479   6.190   2.865 -0.3475 -0.1649 -0.2071
 9161TIP3    H127447   4.531   6.112   2.888 -0.0745 -0.2193 -0.9660
 9161TIP3    H227448   4.544   6.254   2.836 -0.6971 -0.2696 -1.2771
 9162TIP3   OH227449   2.028   2.186   1.740  0.4562  0.4859  0.8355
 9162TIP3    H127450   2.037   2.274   1.777  1.7879  0.2314  1.1818
 9162TIP3    H227451   1.995   2.133   1.813 -0.0432  0.6309  0.7171
 9163TIP3   OH227452   6.895   1.727   3.319 -0.1141  0.4615 -0.1515
 9163TIP3    H127453   6.990   1.711   3.321 -0.5087 -2.5840  1.4180
 9163TIP3    H227454   6.876   1.762   3.406 -0.1802  3.7224 -1.3738
 9164TIP3   OH227455   3.548   2.228   2.963  0.1982 -0.0064  0.0136
 9164TIP3    H127456   3.589   2.289   3.024 -1.2997  1.6596 -0.5600
 9164TIP3    H227457   3.493   2.283   2.907  0.5091 -1.6195 -2.0155
 9165TIP3   OH227458   1.277   6.354   4.279 -0.8677 -0.3083  0.1064
 9165TIP3    H127459   1.215   6.424   4.298 -1.3623 -0.8572  0.5205
 9165TIP3    H227460   1.249   6.320   4.194  0.3003  0.9897 -0.8654
 9166TIP3   OH227461   2.516   5.870   1.857 -0.4174 -0.0644  0.8886
 9166TIP3    H127462   2.510   5.827   1.943  0.3742  2.1931  2.1729
 9166TIP3    H227463   2.426   5.893   1.836 -0.3909  1.8620  2.5615
 9167TIP3   OH227464   3.425   0.618   2.255  0.0366 -0.2967 -0.0406
 9167TIP3    H127465   3.434   0.713   2.249 -1.0678 -0.1906 -0.2223
 9167TIP3    H227466   3.395   0.602   2.345  1.1076 -0.5592  0.2837
 9168TIP3   OH227467   5.878   3.265   4.158  0.1646  0.1709  0.1524
 9168TIP3    H127468   5.782   3.259   4.158  0.2073 -0.5925  0.2616
 9168TIP3    H227469   5.907   3.186   4.204  0.8540  0.3073 -0.0345
 9169TIP3   OH227470   7.175   2.013   4.919 -0.2328  0.1886 -0.3853
 9169TIP3    H127471   7.148   2.004   4.827 -0.5858  2.0975 -0.5064
 9169TIP3    H227472   7.231   2.090   4.920  1.0671 -0.7250  0.7768
 9170TIP3   OH227473   2.305   0.824   3.705  0.0756  0.3398  0.3032
 9170TIP3    H127474   2.269   0.828   3.616 -2.5241  2.4354  1.2879
 9170TIP3    H227475   2.377   0.887   3.704  1.2869 -0.9897 -0.7071
 9171TIP3   OH227476   7.174   2.598   1.767  0.3274 -0.3996 -0.3741
 9171TIP3    H127477   7.171   2.599   1.863  1.0776 -0.8652 -0.3362
 9171TIP3    H227478   7.103   2.656   1.740  0.0037 -0.3912  0.4634
 9172TIP3   OH227479   1.831   6.764   3.570  0.2530  0.4262  0.1890
 9172TIP3    H127480   1.845   6.715   3.490  0.3558  0.8947 -0.0827
 9172TIP3    H227481   1.746   6.806   3.558  1.3867  2.6019 -0.7997
 9173TIP3   OH227482   2.080   3.827   1.337  0.0965  0.2962  0.1644
 9173TIP3    H127483   2.021   3.902   1.327  0.0014  0.2131  0.0936
 9173TIP3    H227484   2.163   3.857   1.302  0.0591  0.3698  0.1383
 9174TIP3   OH227485   2.441   5.351   4.882  0.2374  0.0872 -0.2610
 9174TIP3    H127486   2.514   5.330   4.941  1.4505  1.5293 -1.1797
 9174TIP3    H227487   2.416   5.440   4.906 -0.5243 -0.0154 -0.6639
 9175TIP3   OH227488   4.383   4.184   5.722  0.1731 -0.2795 -0.2765
 9175TIP3    H127489   4.395   4.197   5.628 -0.2788  0.6496 -0.2193
 9175TIP3    H227490   4.430   4.257   5.762  0.4230 -0.7109  0.2313
 9176TIP3   OH227491   5.346   2.843   2.003  0.4293 -0.1051 -0.1045
 9176TIP3    H127492   5.436   2.853   2.032  0.0428 -0.0824  1.1190
 9176TIP3    H227493   5.293   2.852   2.082 -0.6343 -0.4199 -0.7508
 9177TIP3   OH227494   1.499   0.242   1.102  0.0443  0.0920 -0.5297
 9177TIP3    H127495   1.410   0.243   1.068  0.6135 -0.2733 -2.1244
 9177TIP3    H227496   1.548   0.300   1.043  1.0438 -0.4491 -0.2598
 9178TIP3   OH227497   4.687   1.417   5.256 -0.3153  0.1909  0.1950
 9178TIP3    H127498   4.656   1.368   5.180 -2.4578  1.2918  0.2579
 9178TIP3    H227499   4.706   1.351   5.321 -0.2135 -0.6884 -0.7037
 9179TIP3   OH227500   0.136   5.686   3.060  0.2517 -0.3369 -0.2755
 9179TIP3    H127501   0.152   5.773   3.096 -0.3087  1.0245 -3.0334
 9179TIP3    H227502   0.049   5.662   3.094 -0.1036  0.7235 -0.3751
 9180TIP3   OH227503   3.544   3.573   1.684 -0.3948 -0.2398  0.5127
 9180TIP3    H127504   3.626   3.554   1.730 -0.7007 -1.0731  0.7454
 9180TIP3    H227505   3.567   3.638   1.619  1.0535 -2.2652 -1.1480
 9181TIP3   OH227506   2.436   1.279   0.653 -0.2373  0.3063 -0.0320
 9181TIP3    H127507   2.428   1.194   0.610  1.8481 -0.4905  0.9974
 9181TIP3    H227508   2.503   1.265   0.720 -0.5729  2.5143  0.8412
 9182TIP3   OH227509   0.081   3.131   1.090  0.5234  0.0127  0.2927
 9182TIP3    H127510   0.020   3.168   1.026  0.6878  0.2371  0.2609
 9182TIP3    H227511   0.145   3.201   1.104  0.3815  0.0289  0.8431
 9183TIP3   OH227512   3.445   6.503   4.798 -0.6872 -0.6814  0.7393
 9183TIP3    H127513   3.368   6.447   4.805  0.9497 -3.0819  0.4742
 9183TIP3    H227514   3.519   6.443   4.794  1.1621  1.5009 -0.0963
 9184TIP3   OH227515   7.043   4.704   4.017  0.4211 -0.0859 -0.0843
 9184TIP3    H127516   7.098   4.665   3.949  2.1062 -0.7133  1.5312
 9184TIP3    H227517   7.018   4.789   3.982  2.9423  0.4875 -0.7211
 9185TIP3   OH227518   0.649   0.116   2.439  0.5866 -0.2568 -0.4343
 9185TIP3    H127519   0.683   0.122   2.350  0.3411  1.6659 -0.4416
 9185TIP3    H227520   0.611   0.202   2.456  0.2923 -0.7028  1.3960
 9186TIP3   OH227521   3.389   1.109   3.024  0.0828  0.1708  0.1389
 9186TIP3    H127522   3.401   1.031   2.971  1.9263  0.2535  0.3799
 9186TIP3    H227523   3.295   1.111   3.043 -0.5671 -0.1466 -2.6248
 9187TIP3   OH227524   5.763   4.662   0.060  0.3228 -0.1797  0.3272
 9187TIP3    H127525   5.670   4.667   0.079  0.6599 -1.0586  2.5408
 9187TIP3    H227526   5.771   4.596  -0.009 -0.7367  0.6060 -0.5719
 9188TIP3   OH227527   0.985   3.465   1.421 -0.0833 -0.4640  0.1301
 9188TIP3    H127528   0.950   3.551   1.444 -2.0067 -0.7940 -1.3692
 9188TIP3    H227529   1.043   3.482   1.347  0.7466 -0.3065  0.7896
 9189TIP3   OH227530   4.454   4.312   0.994 -0.0827 -0.0228  0.0189
 9189TIP3    H127531   4.508   4.310   1.073  0.7194 -0.5876 -0.5348
 9189TIP3    H227532   4.394   4.238   1.004 -2.3481  1.8655  1.6838
 9190TIP3   OH227533   0.033   6.722   2.338 -0.3179  0.0547 -0.2537
 9190TIP3    H127534  -0.026   6.780   2.385  0.2850  1.5419 -1.2566
 9190TIP3    H227535   0.000   6.722   2.248 -0.5614 -1.5422 -0.2006
 9191TIP3   OH227536   5.076   0.778   1.455 -0.0238  0.0763  0.3429
 9191TIP3    H127537   5.009   0.840   1.424 -1.1752 -0.4059  1.7467
 9191TIP3    H227538   5.156   0.805   1.411 -1.1780  0.5438 -1.5854
 9192TIP3   OH227539   6.470   5.747   2.428 -0.2461 -0.3869 -0.2334
 9192TIP3    H127540   6.395   5.726   2.373 -1.2089 -0.4156  1.0299
 9192TIP3    H227541   6.543   5.702   2.388 -1.2205 -1.6818 -0.6181
 9193TIP3   OH227542   0.734   1.597   4.178  0.3806  0.2359 -0.6408
 9193TIP3    H127543   0.787   1.665   4.136  1.8777 -0.9650 -0.7977
 9193TIP3    H227544   0.711   1.634   4.264  0.6365  1.1709 -0.9618
 9194TIP3   OH227545   3.608   2.626   2.035 -0.4066  0.0062 -0.3799
 9194TIP3    H127546   3.675   2.559   2.027  0.0469  0.4401 -0.3242
 9194TIP3    H227547   3.623   2.684   1.960 -0.2019  0.5500  0.0759
 9195TIP3   OH227548   4.540   1.983   0.583  0.2777  0.3819 -0.0222
 9195TIP3    H127549   4.459   2.033   0.597  0.2085  0.2532  0.0366
 9195TIP3    H227550   4.547   1.975   0.488 -0.5882 -0.9237 -0.0066
 9196TIP3   OH227551   1.194   6.602   1.740 -0.2247 -0.5436 -0.4405
 9196TIP3    H127552   1.121   6.616   1.800 -0.1791 -0.7214 -0.3427
 9196TIP3    H227553   1.266   6.573   1.796 -0.0734 -0.3468 -0.5346
 9197TIP3   OH227554   6.566   1.964   3.338  0.1123 -0.2258 -0.1627
 9197TIP3    H127555   6.555   2.058   3.323  0.2300 -0.2398 -0.3406
 9197TIP3    H227556   6.489   1.924   3.299 -0.8235 -0.0715  1.4448
 9198TIP3   OH227557   5.523   0.420   1.992 -0.4854 -0.1718 -0.6197
 9198TIP3    H127558   5.514   0.458   1.904  2.0756 -1.0223 -1.3466
 9198TIP3    H227559   5.509   0.326   1.979 -1.0423 -0.1908  0.0745
 9199TIP3   OH227560   4.919   2.865   5.676  0.4447  0.0831 -0.0185
 9199TIP3    H127561   4.858   2.898   5.742 -0.7342  0.8306 -1.4094
 9199TIP3    H227562   4.965   2.794   5.719  0.7404  1.4310  2.0652
 9200TIP3   OH227563   5.908   1.827   2.330 -0.4861  0.0027 -0.2760
 9200TIP3    H127564   5.948   1.745   2.301  0.1945  0.4790 -0.6973
 9200TIP3    H227565   5.883   1.810   2.421  0.8301 -0.2569  0.0584
 9201TIP3   OH227566   5.623   2.856   3.842  0.1191  0.3323 -0.0564
 9201TIP3    H127567   5.566   2.884   3.770  0.7604 -1.3853 -1.3006
 9201TIP3    H227568   5.661   2.938   3.875 -0.2964  1.1919 -1.5922
 9202TIP3   OH227569   6.867   0.943   1.836  0.9347 -0.3393  0.2152
 9202TIP3    H127570   6.805   0.993   1.890  0.5381 -0.0266 -0.5047
 9202TIP3    H227571   6.895   1.006   1.769  2.5441 -0.2793  0.9054
 9203TIP3   OH227572   6.986   4.532   2.507 -0.5505 -0.2946 -0.4448
 9203TIP3    H127573   6.935   4.592   2.563  0.3606 -0.7228  0.9073
 9203TIP3    H227574   6.968   4.561   2.418 -2.5085  0.0795  0.0280
 9204TIP3   OH227575   4.335   5.643   2.090 -0.3384  0.4349  0.3169
 9204TIP3    H127576   4.307   5.719   2.038 -0.1607 -0.4317 -1.1010
 9204TIP3    H227577   4.258   5.586   2.091 -0.5551  0.7252  1.5955
 9205TIP3   OH227578   2.440   2.487   2.894  0.3476  0.2265 -0.2140
 9205TIP3    H127579   2.373   2.424   2.867  0.5904  0.1957 -0.7504
 9205TIP3    H227580   2.514   2.433   2.922 -0.2577  0.2196  1.5461
 9206TIP3   OH227581   0.469   5.050   4.160  0.5323  0.3603  0.0230
 9206TIP3    H127582   0.532   5.085   4.096 -0.3848 -0.2987 -1.2833
 9206TIP3    H227583   0.449   5.125   4.216 -0.6568  1.7716 -2.1050
 9207TIP3   OH227584   2.513   4.595   3.179  0.4317 -0.4141 -0.0301
 9207TIP3    H127585   2.550   4.649   3.110  1.5637 -2.2481 -0.9509
 9207TIP3    H227586   2.526   4.645   3.259  0.1861  1.2318 -0.9808
 9208TIP3   OH227587   1.255   2.162   0.497  0.0561  0.1950  0.1549
 9208TIP3    H127588   1.241   2.180   0.590  2.5704  0.2858  0.5869
 9208TIP3    H227589   1.300   2.077   0.495  1.6799  1.0311 -0.8128
 9209TIP3   OH227590   2.046   5.312   5.116  0.3079  0.0224  0.1816
 9209TIP3    H127591   2.006   5.301   5.202 -0.5849  2.4941  0.1777
 9209TIP3    H227592   2.000   5.387   5.078  0.9748 -0.7199 -2.2834
 9210TIP3   OH227593   3.431   3.957   1.125  0.3214  0.2952  0.3587
 9210TIP3    H127594   3.502   3.981   1.066  0.2738 -0.9591 -0.2420
 9210TIP3    H227595   3.472   3.954   1.211  1.0392 -0.5334  0.0042
 9211TIP3   OH227596   3.215   1.030   3.989 -0.6622 -0.1955  0.0513
 9211TIP3    H127597   3.236   1.031   4.082  1.0504 -0.8496 -0.2938
 9211TIP3    H227598   3.226   1.121   3.961  2.8304 -0.5583 -0.2647
 9212TIP3   OH227599   6.072   2.831   0.305 -0.0220  0.2221  0.1753
 9212TIP3    H127600   6.001   2.870   0.254 -0.9027 -1.1829  0.2581
 9212TIP3    H227601   6.139   2.899   0.310 -1.6526  1.8634  0.7008
 9213TIP3   OH227602   0.758   4.849   0.201 -0.5142  0.2314 -0.6104
 9213TIP3    H127603   0.831   4.790   0.219 -0.6185  0.4616  0.6268
 9213TIP3    H227604   0.780   4.929   0.248 -1.9940 -0.0182  0.5822
 9214TIP3   OH227605   3.481   2.567   0.395 -0.3182 -0.0750 -0.5536
 9214TIP3    H127606   3.456   2.488   0.347  1.1774 -0.2124 -1.1484
 9214TIP3    H227607   3.413   2.576   0.462 -0.5560 -1.8343 -0.4971
 9215TIP3   OH227608   1.740   4.244   3.428  0.1788 -0.7320 -0.2847
 9215TIP3    H127609   1.778   4.324   3.466 -2.5136  0.8190 -0.5495
 9215TIP3    H227610   1.715   4.191   3.503  0.7525 -0.6903 -0.0633
 9216TIP3   OH227611   5.542   2.529   3.960 -0.4908  0.2973 -0.0158
 9216TIP3    H127612   5.526   2.548   3.868 -0.7659 -0.6822 -0.1834
 9216TIP3    H227613   5.638   2.520   3.967 -0.4648  0.4508 -0.1901
 9217TIP3   OH227614   6.867   2.393   2.442 -0.0949 -0.1766  0.1471
 9217TIP3    H127615   6.877   2.471   2.387 -2.5574 -0.4061 -0.7354
 9217TIP3    H227616   6.794   2.346   2.403  1.0011 -2.6993  0.9755
 9218TIP3   OH227617   3.941   4.976   4.574 -0.0083 -0.2118  0.3070
 9218TIP3    H127618   4.019   4.994   4.627  0.4463 -1.6772  0.1822
 9218TIP3    H227619   3.974   4.971   4.484 -0.3360 -0.3379  0.1927
 9219TIP3   OH227620   3.405   2.763   5.126  0.2572  0.5745  0.6106
 9219TIP3    H127621   3.324   2.742   5.172  0.5105  1.5983  1.5572
 9219TIP3    H227622   3.401   2.711   5.045 -0.2444 -1.2112  1.7131
 9220TIP3   OH227623   5.406   5.744   3.580  0.0821  0.4241  0.6653
 9220TIP3    H127624   5.359   5.816   3.622  0.4932  0.7697  0.5428
 9220TIP3    H227625   5.442   5.783   3.500  0.7974  0.2408  0.8903
 9221TIP3   OH227626   4.885   1.823   4.169 -0.1506  0.2825  0.1357
 9221TIP3    H127627   4.867   1.842   4.261  2.2272  1.7353  0.3727
 9221TIP3    H227628   4.822   1.878   4.120 -4.0146 -3.1592  0.6809
 9222TIP3   OH227629   0.229   0.031   1.090  0.1842  0.1910 -0.0908
 9222TIP3    H127630   0.294   0.101   1.086 -0.5912  1.2096  2.5867
 9222TIP3    H227631   0.149   0.074   1.120 -0.6937 -1.6069  0.2999
 9223TIP3   OH227632   1.994   0.456   1.812  0.3110 -0.2863 -0.0120
 9223TIP3    H127633   2.036   0.390   1.757 -0.8310 -0.6284 -0.5018
 9223TIP3    H227634   2.060   0.478   1.878  2.1966  0.9651 -2.1587
 9224TIP3   OH227635   2.417   3.360   2.277 -0.0720  0.0543 -0.3714
 9224TIP3    H127636   2.362   3.359   2.199  0.3657  1.8774 -0.7555
 9224TIP3    H227637   2.506   3.370   2.244  0.3154 -1.0283  0.3069
 9225TIP3   OH227638   1.863   4.465   3.205 -0.4767 -0.1496  0.6165
 9225TIP3    H127639   1.895   4.488   3.118  1.0073  0.6738  1.3562
 9225TIP3    H227640   1.767   4.472   3.197 -0.4367 -0.9808 -1.1666
 9226TIP3   OH227641   0.513   5.742   2.968 -0.0070  0.2475  0.0766
 9226TIP3    H127642   0.577   5.758   2.899 -1.2957  1.7539 -0.8323
 9226TIP3    H227643   0.430   5.731   2.922 -0.8386  0.9796  1.3489
 9227TIP3   OH227644   7.177   0.404   5.752  0.1809  0.9087 -0.2297
 9227TIP3    H127645   7.134   0.325   5.784 -0.4910  1.1986 -0.4006
 9227TIP3    H227646   7.212   0.445   5.830 -2.2041  2.0681  0.3350
 9228TIP3   OH227647   5.487   5.069   0.355 -0.0274  0.4618  0.1729
 9228TIP3    H127648   5.553   5.003   0.375  1.0630  1.2004 -0.8575
 9228TIP3    H227649   5.502   5.092   0.264 -0.7664  1.7117  0.3391
 9229TIP3   OH227650   1.504   1.444   3.587  0.5389 -0.0812 -0.0548
 9229TIP3    H127651   1.528   1.472   3.676 -0.7075 -0.6555  0.4781
 9229TIP3    H227652   1.411   1.465   3.579  0.3752 -1.0369 -0.8284
 9230TIP3   OH227653   1.726   3.029   3.750 -0.4231 -0.3167 -0.1997
 9230TIP3    H127654   1.706   2.950   3.700 -2.2385  0.5533 -0.9483
 9230TIP3    H227655   1.821   3.041   3.739  0.0994 -2.9147  0.8180
 9231TIP3   OH227656   3.103   3.081   1.948 -0.1565  0.2003  0.7645
 9231TIP3    H127657   3.121   3.150   1.883  0.7695 -0.1321  0.6471
 9231TIP3    H227658   3.076   3.129   2.026  2.4185  0.8871  1.3324
 9232TIP3   OH227659   5.639   5.593   4.717  0.6400 -0.2663 -0.1580
 9232TIP3    H127660   5.613   5.537   4.644 -1.0268  1.8886 -1.3332
 9232TIP3    H227661   5.722   5.556   4.747  0.9779 -1.7165 -2.6077
 9233TIP3   OH227662   3.127   0.223   0.710  0.6340 -0.4265 -0.0460
 9233TIP3    H127663   3.096   0.133   0.716  1.2292 -0.6474 -0.2479
 9233TIP3    H227664   3.210   0.224   0.758 -0.1768  0.4043  1.4348
 9234TIP3   OH227665   5.325   6.677   1.659  0.2249 -0.1543  0.4337
 9234TIP3    H127666   5.410   6.648   1.627 -0.9020 -1.5234 -1.5093
 9234TIP3    H227667   5.295   6.741   1.594 -0.2111  0.3867  1.1445
 9235TIP3   OH227668   0.949   5.383   5.367 -0.0421  0.1385  0.9619
 9235TIP3    H127669   0.964   5.444   5.295 -0.9651 -0.7557 -0.0332
 9235TIP3    H227670   0.863   5.345   5.349  0.7568 -1.9171  1.1498
 9236TIP3   OH227671   1.674   4.578   2.624 -0.1170  0.7235  0.2394
 9236TIP3    H127672   1.753   4.527   2.638  1.7111  3.0602 -0.7981
 9236TIP3    H227673   1.689   4.660   2.673 -0.9504  2.0641 -1.6150
 9237TIP3   OH227674   6.018   4.405   4.844 -0.1938 -0.0583  0.3412
 9237TIP3    H127675   6.082   4.360   4.788  0.0991  0.0174  0.6177
 9237TIP3    H227676   6.065   4.425   4.924  0.4026  2.8573 -0.6165
 9238TIP3   OH227677   0.415   0.223   1.052 -0.0944 -0.3797 -0.1933
 9238TIP3    H127678   0.490   0.203   0.995  0.5344  1.6996 -0.1823
 9238TIP3    H227679   0.373   0.298   1.010 -2.3771 -1.6324 -0.3236
 9239TIP3   OH227680   3.454   2.435   1.328  0.3165  0.2587  0.4630
 9239TIP3    H127681   3.544   2.427   1.357  0.3250 -0.9150  0.1859
 9239TIP3    H227682   3.417   2.348   1.342 -1.2080  1.0939  1.9635
 9240TIP3   OH227683   0.772   5.490   1.036 -0.2079  0.6134  0.5685
 9240TIP3    H127684   0.715   5.528   1.103 -1.9189 -0.1826 -0.3591
 9240TIP3    H227685   0.796   5.404   1.070 -0.7644  0.3651  0.3501
 9241TIP3   OH227686   6.667   2.340   0.793  0.6063 -0.1643  0.1355
 9241TIP3    H127687   6.655   2.282   0.869  0.0373 -0.0626  0.1327
 9241TIP3    H227688   6.638   2.426   0.825 -2.1492 -0.6062 -0.9155
 9242TIP3   OH227689   2.635   0.847   4.292  0.2022 -0.0484 -0.6312
 9242TIP3    H127690   2.603   0.931   4.326 -0.2735  0.0148 -1.2158
 9242TIP3    H227691   2.648   0.793   4.370  3.3952  1.4892  0.0677
 9243TIP3   OH227692   6.953   5.876   2.429  0.1309 -0.0060 -0.6853
 9243TIP3    H127693   7.040   5.836   2.433  0.1477  0.0433 -0.5595
 9243TIP3    H227694   6.908   5.843   2.506  0.0940  0.1009 -0.6618
 9244TIP3   OH227695   3.605   2.783   5.517 -0.1805 -0.3495 -0.0299
 9244TIP3    H127696   3.626   2.810   5.427  0.1693 -0.0066  0.1533
 9244TIP3    H227697   3.661   2.707   5.532 -0.2877 -0.4478 -0.1250
 9245TIP3   OH227698   4.211   5.689   5.109  0.3251  0.1272 -0.3574
 9245TIP3    H127699   4.218   5.727   5.196  2.5104  1.0906 -0.8910
 9245TIP3    H227700   4.273   5.616   5.109  0.2880  0.0871 -1.0740
 9246TIP3   OH227701   1.534   1.692   1.050  0.5994  0.3070 -0.4089
 9246TIP3    H127702   1.470   1.621   1.043  0.8768 -0.1266  1.0750
 9246TIP3    H227703   1.619   1.649   1.041  0.8385  0.1639  1.9518
 9247TIP3   OH227704   6.790   4.519   0.633  0.0584 -0.1337  0.1723
 9247TIP3    H127705   6.868   4.535   0.685  0.4960  0.4481 -0.6500
 9247TIP3    H227706   6.722   4.499   0.698  0.8256 -0.4251  0.9023
 9248TIP3   OH227707   5.595   1.205   2.978 -0.6725  0.6557  0.4539
 9248TIP3    H127708   5.551   1.152   2.912 -2.3714  0.2922  1.7841
 9248TIP3    H227709   5.687   1.205   2.953 -0.6049 -2.7780  0.2663
 9249TIP3   OH227710   0.436   4.358   4.959  0.0647  0.0289  0.3351
 9249TIP3    H127711   0.360   4.344   4.902  0.0375  0.4196  0.2741
 9249TIP3    H227712   0.483   4.431   4.919 -0.3828  0.8326  1.2521
 9250TIP3   OH227713   6.682   4.169   2.501 -0.0649  0.3470  0.8653
 9250TIP3    H127714   6.767   4.213   2.506 -0.1907  0.4480  3.6016
 9250TIP3    H227715   6.637   4.212   2.428  1.6477  1.2980  0.3047
 9251TIP3   OH227716   3.326   3.268   1.333  0.3669  0.2014 -0.2586
 9251TIP3    H127717   3.331   3.352   1.287  0.9643 -0.2801 -1.1194
 9251TIP3    H227718   3.331   3.202   1.263 -1.4562 -0.5578  0.2808
 9252TIP3   OH227719   4.009   1.091   0.106 -0.7130  0.2810 -0.7610
 9252TIP3    H127720   3.987   1.003   0.135  1.5743 -0.3882 -0.8948
 9252TIP3    H227721   4.046   1.134   0.183  2.7934 -0.5925 -1.7924
 9253TIP3   OH227722   5.600   6.029   3.132 -0.2407 -0.4869  0.0130
 9253TIP3    H127723   5.617   5.935   3.127  0.7497 -0.3902  1.1014
 9253TIP3    H227724   5.684   6.067   3.158 -0.4531  0.7825 -1.0244
 9254TIP3   OH227725   3.752   1.809   4.856 -0.1856  0.1831  0.1944
 9254TIP3    H127726   3.739   1.903   4.864  0.2279  0.4272 -1.5850
 9254TIP3    H227727   3.673   1.777   4.812  0.5010  0.0147 -0.9523
 9255TIP3   OH227728   2.926   2.059   5.871  0.3158 -0.2299 -0.5509
 9255TIP3    H127729   2.875   1.993   5.918  1.7234 -1.3529 -0.5280
 9255TIP3    H227730   2.867   2.134   5.865  0.3430  0.4350  3.9381
 9256TIP3   OH227731   3.391   1.799   4.077  0.1719  0.5352  0.2418
 9256TIP3    H127732   3.429   1.752   4.004 -0.8112 -0.9751  0.6629
 9256TIP3    H227733   3.297   1.803   4.058 -0.1639 -0.2612  1.5887
 9257TIP3   OH227734   1.095   4.260   2.130 -0.3815  0.2002  0.5855
 9257TIP3    H127735   1.165   4.212   2.085  0.8789  1.1475  1.4695
 9257TIP3    H227736   1.099   4.348   2.092 -0.0045  0.7086  1.7691
 9258TIP3   OH227737   1.820   0.770   4.678  0.1083  0.3643 -0.1116
 9258TIP3    H127738   1.914   0.753   4.673 -0.0538 -0.3886 -1.1117
 9258TIP3    H227739   1.801   0.820   4.599 -0.4703 -0.2959 -0.4072
 9259TIP3   OH227740   1.636   1.624   1.298  0.8193  0.1598  0.0634
 9259TIP3    H127741   1.689   1.649   1.222 -0.3947  0.8814 -0.5671
 9259TIP3    H227742   1.595   1.706   1.326  2.2571  0.1938  2.3342
 9260TIP3   OH227743   5.089   6.744   4.627 -0.8267  0.1965  0.5929
 9260TIP3    H127744   5.086   6.784   4.540  1.1765 -0.6619  0.0645
 9260TIP3    H227745   5.159   6.790   4.672  0.1522 -1.2992  0.6787
 9261TIP3   OH227746   0.403   5.047   5.866 -0.4289  0.5825  0.1515
 9261TIP3    H127747   0.360   5.021   5.785  0.8261  0.7532 -0.6031
 9261TIP3    H227748   0.463   4.975   5.886  1.1840  1.6737 -0.5462
 9262TIP3   OH227749   1.175   5.164   0.611  0.2110 -0.2328 -0.4502
 9262TIP3    H127750   1.155   5.135   0.522  1.8837 -2.4252 -0.2007
 9262TIP3    H227751   1.243   5.231   0.600 -1.2295  1.2025 -0.8855
 9263TIP3   OH227752   3.364   4.056   5.429  0.8603 -0.1294  0.1100
 9263TIP3    H127753   3.378   3.962   5.414 -0.2954  0.1102 -3.3836
 9263TIP3    H227754   3.273   4.063   5.457  1.2603 -0.0711  1.4783
 9264TIP3   OH227755   3.904   4.790   1.637  0.3692 -0.0153 -0.8934
 9264TIP3    H127756   3.862   4.876   1.631 -0.2809 -0.3474 -1.2467
 9264TIP3    H227757   3.923   4.766   1.546  0.9182 -0.0740 -0.7700
 9265TIP3   OH227758   6.514   5.945   0.504  0.6465  0.3118  0.2893
 9265TIP3    H127759   6.485   5.855   0.493  1.7896 -0.3468  2.3161
 9265TIP3    H227760   6.472   5.975   0.584  1.8098  0.9076  0.7016
 9266TIP3   OH227761   5.348   3.089   1.856  0.0757  0.4314 -0.0768
 9266TIP3    H127762   5.377   3.106   1.767 -0.2803  0.0215 -0.2760
 9266TIP3    H227763   5.351   2.993   1.864 -1.7424  0.3211 -0.3019
 9267TIP3   OH227764   1.944   0.928   2.037  0.0400  0.3366  0.0570
 9267TIP3    H127765   1.886   0.899   2.107 -0.5173 -0.5176 -0.7303
 9267TIP3    H227766   1.890   0.985   1.982 -0.1035 -0.4866 -0.6958
 9268TIP3   OH227767   6.282   5.971   2.988  0.1854  0.3604  0.2243
 9268TIP3    H127768   6.353   6.034   2.978 -0.3823  0.9629 -0.0872
 9268TIP3    H227769   6.204   6.024   3.006 -0.3389 -0.2296 -0.2340
 9269TIP3   OH227770   0.867   6.624   2.216  0.2862 -0.1656  0.1939
 9269TIP3    H127771   0.854   6.614   2.310  0.5605 -0.1138  0.2391
 9269TIP3    H227772   0.961   6.608   2.203 -0.4365 -5.5200 -0.7338
 9270TIP3   OH227773   0.395   1.307   3.549 -0.1551  0.1180  0.0238
 9270TIP3    H127774   0.424   1.217   3.532  1.6571  0.5401  0.5933
 9270TIP3    H227775   0.386   1.311   3.645  3.4513  1.4427  0.4739
 9271TIP3   OH227776   6.591   1.973   1.479 -0.5907  0.3752  0.4425
 9271TIP3    H127777   6.612   1.942   1.566  0.5484  0.0009  0.0502
 9271TIP3    H227778   6.676   1.991   1.438 -1.0633 -0.1224 -0.8245
 9272TIP3   OH227779   5.040   1.153   2.339 -0.1405  0.0721 -0.3005
 9272TIP3    H127780   5.119   1.112   2.376 -0.1130  0.7949  0.4581
 9272TIP3    H227781   4.967   1.108   2.381 -0.1097  0.7637  0.5320
 9273TIP3   OH227782   4.662   2.635   0.897  0.2818  0.0189 -0.2189
 9273TIP3    H127783   4.676   2.655   0.990 -0.2465  1.6732 -0.4606
 9273TIP3    H227784   4.611   2.555   0.898  2.0284 -1.1577  0.8521
 9274TIP3   OH227785   3.311   5.114   1.105 -0.3888 -0.2924 -0.0057
 9274TIP3    H127786   3.314   5.204   1.073  0.4021 -0.4927 -0.5377
 9274TIP3    H227787   3.283   5.062   1.029 -1.8317 -0.3865  0.5727
 9275TIP3   OH227788   2.474   3.578   3.640 -0.0633 -0.2939  0.0002
 9275TIP3    H127789   2.504   3.534   3.719 -1.6860 -0.0702  0.7824
 9275TIP3    H227790   2.504   3.522   3.568  1.4182 -0.5060  0.7485
 9276TIP3   OH227791   4.734   3.369   5.303 -0.0914 -0.3722  0.0331
 9276TIP3    H127792   4.680   3.385   5.226  0.3968 -1.4452 -0.5621
 9276TIP3    H227793   4.784   3.450   5.314  0.6464 -0.5792 -1.4795
 9277TIP3   OH227794   6.636   3.341   4.238  0.4746 -0.0152  0.0318
 9277TIP3    H127795   6.686   3.396   4.178 -0.2105  0.1761 -0.3697
 9277TIP3    H227796   6.551   3.329   4.196 -0.3611  0.9015  1.3751
 9278TIP3   OH227797   3.354   4.067   2.444  0.2303  0.3455 -0.2714
 9278TIP3    H127798   3.437   4.022   2.431  1.1564  1.9818 -0.2804
 9278TIP3    H227799   3.376   4.143   2.498 -1.5653 -0.0949  1.1823
 9279TIP3   OH227800   5.926   4.361   4.032  0.0607  0.0736  0.2567
 9279TIP3    H127801   5.937   4.327   4.121 -0.0192  0.7625  0.5348
 9279TIP3    H227802   5.891   4.287   3.983  1.3452 -0.7223  0.4770
 9280TIP3   OH227803   1.664   4.446   4.726  0.2567 -0.1185 -0.4984
 9280TIP3    H127804   1.737   4.412   4.674 -0.8364 -0.7508 -1.6726
 9280TIP3    H227805   1.669   4.397   4.808  0.9629 -0.3792 -0.6830
 9281TIP3   OH227806   0.188   2.972   0.441  0.4877 -0.2851  0.0087
 9281TIP3    H127807   0.270   3.013   0.467  0.1339 -0.0463  0.7940
 9281TIP3    H227808   0.137   2.968   0.522  1.2138 -4.0637  0.4869
 9282TIP3   OH227809   0.653   0.471   0.714  0.4069 -0.0836 -0.1752
 9282TIP3    H127810   0.603   0.396   0.747  0.1916  0.3944  0.6185
 9282TIP3    H227811   0.621   0.484   0.625  1.2998 -1.6737 -0.7916
 9283TIP3   OH227812   3.406   6.203   0.866  0.4563  0.1152  0.0288
 9283TIP3    H127813   3.370   6.120   0.835 -1.3936  0.7161  0.4661
 9283TIP3    H227814   3.377   6.209   0.957  0.2010  1.4425 -0.1268
 9284TIP3   OH227815   0.417   0.391   2.915 -0.0683 -0.3078 -0.3178
 9284TIP3    H127816   0.510   0.397   2.890  0.8565  0.8395  2.9151
 9284TIP3    H227817   0.388   0.482   2.920  0.0318 -0.3554  2.9940
 9285TIP3   OH227818   4.097   0.926   0.755 -0.8912 -0.4669  0.3200
 9285TIP3    H127819   4.022   0.876   0.722 -2.1867 -1.1061  3.7573
 9285TIP3    H227820   4.107   0.896   0.846  2.0544  1.3417  0.7110
 9286TIP3   OH227821   1.180   4.971   2.532 -0.2614 -0.3786  0.4333
 9286TIP3    H127822   1.246   4.903   2.542 -0.9325 -0.8153  2.2445
 9286TIP3    H227823   1.128   4.943   2.457  0.4943 -0.9822  0.1207
 9287TIP3   OH227824   5.896   5.275   5.530 -0.1152  0.2673  0.1652
 9287TIP3    H127825   5.860   5.364   5.526  0.6821  0.5843 -0.0560
 9287TIP3    H227826   5.852   5.229   5.458  0.0742  0.7064 -0.2334
 9288TIP3   OH227827   5.131   6.237   3.541 -0.1378 -0.1437 -0.5470
 9288TIP3    H127828   5.225   6.258   3.545  0.0480 -1.1464  1.1062
 9288TIP3    H227829   5.091   6.296   3.604 -0.7329  0.6063 -1.5825
 9289TIP3   OH227830   5.318   0.912   0.084 -0.4650  0.5869  0.7469
 9289TIP3    H127831   5.336   0.910  -0.011 -0.1879 -1.9735  0.7822
 9289TIP3    H227832   5.228   0.944   0.091 -1.0974 -0.7955 -0.5322
 9290TIP3   OH227833   6.385   4.272   0.686  0.0341  0.1842  0.1590
 9290TIP3    H127834   6.292   4.262   0.707  0.2905 -0.0926  1.2749
 9290TIP3    H227835   6.387   4.299   0.595 -1.1577  0.4879  0.2065
 9291TIP3   OH227836   5.844   0.302   3.561 -0.1018 -0.2354 -0.1058
 9291TIP3    H127837   5.788   0.256   3.623  1.2849 -2.5957 -0.4933
 9291TIP3    H227838   5.925   0.320   3.609 -0.7891  2.5085  0.2284
 9292TIP3   OH227839   5.612   2.281   3.651  0.0755 -0.0115 -0.1984
 9292TIP3    H127840   5.628   2.375   3.659 -0.4665  0.1052 -0.4001
 9292TIP3    H227841   5.699   2.241   3.649  0.3624  0.6143 -1.6598
 9293TIP3   OH227842   2.271   0.374   5.085  0.2332  0.0660  0.6401
 9293TIP3    H127843   2.287   0.457   5.040 -0.5674  0.9143  1.8461
 9293TIP3    H227844   2.284   0.307   5.018 -3.2382  1.3386 -1.6088
 9294TIP3   OH227845   6.937   0.498   1.762 -0.5792 -0.0312  0.5152
 9294TIP3    H127846   6.942   0.591   1.783  0.0998  0.3025 -1.0050
 9294TIP3    H227847   6.852   0.471   1.798  0.0898  0.6666  2.7476
 9295TIP3   OH227848   3.430   2.552   5.376  0.4576  0.1412 -0.3901
 9295TIP3    H127849   3.370   2.587   5.441  0.5863  0.1591 -0.2815
 9295TIP3    H227850   3.440   2.623   5.312 -0.1001 -0.0753 -0.7234
 9296TIP3   OH227851   3.310   3.072   1.546  0.6746 -0.1656 -0.3501
 9296TIP3    H127852   3.224   3.031   1.537  0.6481 -0.2933  0.4422
 9296TIP3    H227853   3.304   3.152   1.493 -0.1630  0.1865  0.2554
 9297TIP3   OH227854   5.155   6.796   4.006  0.1416 -0.2331  0.1496
 9297TIP3    H127855   5.073   6.821   4.048 -0.6094 -0.1951 -1.2711
 9297TIP3    H227856   5.161   6.701   4.019 -0.9469 -0.4916 -1.0779
 9298TIP3   OH227857   2.281   2.397   1.843  0.1947  0.0126 -0.1922
 9298TIP3    H127858   2.373   2.419   1.858  0.0260  0.3471  0.4122
 9298TIP3    H227859   2.255   2.453   1.769  0.3770  0.1984 -0.1174
 9299TIP3   OH227860   2.709   2.580   5.808  0.2088  0.0303 -0.4418
 9299TIP3    H127861   2.727   2.568   5.715 -0.4663 -2.1070 -0.3576
 9299TIP3    H227862   2.613   2.582   5.814  0.2423 -0.2425  0.2422
 9300TIP3   OH227863   1.145   6.669   2.209 -0.2405  0.1095 -0.3940
 9300TIP3    H127864   1.206   6.695   2.277 -0.1843 -1.4608  0.2132
 9300TIP3    H227865   1.117   6.751   2.168 -0.3618  1.1263  1.5847
 9301TIP3   OH227866   4.537   1.246   4.225 -0.5556 -0.1966 -0.6144
 9301TIP3    H127867   4.626   1.212   4.232  0.1243  0.7927 -3.2809
 9301TIP3    H227868   4.544   1.337   4.252 -0.9075 -0.2751 -0.2439
 9302TIP3   OH227869   4.102   4.012   1.533  0.5381 -0.1968  0.3146
 9302TIP3    H127870   4.016   3.973   1.552  0.3875  0.6920  1.5678
 9302TIP3    H227871   4.096   4.101   1.569  2.2223 -0.3609  1.0888
 9303TIP3   OH227872   0.680   1.601   0.506 -0.0140 -0.5223  0.3497
 9303TIP3    H127873   0.699   1.636   0.419 -1.1053 -1.9469 -0.4968
 9303TIP3    H227874   0.588   1.624   0.521 -0.2167 -1.4299  0.5474
 9304TIP3   OH227875   2.572   0.462   2.141  1.1070  0.9021  0.6140
 9304TIP3    H127876   2.626   0.519   2.087  1.5762  0.0581  0.1714
 9304TIP3    H227877   2.552   0.514   2.219  2.5988  1.2153  0.8134
 9305TIP3   OH227878   2.250   1.748   0.549 -0.4316  0.6118  0.2365
 9305TIP3    H127879   2.212   1.665   0.520 -0.5031  1.1860 -1.3743
 9305TIP3    H227880   2.272   1.732   0.641  0.1112 -1.3952 -0.1783
 9306TIP3   OH227881   0.739   2.713   0.726  0.1447 -0.3941  0.1867
 9306TIP3    H127882   0.721   2.647   0.793  1.0928 -0.0670  0.7901
 9306TIP3    H227883   0.654   2.732   0.687 -0.3382 -0.9876  0.9313
 9307TIP3   OH227884   1.312   6.599   5.635  0.0710  0.2412  0.3653
 9307TIP3    H127885   1.344   6.649   5.561 -0.8091 -1.3827 -1.1941
 9307TIP3    H227886   1.277   6.519   5.597  0.8728 -1.3263  2.6692
 9308TIP3   OH227887   5.886   0.108   4.824  0.2058 -0.5282  0.6967
 9308TIP3    H127888   5.851   0.038   4.880 -0.4743  0.9746  2.2568
 9308TIP3    H227889   5.857   0.189   4.866  1.0308  0.7158 -0.9995
 9309TIP3   OH227890   4.146   3.763   4.896 -0.7285 -0.4034 -0.4150
 9309TIP3    H127891   4.216   3.803   4.949 -0.9029  0.2840 -0.7003
 9309TIP3    H227892   4.089   3.836   4.872 -0.6023 -0.6900 -1.6390
 9310TIP3   OH227893   5.796   2.240   5.313 -0.1737  0.7929 -0.2764
 9310TIP3    H127894   5.867   2.186   5.278 -0.5867  0.0665 -0.0076
 9310TIP3    H227895   5.835   2.288   5.385 -0.4889 -1.3807  1.4471
 9311TIP3   OH227896   4.372   5.760   3.940 -0.0869  0.5402 -0.4285
 9311TIP3    H127897   4.333   5.672   3.938  0.5384  0.2592 -2.1513
 9311TIP3    H227898   4.297   5.818   3.951 -0.5830 -0.1729  0.0816
 9312TIP3   OH227899   1.400   1.378   4.265  0.2843  0.0065 -0.4217
 9312TIP3    H127900   1.346   1.336   4.197 -2.2338 -0.8547  1.9433
 9312TIP3    H227901   1.450   1.306   4.304 -0.9839 -0.1763  0.9450
 9313TIP3   OH227902   2.605   3.243   1.985  0.0220 -0.1513 -0.0724
 9313TIP3    H127903   2.637   3.163   2.026 -0.0195  0.0852  0.4268
 9313TIP3    H227904   2.517   3.257   2.023 -0.0009  0.0881 -0.2077
 9314TIP3   OH227905   3.847   0.037   1.075  0.3906 -0.3458  0.0954
 9314TIP3    H127906   3.940   0.056   1.083  0.4227 -0.6584  0.4620
 9314TIP3    H227907   3.811   0.051   1.163  0.3414 -1.5598  0.2883
 9315TIP3   OH227908   0.838   1.108   4.026 -0.6311  0.0000  0.4700
 9315TIP3    H127909   0.834   1.090   3.932  0.8558  0.3211  0.3313
 9315TIP3    H227910   0.785   1.187   4.037 -0.3718  0.2753 -0.1890
 9316TIP3   OH227911   2.886   3.309   3.045 -0.0792 -0.4707  0.5494
 9316TIP3    H127912   2.975   3.340   3.060  0.6995 -0.7010 -2.8212
 9316TIP3    H227913   2.889   3.216   3.068  1.2323 -1.0074 -1.5658
 9317TIP3   OH227914   2.655   5.476   3.667  0.1625 -0.4184 -0.3465
 9317TIP3    H127915   2.727   5.533   3.694 -0.0536 -0.3353  0.0551
 9317TIP3    H227916   2.637   5.422   3.744  0.4371 -1.1049 -0.7573
 9318TIP3   OH227917   5.351   0.350   5.878  0.0916  0.0284 -0.7099
 9318TIP3    H127918   5.300   0.368   5.798  1.8753  0.7364 -1.7527
 9318TIP3    H227919   5.371   0.436   5.914 -1.1384 -0.2937  0.8559
 9319TIP3   OH227920   5.234   5.043   0.225 -0.2645  0.1518 -0.2401
 9319TIP3    H127921   5.253   5.054   0.318 -0.1571  2.1969 -0.4476
 9319TIP3    H227922   5.148   5.002   0.223  0.1989 -0.9130  0.7473
 9320TIP3   OH227923   1.356   3.784   4.389  0.2948  0.4653  0.4294
 9320TIP3    H127924   1.447   3.770   4.415 -0.0808 -2.0694  0.6967
 9320TIP3    H227925   1.361   3.824   4.303  1.6293  1.1366  0.7866
 9321TIP3   OH227926   6.156   3.645   5.506  0.0839 -0.2629  0.5747
 9321TIP3    H127927   6.138   3.622   5.597  0.5814 -0.4532  0.6290
 9321TIP3    H227928   6.189   3.735   5.510 -1.7361  0.4541  0.3753
 9322TIP3   OH227929   5.536   4.514   2.711 -0.0013  0.0440 -0.2694
 9322TIP3    H127930   5.499   4.440   2.664  1.0948 -0.6769 -0.0506
 9322TIP3    H227931   5.465   4.546   2.766 -0.7542 -0.2618 -1.0493
 9323TIP3   OH227932   2.194   5.107   4.510  0.1088 -0.8191 -0.1650
 9323TIP3    H127933   2.229   5.193   4.491  1.0494 -1.3267 -0.8164
 9323TIP3    H227934   2.101   5.113   4.486  0.4869 -0.4007 -1.5994
 9324TIP3   OH227935   6.399   0.404   4.849  0.3451 -0.5426 -0.1125
 9324TIP3    H127936   6.330   0.339   4.859 -0.2800 -0.1386 -1.6009
 9324TIP3    H227937   6.365   0.482   4.893 -0.5854 -0.0516 -1.6509
 9325TIP3   OH227938   0.399   3.883   3.632  0.5025 -0.4770 -0.3252
 9325TIP3    H127939   0.461   3.811   3.639 -2.4710 -3.2966 -0.6502
 9325TIP3    H227940   0.378   3.906   3.722  2.6018  1.2342 -0.1785
 9326TIP3   OH227941   2.334   6.426   1.903 -0.6476  0.1342  0.8402
 9326TIP3    H127942   2.396   6.365   1.862 -0.4032  1.3439 -0.6798
 9326TIP3    H227943   2.390   6.485   1.954 -0.8785 -0.7781  2.2372
 9327TIP3   OH227944   2.213   1.184   1.385  0.2780  0.1923  0.7428
 9327TIP3    H127945   2.206   1.273   1.421 -0.4565  0.6317 -0.4248
 9327TIP3    H227946   2.232   1.198   1.292  0.1469 -0.8830  0.5458
 9328TIP3   OH227947   7.112   3.246   5.351  0.4129  0.1868 -0.2235
 9328TIP3    H127948   7.199   3.267   5.318  0.2705  0.0166 -0.7165
 9328TIP3    H227949   7.115   3.267   5.444  0.7967  0.7488 -0.3641
 9329TIP3   OH227950   2.287   0.786   2.617 -0.0385  0.9562 -0.1787
 9329TIP3    H127951   2.341   0.793   2.538  0.2856  0.0498 -0.0571
 9329TIP3    H227952   2.347   0.810   2.688  0.6337 -1.2360  0.0857
 9330TIP3   OH227953   5.919   5.267   3.570  0.1394 -0.5134 -1.1523
 9330TIP3    H127954   5.999   5.227   3.604 -0.4818 -0.8581 -0.0549
 9330TIP3    H227955   5.935   5.276   3.476  1.4873 -0.5163 -0.9416
 9331TIP3   OH227956   6.006   2.623   0.483 -0.3980  0.2460  0.3948
 9331TIP3    H127957   6.032   2.702   0.437 -0.5007  0.9444  1.4871
 9331TIP3    H227958   6.068   2.616   0.556 -1.3748  0.2483  1.2582
 9332TIP3   OH227959   5.479   1.754   0.562  0.3665 -0.3521 -0.4707
 9332TIP3    H127960   5.479   1.738   0.657  0.9574 -1.8752 -0.6994
 9332TIP3    H227961   5.441   1.841   0.553 -1.0152 -0.7436  1.0641
 9333TIP3   OH227962   7.193   2.442   1.283  0.2193  0.0841  0.3017
 9333TIP3    H127963   7.124   2.392   1.328 -0.1887 -1.3041 -1.7572
 9333TIP3    H227964   7.145   2.506   1.230  0.5645 -0.0111 -0.1302
 9334TIP3   OH227965   4.493   2.702   2.760  0.5649  0.4977 -0.0744
 9334TIP3    H127966   4.536   2.639   2.817  1.0720 -0.1332 -1.1194
 9334TIP3    H227967   4.520   2.788   2.794  2.2811  0.1150 -0.4119
 9335TIP3   OH227968   5.078   3.702   4.639 -0.0159 -0.2299  0.5539
 9335TIP3    H127969   5.078   3.796   4.623 -0.6583 -0.1498  0.9956
 9335TIP3    H227970   5.071   3.663   4.552 -0.7571  0.1517  0.4355
 9336TIP3   OH227971   1.060   3.681   3.200  0.5043  0.2944 -0.0124
 9336TIP3    H127972   1.026   3.640   3.120 -0.3544  0.1033  0.4300
 9336TIP3    H227973   0.990   3.668   3.264  1.1209  0.5745  0.7301
 9337TIP3   OH227974   3.522   3.409   5.048 -0.7095  0.3116 -0.1093
 9337TIP3    H127975   3.606   3.441   5.080 -0.4798  1.1395 -1.4556
 9337TIP3    H227976   3.467   3.487   5.044 -1.6883 -0.2916  1.1415
 9338TIP3   OH227977   1.994   4.398   4.765 -0.0115 -0.1177 -0.5013
 9338TIP3    H127978   2.026   4.307   4.769 -1.1815 -0.5089  1.7285
 9338TIP3    H227979   1.933   4.398   4.692  0.0802 -1.0946 -0.6044
 9339TIP3   OH227980   1.689   1.617   4.135  0.0645  0.1995 -0.3322
 9339TIP3    H127981   1.770   1.658   4.104 -0.6445  0.1176 -2.4956
 9339TIP3    H227982   1.622   1.648   4.075 -1.4930  0.0683  1.2635
 9340TIP3   OH227983   3.978   0.033   0.594  0.4917 -0.1601  0.0663
 9340TIP3    H127984   3.973   0.041   0.499 -1.3442 -2.0229 -0.0501
 9340TIP3    H227985   3.961  -0.059   0.612  1.8592 -0.0729  2.1811
 9341TIP3   OH227986   6.077   3.247   1.631 -0.4055 -0.0312 -0.0884
 9341TIP3    H127987   5.990   3.218   1.660 -0.4967  1.1137  0.8673
 9341TIP3    H227988   6.063   3.336   1.599  0.3037 -0.0899 -0.5810
 9342TIP3   OH227989   2.108   1.584   1.360 -0.5357  0.1002 -0.6402
 9342TIP3    H127990   2.119   1.608   1.268  0.2329 -1.5500 -1.0249
 9342TIP3    H227991   2.041   1.515   1.358  1.7661 -2.2763 -0.4279
 9343TIP3   OH227992   5.079   1.869   3.543  0.3534  0.1923  0.0932
 9343TIP3    H127993   5.119   1.956   3.535 -0.2534  0.3458 -1.8163
 9343TIP3    H227994   5.141   1.818   3.594  0.9323  1.6201  0.8662
 9344TIP3   OH227995   2.184   4.458   0.651 -0.7376  0.5485  0.0764
 9344TIP3    H127996   2.170   4.445   0.745  1.0050 -0.5914  0.2270
 9344TIP3    H227997   2.194   4.552   0.641 -1.7088  0.7601  0.8932
 9345TIP3   OH227998   0.693   1.883   1.374  0.0077  0.3319 -0.5262
 9345TIP3    H127999   0.733   1.804   1.336  0.4522  0.7479 -0.9328
 9345TIP3    H228000   0.632   1.849   1.440 -1.2483 -0.4510 -2.0135
 9346TIP3   OH228001   0.112   5.650   4.619 -0.0631 -0.2542 -0.5061
 9346TIP3    H128002   0.087   5.568   4.661 -0.5947  0.6652  1.0461
 9346TIP3    H228003   0.080   5.642   4.529 -0.8476 -1.4068 -0.1400
 9347TIP3   OH228004   6.392   2.370   3.099  0.0647 -0.5102  0.2114
 9347TIP3    H128005   6.354   2.391   3.014  2.8509  0.5037 -0.9181
 9347TIP3    H228006   6.345   2.426   3.161  0.3522  1.4566 -1.2442
 9348TIP3   OH228007   0.408   0.962   1.982  0.0393 -0.1757 -0.7488
 9348TIP3    H128008   0.465   0.901   1.936  0.0271 -1.3509  0.6955
 9348TIP3    H228009   0.333   0.909   2.010 -0.6083  0.7950 -0.5560
 9349TIP3   OH228010   3.746   4.095   1.491 -0.0533  0.3996  0.3848
 9349TIP3    H128011   3.720   4.166   1.551 -2.6409  0.5901 -0.8227
 9349TIP3    H228012   3.827   4.127   1.451 -0.8636  2.4715  0.2628
 9350TIP3   OH228013   1.256   1.639   0.000 -0.1212  0.0485  0.0689
 9350TIP3    H128014   1.263   1.575   0.072 -1.1655  2.4519  2.4823
 9350TIP3    H228015   1.204   1.594  -0.067 -0.0018 -1.9497  1.2286
 9351TIP3   OH228016   6.706   3.584   5.786  0.6024  0.0031  0.2522
 9351TIP3    H128017   6.648   3.542   5.722 -1.0300 -0.0589  1.6866
 9351TIP3    H228018   6.690   3.678   5.773 -0.8638 -0.0341  1.4856
 9352TIP3   OH228019   5.285   5.130   5.786  0.7208 -0.1553 -0.0372
 9352TIP3    H128020   5.194   5.162   5.784  0.3586 -0.8890  1.9603
 9352TIP3    H228021   5.276   5.035   5.774  1.2446 -0.2036 -0.0329
 9353TIP3   OH228022   7.142   6.700   1.015  0.4722 -0.8173  0.2909
 9353TIP3    H128023   7.163   6.726   0.925  1.5550 -1.3353  0.3816
 9353TIP3    H228024   7.074   6.762   1.042 -0.9828 -1.5804 -1.3877
 9354TIP3   OH228025   0.836   0.819   3.650  0.2615 -0.1650  0.3437
 9354TIP3    H128026   0.923   0.809   3.689  0.5060 -0.1302 -0.1817
 9354TIP3    H228027   0.851   0.808   3.556 -0.4468 -1.1095  0.3231
 9355TIP3   OH228028   5.239   5.751   0.198 -0.1816 -0.1490  0.3612
 9355TIP3    H128029   5.176   5.694   0.156  0.0406 -0.0263 -0.1454
 9355TIP3    H228030   5.223   5.740   0.292 -0.3330 -0.8167  0.2588
 9356TIP3   OH228031   4.333   1.137   1.725  0.2943 -0.5013  0.3813
 9356TIP3    H128032   4.299   1.211   1.676  1.0767  0.6448  1.5208
 9356TIP3    H228033   4.259   1.105   1.776  0.7446  1.9632  2.8345
 9357TIP3   OH228034   3.431   0.770   5.768  0.5884 -0.4631  0.2350
 9357TIP3    H128035   3.455   0.823   5.844  0.8414 -0.7546  0.3613
 9357TIP3    H228036   3.453   0.824   5.693  1.0639 -0.4778  0.3592
 9358TIP3   OH228037   5.924   2.488   2.441  0.1363  0.3495 -0.1827
 9358TIP3    H128038   5.830   2.493   2.453 -0.1405 -1.8379 -1.0214
 9358TIP3    H228039   5.944   2.556   2.376 -0.6677  1.5365  0.7792
 9359TIP3   OH228040   2.316   4.291   1.106 -0.1809 -0.3577 -0.4483
 9359TIP3    H128041   2.231   4.332   1.119  0.9082  1.1999  2.6399
 9359TIP3    H228042   2.362   4.349   1.046 -1.5076 -1.7884 -3.0658
 9360TIP3   OH228043   4.535   0.091   2.377  0.3671 -0.3609 -0.3869
 9360TIP3    H128044   4.468   0.140   2.329 -2.7320 -1.1312  2.6857
 9360TIP3    H228045   4.559   0.148   2.450  2.0755 -0.7026 -0.6365
 9361TIP3   OH228046   3.672   3.652   0.549  0.3207  0.4182  0.6311
 9361TIP3    H128047   3.714   3.736   0.534 -0.4763  1.0360  1.7276
 9361TIP3    H228048   3.599   3.650   0.487  0.7057  0.2472  0.1740
 9362TIP3   OH228049   3.023   0.274   3.607  0.7843 -0.0263 -0.3301
 9362TIP3    H128050   3.007   0.345   3.669  1.3599  0.2298 -0.4664
 9362TIP3    H228051   3.105   0.233   3.638  0.0843 -1.1105  0.1826
 9363TIP3   OH228052   5.207   4.068   1.427  0.8457 -0.6638 -0.3481
 9363TIP3    H128053   5.290   4.065   1.379  2.0919 -0.6694  1.6595
 9363TIP3    H228054   5.220   4.007   1.500 -1.2503 -1.2793 -0.4128
 9364TIP3   OH228055   2.408   2.645   2.513  0.1575 -0.1020  0.1431
 9364TIP3    H128056   2.444   2.651   2.424  0.3043 -1.5436  0.0893
 9364TIP3    H228057   2.356   2.565   2.513 -3.1217  1.8515  0.2266
 9365TIP3   OH228058   6.913   6.461   3.473 -0.0406  0.0672  0.5005
 9365TIP3    H128059   6.876   6.380   3.508  1.7705 -0.7770  0.5691
 9365TIP3    H228060   6.933   6.441   3.382 -0.1590  0.6590  0.3386
 9366TIP3   OH228061   6.925   5.352   0.678  0.3559  0.1191  0.1303
 9366TIP3    H128062   7.014   5.350   0.713  0.2461 -2.7117  0.4468
 9366TIP3    H228063   6.870   5.326   0.752 -0.4209 -0.8725 -0.7640
 9367TIP3   OH228064   5.111   4.327   4.771  0.3855  0.0844 -0.3448
 9367TIP3    H128065   5.078   4.417   4.772 -0.5557 -0.2430  0.6768
 9367TIP3    H228066   5.060   4.284   4.703  0.3990  0.1614 -0.4048
 9368TIP3   OH228067   3.607   5.301   5.138 -0.1760 -0.4515  0.1655
 9368TIP3    H128068   3.674   5.281   5.203 -0.1795 -2.7883 -0.4790
 9368TIP3    H228069   3.616   5.234   5.071  1.1652  2.9545 -3.4617
 9369TIP3   OH228070   3.031   0.048   4.187  0.1561  0.4383  0.7277
 9369TIP3    H128071   2.954   0.029   4.134 -0.2540  2.7052  0.4488
 9369TIP3    H228072   3.057  -0.038   4.222 -2.0042 -0.5009  0.2047
 9370TIP3   OH228073   4.900   2.395   3.408 -0.3652  0.5211  0.1990
 9370TIP3    H128074   4.912   2.317   3.353 -1.6561  0.1053  0.4900
 9370TIP3    H228075   4.922   2.468   3.350  1.7335 -0.0488  0.1703
 9371TIP3   OH228076   2.317   2.972   1.428 -0.3986  0.0068  0.3178
 9371TIP3    H128077   2.272   3.021   1.497  1.4642 -0.2469  1.7846
 9371TIP3    H228078   2.312   3.029   1.351 -0.7855  1.2052  1.2012
 9372TIP3   OH228079   2.041   1.513   5.722  0.0367  0.0817  0.1895
 9372TIP3    H128080   2.122   1.464   5.738 -0.3048 -0.0743  1.6466
 9372TIP3    H228081   1.972   1.447   5.724 -0.1874  0.2960 -0.4045
 9373TIP3   OH228082   1.227   1.861   5.314 -0.2306  0.9672  0.0111
 9373TIP3    H128083   1.293   1.916   5.273 -0.7823  0.0974 -2.1651
 9373TIP3    H228084   1.155   1.856   5.251 -0.6315 -1.3918  0.5215
 9374TIP3   OH228085   0.417   6.094   5.811  0.4029  0.0172 -0.0146
 9374TIP3    H128086   0.401   6.128   5.899  0.0616 -2.1583  0.8181
 9374TIP3    H228087   0.491   6.034   5.821 -0.2302 -0.9771 -0.9986
 9375TIP3   OH228088   0.871   2.502   1.915  0.5581  0.0198 -0.6471
 9375TIP3    H128089   0.937   2.545   1.861  0.5043 -0.9479 -1.5135
 9375TIP3    H228090   0.902   2.515   2.005  0.4126  2.0242 -0.8549
 9376TIP3   OH228091   0.325   5.884   5.100 -0.2663 -0.4983  0.0143
 9376TIP3    H128092   0.404   5.852   5.057 -1.2176 -2.1680 -0.6081
 9376TIP3    H228093   0.325   5.843   5.186  0.8322  1.5931  1.0790
 9377TIP3   OH228094   2.717   3.753   0.886  0.4323  0.1608  0.1138
 9377TIP3    H128095   2.749   3.665   0.906  0.3673  0.7699  3.4321
 9377TIP3    H228096   2.624   3.741   0.869  0.8006 -0.6021 -1.6546
 9378TIP3   OH228097   3.202   2.291   3.835  0.1496  0.0810 -0.3919
 9378TIP3    H128098   3.162   2.212   3.799  0.0932 -0.0841  0.0228
 9378TIP3    H228099   3.189   2.283   3.930  1.1471  0.0279 -0.2508
 9379TIP3   OH228100   3.267   1.576   4.295 -0.0468  0.0818  0.3929
 9379TIP3    H128101   3.318   1.508   4.250 -1.2818 -0.4744 -0.2360
 9379TIP3    H228102   3.331   1.624   4.346  1.0092 -0.9923  0.1396
 9380TIP3   OH228103   6.314   0.232   3.742  0.6081  0.2809  0.0494
 9380TIP3    H128104   6.369   0.187   3.805  0.3175 -1.6273 -0.9831
 9380TIP3    H228105   6.330   0.186   3.659 -2.2701 -0.1910 -0.3538
 9381TIP3   OH228106   5.609   0.254   3.006 -0.0487 -1.0523 -0.1828
 9381TIP3    H128107   5.653   0.169   3.000  0.6014 -0.6456 -1.7095
 9381TIP3    H228108   5.679   0.315   3.028 -0.4318 -0.8330  0.4564
 9382TIP3   OH228109   0.895   4.639   0.293  0.6372  0.5988 -0.6832
 9382TIP3    H128110   0.944   4.584   0.353 -1.6000 -1.1520 -0.3096
 9382TIP3    H228111   0.902   4.596   0.208 -0.0761  0.3882 -0.6493
 9383TIP3   OH228112   6.611   1.024   1.702  0.1700  0.5344 -0.7664
 9383TIP3    H128113   6.556   0.984   1.634  1.5134 -1.7367 -0.6413
 9383TIP3    H228114   6.659   1.093   1.657  0.5350 -0.4741 -1.9808
 9384TIP3   OH228115   3.825   3.600   0.975  0.5851 -0.4546 -0.1345
 9384TIP3    H128116   3.810   3.520   1.024 -0.9692 -0.0327  0.1194
 9384TIP3    H228117   3.835   3.571   0.884 -1.2991 -0.8590 -0.2454
 9385TIP3   OH228118   5.806   6.399   5.185 -0.1282  0.3053  0.0183
 9385TIP3    H128119   5.771   6.325   5.234  1.4071  1.0167  2.3891
 9385TIP3    H228120   5.736   6.465   5.189 -0.1441  0.2442  1.0420
 9386TIP3   OH228121   6.925   0.188   1.059  0.3342 -0.8099 -0.2460
 9386TIP3    H128122   6.985   0.261   1.045 -1.6335  0.8624 -0.2745
 9386TIP3    H228123   6.915   0.183   1.154 -0.8546  0.1249 -0.2993
 9387TIP3   OH228124   1.483   2.633   2.586 -0.1016  0.5359  0.1007
 9387TIP3    H128125   1.478   2.645   2.681  0.4620 -1.3051  0.3836
 9387TIP3    H228126   1.444   2.713   2.551 -0.6860  1.0854  1.8759
 9388TIP3   OH228127   1.784   1.291   1.812  0.2282  0.1435  0.0105
 9388TIP3    H128128   1.795   1.224   1.879  0.0068 -0.9677 -1.0241
 9388TIP3    H228129   1.690   1.293   1.795  0.2450  0.6501 -0.0330
 9389TIP3   OH228130   1.577   4.491   3.220  0.0947  0.2679  0.0677
 9389TIP3    H128131   1.588   4.555   3.290 -3.0869  0.8052  0.2289
 9389TIP3    H228132   1.513   4.429   3.254 -0.7134 -0.0749 -1.9411
 9390TIP3   OH228133   1.411   2.739   4.752  0.0591  0.1623 -0.4473
 9390TIP3    H128134   1.462   2.763   4.674 -1.4645  3.1281 -0.6910
 9390TIP3    H228135   1.477   2.723   4.819  1.3825  1.3345 -1.3999
 9391TIP3   OH228136   0.968   5.613   2.160 -0.5561 -0.2991 -0.8835
 9391TIP3    H128137   0.955   5.707   2.143 -3.1888 -0.7669 -1.9971
 9391TIP3    H228138   0.907   5.570   2.100  1.3188 -2.8084 -1.1269
 9392TIP3   OH228139   0.250   3.378   1.058  0.7814 -0.1164  0.2755
 9392TIP3    H128140   0.344   3.366   1.050  0.6238 -0.8932 -0.5254
 9392TIP3    H228141   0.217   3.379   0.968  0.1121  0.9902  0.5006
 9393TIP3   OH228142   0.697   5.059   1.361  0.0086  0.0000  0.2563
 9393TIP3    H128143   0.746   5.055   1.443  1.8498 -0.5030 -0.8247
 9393TIP3    H228144   0.654   4.974   1.354  2.5404 -1.2974 -0.8313
 9394TIP3   OH228145   4.185   2.909   3.548 -0.6205  0.9160  0.3102
 9394TIP3    H128146   4.174   3.004   3.540 -0.8481  0.8588 -0.0282
 9394TIP3    H228147   4.099   2.873   3.530 -0.7178  0.6818  1.1896
 9395TIP3   OH228148   0.307   2.767   5.715 -0.2165  0.3475 -0.0779
 9395TIP3    H128149   0.275   2.691   5.666  0.9641  0.7863 -1.6009
 9395TIP3    H228150   0.264   2.842   5.674 -0.8430  0.5824  0.9720
 9396TIP3   OH228151   4.425   4.386   2.343  0.3884  0.1998 -0.8716
 9396TIP3    H128152   4.348   4.373   2.399  0.9343  0.1566 -0.1083
 9396TIP3    H228153   4.470   4.302   2.343  1.0650  0.5482 -0.3240
 9397TIP3   OH228154   6.002   0.781   4.980  0.5100  0.5352  0.4708
 9397TIP3    H128155   5.924   0.783   5.035 -0.7491  0.9665 -1.2339
 9397TIP3    H228156   6.063   0.724   5.027 -1.7767 -1.9813  0.6467
 9398TIP3   OH228157   4.674   0.710   3.899  0.3374  0.3064  0.0746
 9398TIP3    H128158   4.704   0.655   3.827  1.1839  2.0120 -0.9448
 9398TIP3    H228159   4.578   0.707   3.893  0.3903 -0.3726 -0.4889
 9399TIP3   OH228160   1.239   2.076   4.402 -0.2382 -0.0221 -0.3940
 9399TIP3    H128161   1.279   1.992   4.423 -0.3467 -0.4598 -1.8632
 9399TIP3    H228162   1.297   2.141   4.441 -1.2927 -0.7747  2.7246
 9400TIP3   OH228163   1.127   6.061   2.618  0.0109  0.1006  0.6244
 9400TIP3    H128164   1.191   6.061   2.547 -0.7059 -0.2109 -0.0379
 9400TIP3    H228165   1.179   6.068   2.698  0.9774 -1.8587  0.2100
 9401TIP3   OH228166   3.059   1.708   0.516 -0.3870  0.1735 -0.3365
 9401TIP3    H128167   3.139   1.684   0.469 -0.0358 -0.6126  0.6091
 9401TIP3    H228168   3.050   1.802   0.502 -1.2134 -0.2388 -3.3156
 9402TIP3   OH228169   3.981   0.518   1.160 -0.2901  0.2106 -0.3458
 9402TIP3    H128170   4.060   0.464   1.160 -0.9566 -0.8008  0.8209
 9402TIP3    H228171   4.014   0.608   1.155  1.0034 -0.1233  1.2745
 9403TIP3   OH228172   1.520   1.270   1.782  0.2909 -0.0174 -0.4605
 9403TIP3    H128173   1.462   1.289   1.856 -0.4157  0.0210 -1.0145
 9403TIP3    H228174   1.498   1.181   1.755  0.5784 -0.0500 -0.6025
 9404TIP3   OH228175   4.708   1.108   2.559 -0.1506 -0.1073 -0.2515
 9404TIP3    H128176   4.714   1.202   2.542 -1.8378  0.4339  1.6213
 9404TIP3    H228177   4.621   1.097   2.597  0.2601 -2.3404  0.1763
 9405TIP3   OH228178   6.435   1.874   2.428 -0.1162 -0.2921  0.5544
 9405TIP3    H128179   6.385   1.956   2.426 -1.5069 -1.0760  1.1993
 9405TIP3    H228180   6.419   1.839   2.516  0.7797 -1.0755  0.4216
 9406TIP3   OH228181   6.375   6.789   3.016  0.3568  0.3007 -0.7508
 9406TIP3    H128182   6.432   6.740   2.958  0.2269 -0.3388 -0.3538
 9406TIP3    H228183   6.403   6.763   3.104  0.1705  0.8112 -0.5370
 9407TIP3   OH228184   6.783   6.581   4.244 -0.6162  0.1937 -0.1630
 9407TIP3    H128185   6.796   6.512   4.179  3.0571  1.0264 -0.5435
 9407TIP3    H228186   6.783   6.662   4.194 -0.8626  0.6818  0.6055
 9408TIP3   OH228187   3.053   4.247   0.257 -0.3939 -0.1312 -0.2845
 9408TIP3    H128188   3.041   4.337   0.288 -1.0504  0.4150 -2.0257
 9408TIP3    H228189   3.007   4.193   0.321  1.4316  0.5496  1.7556
 9409TIP3   OH228190   4.335   6.306   3.558  0.7011  0.1428 -0.1002
 9409TIP3    H128191   4.311   6.255   3.480  0.6588 -0.8897  0.5777
 9409TIP3    H228192   4.262   6.367   3.570 -0.2209 -0.9770  0.2183
 9410TIP3   OH228193   0.479   3.034   5.658 -0.2325  0.5723  0.1073
 9410TIP3    H128194   0.404   3.092   5.647 -0.1301  0.7067  0.1253
 9410TIP3    H228195   0.473   3.004   5.749 -0.4909  0.2690 -0.0054
 9411TIP3   OH228196   1.340   1.795   3.607  0.6491  0.3717 -0.2681
 9411TIP3    H128197   1.390   1.750   3.675 -1.1426 -1.3816 -0.0195
 9411TIP3    H228198   1.323   1.728   3.540 -0.7194  1.0775 -0.6812
 9412TIP3   OH228199   2.305   0.749   0.256  0.1323 -0.1829  0.2483
 9412TIP3    H128200   2.296   0.665   0.212 -0.7393  0.5878 -1.1169
 9412TIP3    H228201   2.216   0.776   0.274  0.3139  1.1201 -0.6790
 9413TIP3   OH228202   6.333   4.422   0.247 -0.7333 -0.4801 -0.7514
 9413TIP3    H128203   6.404   4.479   0.218 -1.4341 -0.1564 -1.8793
 9413TIP3    H228204   6.368   4.378   0.325  0.7742 -0.4723 -1.3888
 9414TIP3   OH228205   1.937   4.025   2.104 -0.1092  0.1857 -0.4595
 9414TIP3    H128206   2.011   3.997   2.157 -0.0445  1.0399 -0.0833
 9414TIP3    H228207   1.880   4.072   2.164 -1.2136 -0.8703 -0.6394
 9415TIP3   OH228208   5.143   4.852   1.136 -0.3554  0.0254 -0.2641
 9415TIP3    H128209   5.141   4.945   1.116  1.1890  0.3417  0.8478
 9415TIP3    H228210   5.052   4.829   1.156 -0.9631  0.9703 -1.8107
 9416TIP3   OH228211   2.660   3.494   5.565  0.3195  0.4491  0.0811
 9416TIP3    H128212   2.612   3.424   5.520  2.7349 -0.1219 -1.8305
 9416TIP3    H228213   2.625   3.575   5.528  0.0197  0.0923 -0.4281
 9417TIP3   OH228214   2.584   1.676   2.954  0.4086  0.5405 -0.1216
 9417TIP3    H128215   2.666   1.717   2.982  0.0133  0.2687  1.5041
 9417TIP3    H228216   2.547   1.739   2.891  1.9698  0.5340 -1.1040
 9418TIP3   OH228217   3.761   3.897   2.311 -0.4460  0.6866 -0.3928
 9418TIP3    H128218   3.672   3.913   2.279 -0.2690  1.7251 -0.3890
 9418TIP3    H228219   3.816   3.902   2.233 -0.3602  0.2826 -0.3594
 9419TIP3   OH228220   2.179   0.781   3.172 -0.0692  0.0768 -0.2724
 9419TIP3    H128221   2.200   0.856   3.116  1.0355 -0.2780 -0.3529
 9419TIP3    H228222   2.262   0.737   3.186 -0.2644  0.2957  1.8779
 9420TIP3   OH228223   4.621   0.023   1.746  0.0295 -0.2720  0.0294
 9420TIP3    H128224   4.569  -0.008   1.672 -1.2475 -0.5727  1.0309
 9420TIP3    H228225   4.606   0.117   1.749 -0.4419 -0.3567  0.3077
 9421TIP3   OH228226   6.718   0.504   3.609 -0.3642 -0.1238  0.0744
 9421TIP3    H128227   6.655   0.489   3.679 -0.3097  1.2757  0.4576
 9421TIP3    H228228   6.670   0.558   3.545 -0.0718 -0.4630 -0.4382
 9422TIP3   OH228229   6.705   3.371   5.048 -0.1871  0.4326 -0.3949
 9422TIP3    H128230   6.761   3.331   5.116 -0.9306  1.7983  1.0702
 9422TIP3    H228231   6.617   3.339   5.068 -0.4919  1.2677 -0.3659
 9423TIP3   OH228232   1.006   6.279   0.339  0.2391  0.1906 -0.4147
 9423TIP3    H128233   0.998   6.240   0.251 -1.8600 -1.2497  0.3379
 9423TIP3    H228234   0.967   6.214   0.397 -0.5257  2.1064  1.3158
 9424TIP3   OH228235   4.519   3.299   4.139 -0.0514 -0.1765 -0.0719
 9424TIP3    H128236   4.514   3.357   4.215  1.4692  0.1234 -0.1792
 9424TIP3    H228237   4.506   3.356   4.063 -0.8665 -0.3625 -0.0790
 9425TIP3   OH228238   7.003   0.986   1.309 -0.1911 -0.1140  0.3168
 9425TIP3    H128239   7.072   1.027   1.362  0.9617 -0.6857 -0.6856
 9425TIP3    H228240   6.963   0.921   1.367 -0.2645  0.6009  1.0829
 9426TIP3   OH228241   6.444   1.171   2.337 -0.0865 -0.0996 -0.2889
 9426TIP3    H128242   6.453   1.125   2.254  0.2430 -4.0475  1.7113
 9426TIP3    H228243   6.530   1.211   2.352 -0.2732  1.0327 -1.9332
 9427TIP3   OH228244   2.172   3.902   3.624  0.6749 -0.3182  0.1290
 9427TIP3    H128245   2.265   3.883   3.636  1.0093 -0.2843 -2.0638
 9427TIP3    H228246   2.126   3.829   3.666  1.6687 -0.3328  1.2241
 9428TIP3   OH228247   1.266   1.125   0.835  0.4264 -0.4661  0.5584
 9428TIP3    H128248   1.219   1.044   0.854 -0.6209 -0.1256 -0.4769
 9428TIP3    H228249   1.344   1.097   0.787  0.7742 -0.9453  1.3710
 9429TIP3   OH228250   4.671   6.554   5.656  0.0777 -0.1467  0.2561
 9429TIP3    H128251   4.664   6.545   5.561  0.3505  0.7354  0.1447
 9429TIP3    H228252   4.633   6.639   5.675 -2.6682 -1.4811  1.2887
 9430TIP3   OH228253   1.922   1.912   3.203  0.0428  0.4181 -0.2463
 9430TIP3    H128254   1.840   1.870   3.230  0.0247  0.0769 -0.8171
 9430TIP3    H228255   1.948   1.964   3.279  0.5399 -1.3199  0.8418
 9431TIP3   OH228256   3.158   6.204   2.870 -0.5516 -0.0212  0.7375
 9431TIP3    H128257   3.092   6.263   2.831 -0.1480 -0.8772 -1.3665
 9431TIP3    H228258   3.216   6.262   2.918 -0.6924  1.2126 -0.5204
 9432TIP3   OH228259   5.187   1.387   3.604 -0.4527  0.7616  0.0181
 9432TIP3    H128260   5.110   1.432   3.638 -0.5983  1.0060 -0.6092
 9432TIP3    H228261   5.152   1.321   3.544 -0.1917  0.6421 -0.0034
 9433TIP3   OH228262   6.929   1.402   5.795 -0.1886 -0.2955  0.2120
 9433TIP3    H128263   6.889   1.317   5.814 -0.3360 -0.4875 -0.8876
 9433TIP3    H228264   7.017   1.397   5.833 -0.6509 -0.4482  1.2851
 9434TIP3   OH228265   2.877   6.710   4.808 -0.0393  0.1749  0.0579
 9434TIP3    H128266   2.905   6.800   4.792 -0.8510  0.0819 -2.4019
 9434TIP3    H228267   2.949   6.656   4.774  0.5396 -0.1495  1.7142
 9435TIP3   OH228268   4.797   0.696   1.506  0.1037 -0.2379  0.1432
 9435TIP3    H128269   4.766   0.679   1.416  0.1769  1.1724 -0.1793
 9435TIP3    H228270   4.892   0.695   1.499  0.1170  0.5881  0.0274
 9436TIP3   OH228271   1.982   3.107   5.290 -0.6879 -0.2105 -0.9057
 9436TIP3    H128272   1.927   3.069   5.358 -0.7295  1.0930 -0.1629
 9436TIP3    H228273   2.017   3.032   5.242  0.0945 -1.2439  1.1387
 9437TIP3   OH228274   6.478   2.063   2.131  0.5344 -0.5942  0.5915
 9437TIP3    H128275   6.466   2.156   2.151  1.5337 -0.1059 -0.8806
 9437TIP3    H228276   6.434   2.050   2.047  1.8300 -1.0403 -0.0401
 9438TIP3   OH228277   6.703   5.191   1.684 -0.4965 -0.6695  0.0192
 9438TIP3    H128278   6.766   5.264   1.685 -2.9114  1.5785  1.0007
 9438TIP3    H228279   6.756   5.113   1.669  2.2814  1.2537 -0.9001
 9439TIP3   OH228280   0.520   0.202   3.882  0.1009  0.1673 -0.0437
 9439TIP3    H128281   0.445   0.157   3.921 -0.7306 -0.9074 -2.6454
 9439TIP3    H228282   0.581   0.215   3.954 -1.0616 -2.2026  1.4745
 9440TIP3   OH228283   1.951   2.813   1.043 -0.0222  0.2273  0.0739
 9440TIP3    H128284   1.892   2.752   1.087 -0.4751  0.8084  0.2802
 9440TIP3    H228285   1.899   2.848   0.970  0.0773  0.7219  0.2389
 9441TIP3   OH228286   0.329   6.116   4.418 -0.1970 -0.1943  0.0302
 9441TIP3    H128287   0.307   6.024   4.402  2.2317 -0.7716 -0.2686
 9441TIP3    H228288   0.328   6.125   4.513  3.1948 -1.6006  0.3182
 9442TIP3   OH228289   2.254   5.322   2.922 -1.0527  0.3348  0.0782
 9442TIP3    H128290   2.173   5.275   2.902 -0.3291 -1.1875  0.6375
 9442TIP3    H228291   2.314   5.296   2.853 -0.4927  0.0205  0.6725
 9443TIP3   OH228292   2.305   1.310   4.768 -0.3399  0.0108  0.1203
 9443TIP3    H128293   2.323   1.380   4.831 -0.2372 -0.3759  0.5251
 9443TIP3    H228294   2.257   1.244   4.819  0.6669 -0.7752  0.0635
 9444TIP3   OH228295   0.546   3.572   4.364 -0.1680  0.1377 -0.1151
 9444TIP3    H128296   0.513   3.644   4.312  1.1696  0.4979 -0.5134
 9444TIP3    H228297   0.556   3.608   4.452 -0.7544  0.0524 -0.0157
 9445TIP3   OH228298   4.636   1.218   2.992 -0.1224 -0.7405  0.0167
 9445TIP3    H128299   4.617   1.126   2.978 -0.3758 -0.8502  0.9715
 9445TIP3    H228300   4.716   1.218   3.045  1.0860 -0.3466 -1.7388
 9446TIP3   OH228301   3.521   6.164   3.693  0.6536 -0.6492 -0.2222
 9446TIP3    H128302   3.592   6.216   3.731  0.1928  0.6429 -1.0553
 9446TIP3    H228303   3.472   6.130   3.768  1.6893 -0.9250  0.3471
 9447TIP3   OH228304   5.183   0.393   2.955 -0.3115 -0.2280  0.2853
 9447TIP3    H128305   5.189   0.330   2.883  1.7638 -1.8114  1.6857
 9447TIP3    H228306   5.153   0.474   2.915 -0.4121 -1.3715 -2.1145
 9448TIP3   OH228307   0.255   3.564   0.163 -0.0914  0.1602  0.1937
 9448TIP3    H128308   0.222   3.560   0.253 -1.2743 -0.0994 -0.2292
 9448TIP3    H228309   0.286   3.475   0.146 -1.2673 -0.2011 -0.1443
 9449TIP3   OH228310   0.431   0.918   3.176  0.3990  0.9196 -0.5487
 9449TIP3    H128311   0.356   0.865   3.202  0.0940  0.7384 -1.7331
 9449TIP3    H228312   0.505   0.858   3.177  0.9021  1.4482  2.1940
 9450TIP3   OH228313   0.257   6.372   4.936  0.1215 -0.0072  0.5756
 9450TIP3    H128314   0.244   6.446   4.877  0.1580 -0.1937  0.3363
 9450TIP3    H228315   0.229   6.405   5.022  2.0661  0.9781  0.8984
 9451TIP3   OH228316   0.096   1.275   3.570  0.4599  0.1810 -0.5463
 9451TIP3    H128317   0.060   1.347   3.518 -2.3912 -0.1309  0.8477
 9451TIP3    H228318   0.110   1.312   3.657  0.2371 -0.6203 -0.1599
 9452TIP3   OH228319   2.374   4.243   1.910  0.3093 -0.3961  0.1669
 9452TIP3    H128320   2.281   4.234   1.888  0.5931 -0.4739 -1.0628
 9452TIP3    H228321   2.411   4.294   1.838  0.9696  0.8232  1.3293
 9453TIP3   OH228322   2.325   5.988   5.137 -0.3221 -0.6364 -0.1832
 9453TIP3    H128323   2.418   5.989   5.162 -0.3908 -2.2897  0.3191
 9453TIP3    H228324   2.326   5.994   5.042  0.3805 -1.6084 -0.2577
 9454TIP3   OH228325   2.505   1.329   2.229  0.5703  0.1104 -0.1496
 9454TIP3    H128326   2.586   1.301   2.272  0.1817  1.2496  1.4253
 9454TIP3    H228327   2.535   1.393   2.163  1.0185 -0.0914 -0.1477
 9455TIP3   OH228328   7.064   4.090   1.238 -0.3355  0.4542  0.3321
 9455TIP3    H128329   7.051   4.030   1.165 -0.5410 -1.1177  1.6112
 9455TIP3    H228330   7.141   4.056   1.284  0.1170  1.7376  0.5634
 9456TIP3   OH228331   1.608   2.916   1.357 -0.4020 -0.8963  0.2216
 9456TIP3    H128332   1.562   2.832   1.357 -0.8550 -0.6514  0.3004
 9456TIP3    H228333   1.539   2.981   1.340 -0.0801 -0.5299  0.3134
 9457TIP3   OH228334   3.511   1.095   2.099  0.3447  0.2662  0.5304
 9457TIP3    H128335   3.498   1.055   2.185 -1.7943 -0.0643  0.1171
 9457TIP3    H228336   3.422   1.107   2.065  1.1340 -0.0634 -1.8316
 9458TIP3   OH228337   4.516   3.010   5.731 -0.4514 -0.0965  0.3765
 9458TIP3    H128338   4.606   2.977   5.741 -0.3200  0.2446  0.3096
 9458TIP3    H228339   4.526   3.105   5.724 -0.5626 -0.2236 -2.4848
 9459TIP3   OH228340   5.614   5.438   0.500 -0.2649 -0.1620  0.0179
 9459TIP3    H128341   5.673   5.504   0.466  0.2305 -1.0453 -0.8913
 9459TIP3    H228342   5.665   5.357   0.500 -1.7241 -1.1673 -1.7457
 9460TIP3   OH228343   4.131   2.962   2.433 -0.1625  0.1300 -0.1631
 9460TIP3    H128344   4.169   2.875   2.444  2.9033  1.6293  3.5595
 9460TIP3    H228345   4.201   3.015   2.396 -1.4162  1.4149 -0.7984
 9461TIP3   OH228346   5.552   4.535   4.326 -0.7298  0.5201  0.2459
 9461TIP3    H128347   5.465   4.571   4.308 -0.2364  0.8200 -1.8380
 9461TIP3    H228348   5.610   4.584   4.268  0.7507 -0.1270  1.1287
 9462TIP3   OH228349   0.631   5.583   3.152  0.5395  0.0523  0.5374
 9462TIP3    H128350   0.595   5.657   3.102  3.6099  0.2094 -1.7201
 9462TIP3    H228351   0.557   5.523   3.163 -0.8321  1.0870 -2.2258
 9463TIP3   OH228352   3.170   2.690   1.818 -0.4238  0.0598 -0.0534
 9463TIP3    H128353   3.108   2.762   1.821 -0.2612  0.1475  1.8960
 9463TIP3    H228354   3.116   2.613   1.801 -0.6534  0.5279 -1.6401
 9464TIP3   OH228355   1.765   3.142   1.480 -0.3682  0.3830  0.3843
 9464TIP3    H128356   1.746   3.233   1.459 -2.3027  0.2582  1.3625
 9464TIP3    H228357   1.716   3.092   1.415 -0.5398  0.0500  0.7642
 9465TIP3   OH228358   6.976   4.387   5.696  0.0650  0.1378  0.3011
 9465TIP3    H128359   7.021   4.363   5.615 -0.2707 -0.3879  0.2657
 9465TIP3    H228360   7.045   4.386   5.763  0.2258 -0.0646  0.1357
 9466TIP3   OH228361   7.000   5.442   0.220 -0.1161 -0.2279  0.3403
 9466TIP3    H128362   7.090   5.421   0.243 -0.3145 -1.9468 -0.2940
 9466TIP3    H228363   6.964   5.482   0.299  1.2736  0.8281  0.4795
 9467TIP3   OH228364   5.519   5.497   3.446 -0.0091 -0.1077 -0.0949
 9467TIP3    H128365   5.587   5.505   3.513  0.6194  1.2188 -0.8500
 9467TIP3    H228366   5.471   5.579   3.451 -2.3495 -1.4675  1.2027
 9468TIP3   OH228367   3.796   5.541   4.410  0.1586 -0.0323 -0.3063
 9468TIP3    H128368   3.782   5.447   4.416 -1.3771  0.1687 -0.4785
 9468TIP3    H228369   3.833   5.565   4.495 -2.2532 -0.3702  0.9331
 9469TIP3   OH228370   5.788   0.929   3.277 -0.0268 -0.1023 -1.0407
 9469TIP3    H128371   5.741   0.989   3.219  0.9728  2.6626  0.7680
 9469TIP3    H228372   5.762   0.957   3.365  0.5642 -2.3501 -0.0937
 9470TIP3   OH228373   0.100   4.947   5.921 -0.1019 -0.1950  0.4196
 9470TIP3    H128374   0.053   4.888   5.863 -2.1755  1.7820 -0.0589
 9470TIP3    H228375   0.150   5.004   5.862 -1.1260  0.9328  0.5980
 9471TIP3   OH228376   5.911   5.952   4.905 -0.2994 -0.2319 -0.0583
 9471TIP3    H128377   5.917   6.043   4.934 -1.6006 -0.3568  0.6547
 9471TIP3    H228378   5.877   5.905   4.981  0.6146 -1.3730 -0.3337
 9472TIP3   OH228379   4.211   5.251   2.784  0.5237  0.2398  0.2550
 9472TIP3    H128380   4.198   5.343   2.761 -1.7234  0.2186  1.1285
 9472TIP3    H228381   4.126   5.223   2.817  0.9817 -2.3165 -0.4866
 9473TIP3   OH228382   6.895   5.951   5.751 -0.2876 -0.1101 -0.2154
 9473TIP3    H128383   6.957   5.980   5.818  1.6110 -1.5235 -1.2818
 9473TIP3    H228384   6.893   6.023   5.688  0.1110  0.0230 -0.0787
 9474TIP3   OH228385   5.529   1.452   1.788 -0.2660  0.0991  0.5675
 9474TIP3    H128386   5.533   1.394   1.864 -0.0637  0.2258  0.6559
 9474TIP3    H228387   5.619   1.486   1.779 -0.0597 -0.6132 -0.2661
 9475TIP3   OH228388   4.014   4.049   4.526  0.8777 -1.0100  0.5547
 9475TIP3    H128389   4.075   4.121   4.542 -1.2811  0.8414  1.1271
 9475TIP3    H228390   3.997   4.013   4.613  1.1731 -1.5472  0.3928
 9476TIP3   OH228391   6.793   5.850   4.300  0.1793  0.0964  0.4198
 9476TIP3    H128392   6.842   5.822   4.223  0.3842  2.8943 -0.6094
 9476TIP3    H228393   6.701   5.838   4.277  0.2580 -1.5134  0.8259
 9477TIP3   OH228394   2.111   0.172   3.660  0.2225  0.0894 -0.3235
 9477TIP3    H128395   2.168   0.217   3.722  0.8487 -1.2840  0.1417
 9477TIP3    H228396   2.162   0.097   3.630 -0.4197  0.2100 -1.8192
 9478TIP3   OH228397   3.958   2.323   3.265 -0.3631 -0.2144  0.3110
 9478TIP3    H128398   3.913   2.239   3.259 -1.3562  0.4340 -2.0528
 9478TIP3    H228399   3.953   2.346   3.358 -2.5808 -1.4054  0.5405
 9479TIP3   OH228400   4.815   5.711   0.179 -0.0302 -0.8200 -0.3067
 9479TIP3    H128401   4.845   5.668   0.099 -0.7707  0.0634 -1.0960
 9479TIP3    H228402   4.719   5.704   0.175 -0.0895 -0.4271  0.2928
 9480TIP3   OH228403   1.412   3.720   5.832  0.3509 -0.3522 -0.7281
 9480TIP3    H128404   1.478   3.782   5.800 -0.4952  0.9020 -0.1628
 9480TIP3    H228405   1.431   3.638   5.788  0.9353  0.5771 -2.2603
 9481TIP3   OH228406   0.842   1.031   3.178 -0.5962 -0.1456 -0.2359
 9481TIP3    H128407   0.757   1.073   3.187 -0.6224  0.6105 -3.0595
 9481TIP3    H228408   0.827   0.940   3.205 -1.7985  0.4130  1.0825
 9482TIP3   OH228409   0.864   2.399   1.630 -0.0731 -0.1962 -0.4324
 9482TIP3    H128410   0.952   2.364   1.642 -0.9004 -2.6403 -0.8624
 9482TIP3    H228411   0.844   2.443   1.712  1.6823  0.7702 -0.4919
 9483TIP3   OH228412   0.317   3.835   5.423  0.1504  0.8195 -0.2336
 9483TIP3    H128413   0.286   3.925   5.433  0.8435  0.9060  1.3990
 9483TIP3    H228414   0.335   3.806   5.512  1.6487 -0.3177 -0.8675
 9484TIP3   OH228415   6.891   6.025   3.095  0.1552 -0.3947 -0.1566
 9484TIP3    H128416   6.861   6.023   3.186 -0.7801  0.8974 -0.4101
 9484TIP3    H228417   6.907   6.117   3.076  1.3822 -0.7480 -0.9950
 9485TIP3   OH228418   6.807   6.767   5.387  0.0620 -0.1457 -0.2629
 9485TIP3    H128419   6.765   6.742   5.305  1.6574  0.6539 -1.3916
 9485TIP3    H228420   6.737   6.806   5.439 -1.1671 -1.4352 -0.8765
 9486TIP3   OH228421   4.116   3.261   5.516  0.6175  0.5953  0.0246
 9486TIP3    H128422   4.143   3.198   5.450 -0.3721  0.9887 -0.7778
 9486TIP3    H228423   4.033   3.228   5.549  1.3524  0.1210  1.4817
 9487TIP3   OH228424   4.913   0.361   4.465  0.2593 -0.7018 -0.3296
 9487TIP3    H128425   4.951   0.286   4.419  0.9570 -0.9369  0.6223
 9487TIP3    H228426   4.891   0.328   4.552  0.0977  0.0693 -0.0718
 9488TIP3   OH228427   2.999   4.032   4.946 -0.3259 -0.0022 -0.5069
 9488TIP3    H128428   3.043   4.068   5.023  0.8302  0.2420 -1.2575
 9488TIP3    H228429   3.024   3.940   4.945 -0.7846 -0.1281 -0.2842
 9489TIP3   OH228430   2.791   6.072   0.119 -0.0138 -0.1268  0.2689
 9489TIP3    H128431   2.729   6.002   0.136 -1.2900  0.8884 -0.0942
 9489TIP3    H228432   2.799   6.074   0.023  0.2788  0.0126  0.2934
 9490TIP3   OH228433   4.249   2.808   4.042  0.1595  0.6892 -0.6162
 9490TIP3    H128434   4.223   2.843   3.957  1.1152  0.8663 -0.8535
 9490TIP3    H228435   4.342   2.829   4.049  0.9281 -2.1019 -0.9406
 9491TIP3   OH228436   3.828   0.207   3.729  0.0997 -0.3102 -0.0925
 9491TIP3    H128437   3.735   0.187   3.719 -0.0925  1.0857 -1.3622
 9491TIP3    H228438   3.867   0.181   3.645  0.8379 -0.7245  0.3682
 9492TIP3   OH228439   1.010   6.158   5.809 -0.0783 -0.0533  0.0030
 9492TIP3    H128440   1.042   6.075   5.844  1.2923  0.2049 -0.5638
 9492TIP3    H228441   1.058   6.225   5.859 -0.4289  0.3815 -0.2340
 9493TIP3   OH228442   5.537   1.316   2.106  0.3307 -0.5025 -0.5052
 9493TIP3    H128443   5.514   1.280   2.020  1.0455 -0.8948 -0.5375
 9493TIP3    H228444   5.511   1.249   2.168  0.8330 -0.6992 -0.5005
 9494TIP3   OH228445   3.127   1.293   3.949 -0.0617 -0.4610  0.1361
 9494TIP3    H128446   3.054   1.340   3.908 -1.2911 -1.6355  0.8830
 9494TIP3    H228447   3.110   1.301   4.043  0.7304 -0.8461  0.3213
 9495TIP3   OH228448   0.370   2.307   1.976 -0.9574  0.4929 -0.6103
 9495TIP3    H128449   0.376   2.235   2.039 -1.6641  0.8608 -0.1007
 9495TIP3    H228450   0.452   2.355   1.986  0.3874 -1.3078 -2.3343
 9496TIP3   OH228451   2.824   4.462   4.794  0.3422 -0.1100  0.4204
 9496TIP3    H128452   2.822   4.369   4.818 -0.2134  0.2118  1.7176
 9496TIP3    H228453   2.848   4.507   4.875  1.0686  0.8597 -0.3074
 9497TIP3   OH228454   3.591   1.750   2.610  0.0987  0.0712 -0.3253
 9497TIP3    H128455   3.507   1.771   2.570 -0.3795 -0.5115  0.3552
 9497TIP3    H228456   3.643   1.829   2.597 -0.4692  0.3560 -0.9569
 9498TIP3   OH228457   6.033   3.780   1.988 -0.1222 -0.3803  0.5046
 9498TIP3    H128458   5.939   3.792   1.970 -0.1686  0.0412  1.0129
 9498TIP3    H228459   6.035   3.709   2.053 -0.0956 -0.2835  0.6084
 9499TIP3   OH228460   5.931   2.946   3.224 -0.1227  0.1627  0.0701
 9499TIP3    H128461   5.958   2.951   3.132  0.4401  1.0666  0.2749
 9499TIP3    H228462   5.837   2.965   3.222  0.0795  1.1708 -0.2217
 9500TIP3   OH228463   4.221   2.952   3.836  0.4115 -0.1124  0.0542
 9500TIP3    H128464   4.198   3.041   3.864 -2.2485 -1.4380  2.7675
 9500TIP3    H228465   4.196   2.949   3.744  0.4677  1.9128 -0.0821
 9501TIP3   OH228466   1.182   1.636   2.199 -0.0374  0.1218  0.8433
 9501TIP3    H128467   1.165   1.542   2.199 -2.9112  0.4856  2.8375
 9501TIP3    H228468   1.144   1.668   2.117 -0.0740 -0.3353  0.6826
 9502TIP3   OH228469   1.853   1.624   0.662  0.1801 -0.2987 -0.0399
 9502TIP3    H128470   1.809   1.540   0.675 -0.8289  0.1627 -0.3417
 9502TIP3    H228471   1.924   1.604   0.601  1.3391 -1.3370  1.5570
 9503TIP3   OH228472   4.571   0.260   1.224 -0.6592 -0.2462  0.0383
 9503TIP3    H128473   4.578   0.170   1.191  0.1717  0.6217 -2.4292
 9503TIP3    H228474   4.543   0.250   1.315  1.3850 -3.0747  0.5086
 9504TIP3   OH228475   7.131   5.748   2.573 -0.4621 -0.1529 -0.3312
 9504TIP3    H128476   7.191   5.782   2.640  0.1757 -1.8765  0.0237
 9504TIP3    H228477   7.119   5.656   2.596 -1.7809 -0.3022 -1.4893
 9505TIP3   OH228478   5.034   0.748   0.676  0.1702  0.3118 -0.1857
 9505TIP3    H128479   5.072   0.836   0.674 -1.7125  1.1668 -0.0672
 9505TIP3    H228480   5.110   0.690   0.684  1.3891  2.0641  3.1737
 9506TIP3   OH228481   5.161   2.198   4.478  0.0919  0.6375  0.0863
 9506TIP3    H128482   5.093   2.262   4.497  0.5166  0.4216  2.7137
 9506TIP3    H228483   5.241   2.236   4.515  1.3115  0.5326 -2.2403
 9507TIP3   OH228484   2.859   4.160   4.374 -0.6034  0.5652  0.4979
 9507TIP3    H128485   2.785   4.108   4.343 -1.3838 -0.7049  4.0142
 9507TIP3    H228486   2.937   4.110   4.349 -1.0590  0.3619 -0.5564
 9508TIP3   OH228487   1.730   5.751   1.767  0.0676 -0.1497 -0.3659
 9508TIP3    H128488   1.798   5.795   1.818 -1.6951  1.6194  0.6185
 9508TIP3    H228489   1.730   5.661   1.801  1.0904  0.1448  0.4782
 9509TIP3   OH228490   0.828   6.201   5.618  0.2291 -0.6247 -0.9000
 9509TIP3    H128491   0.890   6.212   5.690  0.0305  0.5123 -0.8718
 9509TIP3    H228492   0.845   6.114   5.583  0.9706 -0.8144 -0.0780
 9510TIP3   OH228493   3.304   6.572   1.673  0.2990  0.0407 -0.0844
 9510TIP3    H128494   3.229   6.582   1.731 -0.3003 -1.3647 -0.5686
 9510TIP3    H228495   3.308   6.655   1.625 -2.2081 -0.5246 -1.4603
 9511TIP3   OH228496   1.645   1.938   5.870  0.9334  0.8574 -0.0184
 9511TIP3    H128497   1.566   1.903   5.829  1.2644  1.7418 -1.4712
 9511TIP3    H228498   1.692   1.860   5.901 -0.9524  0.3706  1.8155
 9512TIP3   OH228499   1.976   3.199   2.460  0.1103  0.0347  0.2377
 9512TIP3    H128500   2.062   3.170   2.430 -0.2038 -1.6929  0.9243
 9512TIP3    H228501   1.955   3.141   2.532 -1.3419  0.9047  0.5518
 9513TIP3   OH228502   2.394   6.518   0.255  0.6663  0.1822 -0.4069
 9513TIP3    H128503   2.353   6.455   0.315 -1.3518  0.1745 -1.6921
 9513TIP3    H228504   2.342   6.598   0.266  0.0295  0.0866 -2.3089
 9514TIP3   OH228505   6.107   0.741   5.405 -0.2213 -0.1513 -0.7605
 9514TIP3    H128506   6.163   0.754   5.482 -0.2639 -1.0397 -0.5726
 9514TIP3    H228507   6.068   0.655   5.418  1.0103 -1.0474 -2.5445
 9515TIP3   OH228508   6.726   1.381   4.515  0.4817  0.5108  0.0944
 9515TIP3    H128509   6.727   1.319   4.441  1.3627  0.8504 -0.1814
 9515TIP3    H228510   6.664   1.449   4.488 -0.2620 -0.0771  0.2706
 9516TIP3   OH228511   0.055   6.669   1.265  0.4238  0.6250  0.3136
 9516TIP3    H128512  -0.028   6.681   1.311 -0.2716  1.2850 -1.0707
 9516TIP3    H228513   0.033   6.678   1.173  1.7679 -0.7776 -0.1859
 9517TIP3   OH228514   4.001   2.406   0.802 -0.4616  0.6064 -0.0934
 9517TIP3    H128515   4.041   2.491   0.787  0.0331  0.3785 -0.0801
 9517TIP3    H228516   3.985   2.371   0.715  0.0687  0.3766 -0.1048
 9518TIP3   OH228517   4.307   5.447   0.178 -0.5049 -0.6484  0.0451
 9518TIP3    H128518   4.286   5.387   0.250  0.2825 -0.5259  0.3893
 9518TIP3    H228519   4.403   5.449   0.175 -0.5142  0.3274 -0.1804
 9519TIP3   OH228520   4.196   2.183   5.076 -0.1930  0.1204  0.2397
 9519TIP3    H128521   4.179   2.152   4.987  0.2592 -1.2379  0.6001
 9519TIP3    H228522   4.113   2.221   5.104 -1.2722 -2.0278  0.2362
 9520TIP3   OH228523   0.093   0.849   1.324 -0.3344 -0.0213 -0.0246
 9520TIP3    H128524   0.090   0.781   1.391 -1.1935 -0.1695 -0.1926
 9520TIP3    H228525   0.011   0.836   1.275 -0.5240  1.1549 -0.0339
 9521TIP3   OH228526   5.147   4.717   5.305  0.7206  0.1622 -0.0844
 9521TIP3    H128527   5.146   4.697   5.399 -0.9818  0.8264  0.0801
 9521TIP3    H228528   5.071   4.775   5.292  2.1166  1.7925 -1.5021
 9522TIP3   OH228529   1.604   4.598   4.013 -0.7171  0.1530  0.1799
 9522TIP3    H128530   1.650   4.649   4.080  0.3657  0.1219 -0.5236
 9522TIP3    H228531   1.543   4.544   4.063 -0.9498  1.1719  1.0323
 9523TIP3   OH228532   3.740   6.160   3.189 -0.1363 -0.4481 -0.5267
 9523TIP3    H128533   3.688   6.084   3.216  0.4642 -0.3073  1.1232
 9523TIP3    H228534   3.685   6.206   3.126 -1.8282 -0.5499  0.8189
 9524TIP3   OH228535   2.481   6.623   0.518  0.5572  0.1579  0.9375
 9524TIP3    H128536   2.452   6.563   0.586  1.5426  0.6897  1.8703
 9524TIP3    H228537   2.491   6.569   0.440 -0.2556 -0.5345  1.2986
 9525TIP3   OH228538   5.714   4.344   3.146  0.3702 -0.4320  0.8914
 9525TIP3    H128539   5.761   4.267   3.115  0.4663 -0.4556  1.0985
 9525TIP3    H228540   5.656   4.367   3.073  0.5037 -0.5648  0.7423
 9526TIP3   OH228541   6.816   0.964   3.514 -0.1181  0.7217  0.1264
 9526TIP3    H128542   6.893   1.005   3.554  0.2689 -0.4264  0.5968
 9526TIP3    H228543   6.775   0.916   3.586 -0.2517 -0.1550 -0.5232
 9527TIP3   OH228544   6.620   4.009   2.717  0.4562 -0.0848 -0.0890
 9527TIP3    H128545   6.628   4.093   2.672 -1.2816 -1.2264 -2.7836
 9527TIP3    H228546   6.572   4.029   2.797 -0.6768  1.4104 -1.0959
 9528TIP3   OH228547   6.246   4.955   4.451  0.3228  0.0011  0.1295
 9528TIP3    H128548   6.256   4.906   4.533 -0.0377 -0.0358  0.1523
 9528TIP3    H228549   6.183   5.024   4.473  1.0498  0.6628  0.1830
 9529TIP3   OH228550   2.071   0.860   0.298 -0.5936 -0.0646 -0.1665
 9529TIP3    H128551   2.064   0.933   0.236  1.1491 -0.1726 -0.5376
 9529TIP3    H228552   2.067   0.902   0.384  0.3485  0.4937 -0.3783
 9530TIP3   OH228553   0.823   2.113   0.637 -0.6383  0.3561 -0.5646
 9530TIP3    H128554   0.752   2.101   0.574 -0.7139 -0.3476 -0.3533
 9530TIP3    H228555   0.778   2.117   0.722 -0.2732 -3.3886 -0.0397
 9531TIP3   OH228556   3.287   3.104   1.101  0.1137 -0.5394  0.2346
 9531TIP3    H128557   3.203   3.079   1.139  0.2198 -1.6654 -0.2128
 9531TIP3    H228558   3.264   3.166   1.031 -0.1898  0.4460  1.1827
 9532TIP3   OH228559   6.712   4.274   5.422 -0.1243 -0.0324  0.3360
 9532TIP3    H128560   6.705   4.293   5.516  0.6702  0.5652  0.2871
 9532TIP3    H228561   6.642   4.326   5.382  0.1255  0.4553  0.5135
 9533TIP3   OH228562   3.827   6.161   5.164 -0.0408 -0.0630 -0.5067
 9533TIP3    H128563   3.878   6.159   5.083  0.6943 -1.1963 -0.0446
 9533TIP3    H228564   3.840   6.249   5.199 -0.1039  0.3263 -1.4504
 9534TIP3   OH228565   4.946   2.629   2.691 -0.3482  0.8399 -0.5012
 9534TIP3    H128566   4.944   2.566   2.763 -1.2981  1.0196 -0.3524
 9534TIP3    H228567   5.002   2.700   2.723  0.0894  0.4378 -0.3609
 9535TIP3   OH228568   1.054   0.320   0.755  0.7877 -0.0312 -0.6896
 9535TIP3    H128569   1.088   0.357   0.673  2.0125  1.1694  0.3262
 9535TIP3    H228570   1.000   0.390   0.792 -0.0396 -0.6966 -0.6099
 9536TIP3   OH228571   2.509   3.323   4.620  0.4033 -0.0550  0.1977
 9536TIP3    H128572   2.430   3.369   4.650  0.0848 -0.4750  0.0182
 9536TIP3    H228573   2.522   3.353   4.530  0.3898 -0.0643  0.1925
 9537TIP3   OH228574   1.655   3.507   2.976 -0.4375 -0.0765  0.3425
 9537TIP3    H128575   1.646   3.540   3.065 -1.2696  1.4888 -0.2934
 9537TIP3    H228576   1.568   3.516   2.938 -0.0416 -0.5156 -0.7198
 9538TIP3   OH228577   3.706   1.679   3.135 -0.0182  0.1703 -0.0092
 9538TIP3    H128578   3.648   1.607   3.162  1.7573 -1.1705  0.3758
 9538TIP3    H228579   3.646   1.753   3.121 -1.6880 -0.7199  1.8142
 9539TIP3   OH228580   5.309   4.497   2.137 -0.4798  0.2903 -0.7707
 9539TIP3    H128581   5.342   4.542   2.059 -0.7927 -3.4154 -3.2571
 9539TIP3    H228582   5.294   4.407   2.109 -1.4821 -1.0662  3.3965
 9540TIP3   OH228583   0.739   1.346   3.334  0.2170  0.7910 -0.7978
 9540TIP3    H128584   0.704   1.415   3.278 -1.8902  0.2961 -0.2191
 9540TIP3    H228585   0.683   1.270   3.316  3.1718 -1.2371 -2.2807
 9541TIP3   OH228586   6.424   1.800   2.957 -0.0748  0.6328 -0.5394
 9541TIP3    H128587   6.455   1.744   3.029  1.0593 -0.1739 -1.6214
 9541TIP3    H228588   6.485   1.873   2.956  0.6693  0.0266 -1.4277
 9542TIP3   OH228589   5.049   3.831   0.320  0.2728  0.1765 -0.1237
 9542TIP3    H128590   4.961   3.824   0.284  0.4973 -2.5369 -0.3712
 9542TIP3    H228591   5.038   3.816   0.414  0.5013 -0.9166 -0.2547
 9543TIP3   OH228592   5.680   2.282   5.849  0.5216  0.8029 -0.5969
 9543TIP3    H128593   5.697   2.350   5.784  0.8611  0.1368 -1.2194
 9543TIP3    H228594   5.716   2.202   5.810 -0.5429  0.1153 -0.2279
 9544TIP3   OH228595   2.266   6.534   2.210 -0.2265  0.6528  0.4513
 9544TIP3    H128596   2.298   6.621   2.233  1.0603  0.0961  0.8596
 9544TIP3    H228597   2.222   6.546   2.125  3.0181  1.1322 -1.3184
 9545TIP3   OH228598   1.068   3.187   4.664  0.4234 -0.2729  0.4523
 9545TIP3    H128599   1.037   3.097   4.673  0.5352 -0.4123 -0.4195
 9545TIP3    H228600   1.093   3.194   4.571  1.2807  0.3736  0.7201
 9546TIP3   OH228601   1.175   0.999   4.795 -0.3726  0.2368  0.5787
 9546TIP3    H128602   1.105   0.968   4.852  0.9782  0.6247  2.5732
 9546TIP3    H228603   1.243   1.029   4.855  0.3495  2.6029 -1.2574
 9547TIP3   OH228604   1.609   6.042   1.770  0.0990  0.7510 -0.0756
 9547TIP3    H128605   1.689   5.991   1.781  0.1998  0.6159 -1.3140
 9547TIP3    H228606   1.630   6.106   1.702 -0.7515  0.8980 -0.2117
 9548TIP3   OH228607   5.270   6.411   0.548  0.4376 -0.3118 -0.0270
 9548TIP3    H128608   5.200   6.476   0.557 -0.0859 -0.8674 -0.0352
 9548TIP3    H228609   5.236   6.346   0.487  0.7087 -0.9195  0.4522
 9549TIP3   OH228610   1.328   2.323   1.424  0.3232 -0.0392  0.6204
 9549TIP3    H128611   1.374   2.241   1.442 -1.6120 -1.3917 -0.2247
 9549TIP3    H228612   1.342   2.339   1.331 -0.0230  0.1030  0.5903
 9550TIP3   OH228613   2.724   2.362   2.984 -0.5422  0.8331  0.0174
 9550TIP3    H128614   2.699   2.349   3.076  0.3609  0.3192  0.2060
 9550TIP3    H228615   2.766   2.448   2.983  2.4835 -0.5056  0.8114
 9551TIP3   OH228616   3.713   6.336   3.834  0.0786  0.0004  0.3389
 9551TIP3    H128617   3.809   6.333   3.828  0.2906  1.5472  2.0986
 9551TIP3    H228618   3.695   6.382   3.916 -2.1798  1.0976 -0.6716
 9552TIP3   OH228619   4.681   0.766   4.159  0.8330 -0.4694  0.0157
 9552TIP3    H128620   4.664   0.759   4.065  0.6749 -1.2363  0.0930
 9552TIP3    H228621   4.751   0.703   4.175  0.5431 -0.6723  0.4902
 9553TIP3   OH228622   1.780   5.444   4.437  0.4318 -0.2686 -0.1335
 9553TIP3    H128623   1.824   5.393   4.369 -1.9536  0.2545 -2.2314
 9553TIP3    H228624   1.823   5.530   4.433  1.7794 -0.8803  0.6182
 9554TIP3   OH228625   2.137   2.399   0.919 -0.1657 -0.2146 -0.1136
 9554TIP3    H128626   2.219   2.368   0.956 -0.1834 -0.5142 -0.3138
 9554TIP3    H228627   2.159   2.424   0.829 -0.6853 -2.3382 -0.9122
 9555TIP3   OH228628   0.418   5.265   4.310  0.0516 -0.1072 -0.1674
 9555TIP3    H128629   0.414   5.358   4.288  0.4061 -0.1160 -0.2847
 9555TIP3    H228630   0.392   5.261   4.402 -0.2650  0.0719 -0.2482
 9556TIP3   OH228631   2.413   4.104   0.798 -0.0073  0.3587 -0.5420
 9556TIP3    H128632   2.334   4.070   0.840  0.7554  0.7178  1.3132
 9556TIP3    H228633   2.485   4.063   0.846  0.9629  0.0704 -2.1632
 9557TIP3   OH228634   4.995   6.685   0.596  0.2277  0.1305  0.0721
 9557TIP3    H128635   4.974   6.704   0.504  1.7663 -0.8966 -0.5246
 9557TIP3    H228636   4.914   6.650   0.632  0.4546 -2.7794 -1.8741
 9558TIP3   OH228637   2.366   0.392   1.593 -0.3093  0.0504  0.3774
 9558TIP3    H128638   2.383   0.465   1.532  0.2840 -0.9889 -0.7433
 9558TIP3    H228639   2.354   0.316   1.536 -0.7897 -0.7604  1.5335
 9559TIP3   OH228640   1.317   1.329   4.992 -0.4892 -0.1874 -0.8972
 9559TIP3    H128641   1.266   1.395   4.946  0.3248  0.7667 -0.4672
 9559TIP3    H228642   1.408   1.350   4.971 -0.2393 -2.1544 -2.0682
 9560TIP3   OH228643   0.433   4.362   2.798  0.5047  0.2512 -0.9155
 9560TIP3    H128644   0.524   4.339   2.778  0.4297 -1.1280  0.1827
 9560TIP3    H228645   0.406   4.418   2.725  1.9372 -0.0813 -1.7435
 9561TIP3   OH228646   6.976   4.649   5.470  0.1737  1.0420  0.6529
 9561TIP3    H128647   6.950   4.648   5.562  0.2878  1.2154  0.6872
 9561TIP3    H228648   7.039   4.577   5.463 -0.5864  0.3820  0.4869
 9562TIP3   OH228649   6.390   3.832   1.956  0.0046 -0.3605  0.0156
 9562TIP3    H128650   6.411   3.858   2.046 -0.3039  0.7097 -0.2107
 9562TIP3    H228651   6.446   3.756   1.939 -1.7961 -2.2980  2.0357
 9563TIP3   OH228652   0.531   4.640   4.256 -0.5265 -0.3862 -0.0492
 9563TIP3    H128653   0.529   4.588   4.337  1.2828 -0.4518 -0.0184
 9563TIP3    H228654   0.543   4.730   4.285  1.8554 -0.5868 -0.2447
 9564TIP3   OH228655   5.418   3.475   2.632  0.3536 -0.2138 -0.2006
 9564TIP3    H128656   5.399   3.566   2.656  1.3481 -0.0231 -0.0901
 9564TIP3    H228657   5.482   3.446   2.697  0.4643 -0.8086 -0.5675
 9565TIP3   OH228658   1.149   6.643   5.866 -0.0838  0.1944  0.2621
 9565TIP3    H128659   1.114   6.732   5.871  1.0363  0.7807 -1.4343
 9565TIP3    H228660   1.200   6.642   5.785  0.4849 -1.8051  0.5946
 9566TIP3   OH228661   1.554   3.701   5.197 -0.5319 -0.7244  0.3525
 9566TIP3    H128662   1.557   3.796   5.189 -0.8858 -0.7962 -0.8795
 9566TIP3    H228663   1.502   3.672   5.122 -2.7016 -1.7349  2.1382
 9567TIP3   OH228664   3.234   0.553   5.744 -0.6917 -1.0175 -0.2945
 9567TIP3    H128665   3.235   0.516   5.832 -0.1131 -0.6621 -0.1438
 9567TIP3    H228666   3.307   0.615   5.743 -0.9231 -0.7431 -0.9072
 9568TIP3   OH228667   6.443   6.342   5.798 -0.2790 -0.0966  0.6646
 9568TIP3    H128668   6.427   6.436   5.789  0.4029 -0.1183 -1.0903
 9568TIP3    H228669   6.449   6.310   5.709 -2.6924 -2.2513  1.1619
 9569TIP3   OH228670   2.410   6.255   3.495 -0.2610 -0.0339 -0.3315
 9569TIP3    H128671   2.468   6.245   3.570 -0.6436  2.6187  0.4054
 9569TIP3    H228672   2.467   6.242   3.419  0.6129 -0.5697  0.3982
 9570TIP3   OH228673   6.436   6.555   0.888  0.0031 -0.2637 -0.4307
 9570TIP3    H128674   6.407   6.465   0.877 -1.0336  0.0705 -0.5999
 9570TIP3    H228675   6.368   6.596   0.942  1.3307 -0.0135  1.1605
 9571TIP3   OH228676   1.819   2.537   1.370  0.6156  0.4098  0.8645
 9571TIP3    H128677   1.886   2.482   1.329 -0.6305 -0.2745 -0.3616
 9571TIP3    H228678   1.785   2.485   1.442 -0.1690 -0.2286  0.0546
 9572TIP3   OH228679   5.726   5.668   0.402 -0.1510 -0.2029  0.2371
 9572TIP3    H128680   5.668   5.681   0.327  1.2757 -0.2718 -0.9164
 9572TIP3    H228681   5.764   5.755   0.418 -0.3484 -0.2175  0.8089
 9573TIP3   OH228682   1.106   4.959   0.803  0.0543  0.7331  0.1799
 9573TIP3    H128683   1.180   4.918   0.849 -0.0696  0.8962  0.5288
 9573TIP3    H228684   1.145   4.997   0.724  0.5229  1.6358  0.8225
 9574TIP3   OH228685   3.315   2.253   2.523 -0.4794 -0.0117 -0.0399
 9574TIP3    H128686   3.406   2.250   2.554  0.3027 -1.1156 -2.2934
 9574TIP3    H228687   3.279   2.332   2.564  1.3400  0.2267  1.2236
 9575TIP3   OH228688   2.000   0.951   0.535 -0.0323 -0.2588  0.0879
 9575TIP3    H128689   2.043   1.008   0.598  0.8694 -2.0203  1.1317
 9575TIP3    H228690   1.909   0.980   0.535 -0.6904 -1.7449  4.1385
 9576TIP3   OH228691   4.883   1.473   2.161 -0.0068  0.0202  0.3436
 9576TIP3    H128692   4.863   1.418   2.084  0.1805 -0.4271  0.6091
 9576TIP3    H228693   4.975   1.497   2.148  0.0595 -0.1542  0.4857
 9577TIP3   OH228694   6.896   1.384   1.321  0.1693 -0.1973  0.7246
 9577TIP3    H128695   6.951   1.365   1.398  1.7892  1.3356  0.0209
 9577TIP3    H228696   6.942   1.341   1.249  0.1037  0.5836  0.2158
 9578TIP3   OH228697   0.100   0.085   3.259 -0.6892  0.0942  0.0285
 9578TIP3    H128698   0.134   0.116   3.343  0.2690  1.3132 -0.7767
 9578TIP3    H228699   0.165   0.112   3.195 -1.1368 -1.2820 -1.0698
 9579TIP3   OH228700   3.906   0.335   0.416 -0.7894 -0.0365 -0.2086
 9579TIP3    H128701   3.884   0.410   0.360  0.7915 -0.2074 -1.1455
 9579TIP3    H228702   3.890   0.366   0.505 -2.8984  0.4186 -0.6864
 9580TIP3   OH228703   0.105   0.909   2.445 -0.3469 -0.4288  0.5883
 9580TIP3    H128704   0.165   0.979   2.421 -1.0649  0.1915  0.5398
 9580TIP3    H228705   0.111   0.846   2.374 -1.4222  0.7194 -0.5939
 9581TIP3   OH228706   1.234   6.024   1.097  0.4417  0.3707  0.5647
 9581TIP3    H128707   1.187   5.964   1.155 -0.1969  0.1435 -0.1696
 9581TIP3    H228708   1.207   5.999   1.008  1.1730  0.8979  0.1722
 9582TIP3   OH228709   6.794   5.637   5.337  0.3326 -0.1872  0.0507
 9582TIP3    H128710   6.702   5.612   5.345 -0.3450  2.0081 -0.0865
 9582TIP3    H228711   6.829   5.627   5.425  0.3528 -2.2810 -0.1526
 9583TIP3   OH228712   2.006   5.268   3.315 -0.2730  0.2507  0.4935
 9583TIP3    H128713   2.023   5.190   3.369  2.4459  0.8825  0.6983
 9583TIP3    H228714   2.091   5.291   3.279 -1.4117  1.8837 -1.3454
 9584TIP3   OH228715   1.151   6.562   2.659  0.0941 -0.5135 -0.1141
 9584TIP3    H128716   1.205   6.503   2.712 -0.6865 -2.4403 -1.3253
 9584TIP3    H228717   1.153   6.523   2.572 -1.3822  0.6593 -0.7098
 9585TIP3   OH228718   6.627   1.348   0.069  0.1047  0.2097 -0.3183
 9585TIP3    H128719   6.635   1.364   0.163 -0.9680  0.3861 -0.2356
 9585TIP3    H228720   6.536   1.320   0.058  0.5378 -0.9188 -1.1559
 9586TIP3   OH228721   2.643   4.051   4.252  0.1599 -0.3130  0.3602
 9586TIP3    H128722   2.633   4.089   4.165  1.7213 -0.4793  0.0900
 9586TIP3    H228723   2.566   4.082   4.300 -1.4886 -1.3593 -1.4538
 9587TIP3   OH228724   2.504   4.230   4.903  0.4061  0.4811 -0.4022
 9587TIP3    H128725   2.591   4.238   4.864  0.8769  1.9710  0.8802
 9587TIP3    H228726   2.518   4.241   4.997 -1.0510 -0.3088 -0.0660
 9588TIP3   OH228727   1.090   5.218   0.219 -0.4839  0.1248  0.4487
 9588TIP3    H128728   1.095   5.267   0.301 -0.3792 -0.0271  0.5331
 9588TIP3    H228729   1.112   5.282   0.151 -0.4477  0.2202  0.5512
 9589TIP3   OH228730   5.835   6.474   4.550  0.3660  0.3772  0.1434
 9589TIP3    H128731   5.746   6.453   4.578  0.0053  1.0725 -0.4524
 9589TIP3    H228732   5.879   6.389   4.546  0.0076  0.1147  1.3409
 9590TIP3   OH228733   5.585   2.316   4.902 -0.1351  0.1390  0.4421
 9590TIP3    H128734   5.627   2.391   4.860 -0.2332  0.1424  0.3474
 9590TIP3    H228735   5.529   2.355   4.970  0.9092  0.0659  1.3681
 9591TIP3   OH228736   2.595   1.749   0.870  0.3776 -0.5602  0.6470
 9591TIP3    H128737   2.598   1.697   0.790 -0.0001 -2.4616  1.8029
 9591TIP3    H228738   2.686   1.755   0.899  0.4922 -0.0284  0.1832
 9592TIP3   OH228739   2.873   5.759   5.446 -0.6967 -0.1918  0.2579
 9592TIP3    H128740   2.935   5.820   5.406  0.5709 -0.9901  0.9408
 9592TIP3    H228741   2.855   5.796   5.532  0.0497 -0.7397  0.6613
 9593TIP3   OH228742   5.414   4.336   4.489  0.3828 -0.4692 -0.5658
 9593TIP3    H128743   5.399   4.428   4.467  0.6885  0.3814  2.4635
 9593TIP3    H228744   5.509   4.326   4.489  0.3390 -1.1474 -2.0390
 9594TIP3   OH228745   5.696   2.402   1.125 -0.6708  0.5270 -0.5446
 9594TIP3    H128746   5.781   2.367   1.150 -1.5087  0.0412  1.9340
 9594TIP3    H228747   5.712   2.494   1.105  0.5415  0.2460 -0.9500
 9595TIP3   OH228748   2.755   3.163   0.068 -0.0741 -0.2135 -0.4321
 9595TIP3    H128749   2.677   3.120   0.032 -0.2392  1.7249 -2.6312
 9595TIP3    H228750   2.734   3.256   0.067  2.1070  0.3335 -0.6834
 9596TIP3   OH228751   1.985   3.940   5.451 -0.0367  0.1187 -0.4357
 9596TIP3    H128752   2.041   4.016   5.433  1.3882 -0.8138 -0.0953
 9596TIP3    H228753   1.947   3.918   5.367 -3.1081  3.1247 -0.0603
 9597TIP3   OH228754   1.539   1.252   5.522  0.3382  0.0772  1.0011
 9597TIP3    H128755   1.584   1.167   5.524  0.5430  0.0710 -1.1337
 9597TIP3    H228756   1.497   1.254   5.436 -1.8820  1.0590  2.0454
 9598TIP3   OH228757   3.294   2.374   3.410 -0.2484  0.0807  0.1687
 9598TIP3    H128758   3.338   2.434   3.351  0.2133  2.3729  2.6423
 9598TIP3    H228759   3.352   2.368   3.486 -1.4805 -1.5377  1.0534
 9599TIP3   OH228760   2.166   0.368   3.323  0.1728 -0.0475 -0.7497
 9599TIP3    H128761   2.140   0.367   3.416 -0.5159  0.1156 -0.9317
 9599TIP3    H228762   2.091   0.408   3.278  0.3198 -0.5326 -1.4337
 9600TIP3   OH228763   3.532   2.666   2.544 -0.3144  0.2147  0.2349
 9600TIP3    H128764   3.437   2.655   2.542 -0.2036 -0.7665 -1.1436
 9600TIP3    H228765   3.548   2.740   2.485 -0.1030 -0.9162 -1.1719
 9601TIP3   OH228766   2.985   5.453   0.666 -0.0729 -0.2600 -0.1692
 9601TIP3    H128767   2.909   5.411   0.626  0.2974  0.6965 -1.9622
 9601TIP3    H228768   3.057   5.434   0.606  0.7446  0.2980  0.6202
 9602TIP3   OH228769   5.477   6.173   4.738  0.0674 -0.2132  0.0596
 9602TIP3    H128770   5.419   6.195   4.666  0.9995 -0.2546 -0.7233
 9602TIP3    H228771   5.534   6.104   4.703  1.8457  1.1421  0.1409
 9603TIP3   OH228772   6.981   5.667   1.413  0.7426 -0.2412 -0.7568
 9603TIP3    H128773   7.039   5.593   1.395  1.4103  0.5746 -2.1346
 9603TIP3    H228774   7.032   5.726   1.469  0.4724 -0.4700 -0.2590
 9604TIP3   OH228775   0.023   6.196   5.500 -0.4031 -0.1178 -0.2403
 9604TIP3    H128776   0.026   6.250   5.421  0.4659  0.5679  0.2472
 9604TIP3    H228777   0.107   6.211   5.543 -1.2011  0.2205  1.2771
 9605TIP3   OH228778   1.489   0.833   5.587 -0.1209  0.0252  0.9000
 9605TIP3    H128779   1.515   0.779   5.512  2.5839  0.5029  1.3687
 9605TIP3    H228780   1.472   0.770   5.657 -3.1198 -0.4505 -0.1352
 9606TIP3   OH228781   5.384   4.839   0.930 -0.3580 -0.3611 -0.0326
 9606TIP3    H128782   5.308   4.816   0.876 -0.8967 -0.4991  0.7754
 9606TIP3    H228783   5.359   4.921   0.973  0.9692  1.0254 -1.7464
 9607TIP3   OH228784   3.012   4.704   1.713  0.3006 -0.3838 -0.5692
 9607TIP3    H128785   2.964   4.706   1.796  1.1591  0.3515 -0.0633
 9607TIP3    H228786   2.979   4.627   1.668  0.7014 -1.5646  1.0351
 9608TIP3   OH228787   2.285   0.144   1.796  0.2704 -0.3818 -0.3378
 9608TIP3    H128788   2.191   0.162   1.793  0.7465  2.5211 -0.8312
 9608TIP3    H228789   2.310   0.139   1.704  0.4776 -2.2831 -0.2161
 9609TIP3   OH228790   0.905   0.326   5.524  0.2273 -0.0371  0.3555
 9609TIP3    H128791   0.975   0.296   5.465  0.6162 -0.2614  0.9155
 9609TIP3    H228792   0.829   0.273   5.501 -0.2355  1.2708 -1.3172
 9610TIP3   OH228793   0.916   3.610   2.976  0.2987  0.1239 -0.2452
 9610TIP3    H128794   0.926   3.687   2.919 -2.9350  0.3488 -0.6620
 9610TIP3    H228795   0.822   3.593   2.978  0.7026 -2.5094  1.6493
 9611TIP3   OH228796   4.049   4.679   5.649 -0.0377 -0.6915 -0.4207
 9611TIP3    H128797   4.081   4.634   5.571  2.6543 -0.4448  0.4255
 9611TIP3    H228798   4.020   4.764   5.617  1.2119 -0.5188 -1.1731
 9612TIP3   OH228799   2.509   5.099   3.407 -0.2226 -0.9812  0.3566
 9612TIP3    H128800   2.540   5.074   3.494 -1.1196  0.8490  1.2566
 9612TIP3    H228801   2.518   5.195   3.405 -1.2204 -0.8901 -1.1645
 9613TIP3   OH228802   5.974   0.071   0.529 -0.3858  0.0489  0.0206
 9613TIP3    H128803   5.994   0.164   0.518 -0.6763  0.0266 -0.8071
 9613TIP3    H228804   6.023   0.028   0.459  0.5751 -0.5442  1.0356
 9614TIP3   OH228805   6.330   3.895   0.649  0.1394 -0.7479 -0.7248
 9614TIP3    H128806   6.368   3.907   0.736 -0.5936  0.1601 -0.5051
 9614TIP3    H228807   6.288   3.810   0.652 -0.0348 -0.6450 -0.1250
 9615TIP3   OH228808   6.674   1.328   2.340 -0.6100  0.0365  0.1723
 9615TIP3    H128809   6.707   1.391   2.275  0.2261 -2.0452 -1.5282
 9615TIP3    H228810   6.753   1.293   2.381 -0.9880 -0.8241  0.1750
 9616TIP3   OH228811   1.081   1.863   3.710 -0.3698 -0.2093 -0.2740
 9616TIP3    H128812   1.024   1.786   3.715  1.0161 -1.2213  0.9702
 9616TIP3    H228813   1.159   1.831   3.666  0.7388  0.1078  1.3724
 9617TIP3   OH228814   1.288   2.223   5.681 -0.1523 -0.4974  0.5269
 9617TIP3    H128815   1.351   2.165   5.639  0.8026  0.9976 -0.1672
 9617TIP3    H228816   1.275   2.295   5.619 -2.2050 -0.5203  0.8482
 9618TIP3   OH228817   0.500   1.500   3.383 -0.0229  0.1017  0.4236
 9618TIP3    H128818   0.447   1.445   3.441 -0.8714  0.6899  0.2302
 9618TIP3    H228819   0.505   1.584   3.428  2.9942 -0.6544  1.7130
 9619TIP3   OH228820   0.589   1.913   1.919 -0.0162 -0.7433 -0.2514
 9619TIP3    H128821   0.544   1.995   1.941  2.6474  0.5527  0.8164
 9619TIP3    H228822   0.595   1.866   2.002 -0.0803 -1.2657 -0.5366
 9620TIP3   OH228823   6.810   4.072   0.160  0.1362  0.1171  0.1873
 9620TIP3    H128824   6.774   4.013   0.094 -0.8575  0.5582  0.3084
 9620TIP3    H228825   6.743   4.140   0.170 -0.1665 -0.4175  2.2739
 9621TIP3   OH228826   5.417   1.621   1.503 -0.0813  0.5349  0.1297
 9621TIP3    H128827   5.378   1.549   1.454  1.7194 -0.3414 -0.0748
 9621TIP3    H228828   5.368   1.623   1.586 -1.4247  0.3722 -0.6214
 9622TIP3   OH228829   0.357   0.802   4.948  0.1985  0.0707  0.0072
 9622TIP3    H128830   0.409   0.786   5.027 -0.5326 -1.0659  0.2840
 9622TIP3    H228831   0.365   0.896   4.932  1.2039  0.1363  0.8322
 9623TIP3   OH228832   0.896   4.799   3.229  0.5857 -0.4154 -0.3594
 9623TIP3    H128833   0.986   4.767   3.239  0.3160 -1.1315 -0.1425
 9623TIP3    H228834   0.892   4.878   3.283  1.0168 -0.5168 -0.1763
 9624TIP3   OH228835   3.978   5.372   0.424  0.0361  0.9707 -0.0276
 9624TIP3    H128836   3.990   5.434   0.351 -0.0502 -0.5020 -1.3397
 9624TIP3    H228837   4.031   5.297   0.400 -0.5068  0.1915  1.1435
 9625TIP3   OH228838   4.167   6.449   5.509  0.0395  0.0588 -0.0757
 9625TIP3    H128839   4.233   6.517   5.520 -0.7312  1.0992 -1.5123
 9625TIP3    H228840   4.209   6.384   5.454 -0.2771  1.0015 -1.4849
 9626TIP3   OH228841   1.515   4.370   2.585 -0.2741  0.0845  0.6971
 9626TIP3    H128842   1.557   4.456   2.583  0.4396 -0.2716 -0.7528
 9626TIP3    H228843   1.483   4.362   2.675 -1.7207  2.4873  0.4820
 9627TIP3   OH228844   4.819   4.013   2.425  0.1338  0.3046  0.8333
 9627TIP3    H128845   4.793   3.951   2.493 -0.6349 -0.0658  0.2184
 9627TIP3    H228846   4.899   3.976   2.388 -0.9099 -0.9251 -0.2700
 9628TIP3   OH228847   5.929   1.986   0.257 -0.8453 -0.0651  0.2911
 9628TIP3    H128848   5.851   2.011   0.306  0.5867  1.2128  2.0722
 9628TIP3    H228849   5.986   1.945   0.322  0.7948  0.9467 -0.4279
 9629TIP3   OH228850   6.360   4.211   3.231  0.7884 -0.6570  0.4962
 9629TIP3    H128851   6.365   4.135   3.173 -1.2754  0.3904 -1.1897
 9629TIP3    H228852   6.425   4.272   3.196  1.0199 -0.8440  0.5962
 9630TIP3   OH228853   4.822   3.968   3.356 -0.9539  0.2128 -0.6504
 9630TIP3    H128854   4.752   4.015   3.400 -0.3616  2.6423 -2.0734
 9630TIP3    H228855   4.903   4.004   3.393 -0.3708 -2.1672  0.6052
 9631TIP3   OH228856   1.475   0.509   4.233 -0.3720  0.3501 -0.0222
 9631TIP3    H128857   1.485   0.503   4.328 -0.9303 -2.4174 -0.0601
 9631TIP3    H228858   1.381   0.523   4.220 -0.3616  0.2941 -0.1584
 9632TIP3   OH228859   1.348   0.529   0.870  0.4967 -0.4195 -0.3260
 9632TIP3    H128860   1.385   0.468   0.806  0.3374  1.3193 -2.1347
 9632TIP3    H228861   1.396   0.610   0.857 -1.2759  0.7316 -0.0148
 9633TIP3   OH228862   5.051   3.745   1.154  0.1499 -0.1243 -0.0087
 9633TIP3    H128863   5.121   3.786   1.104  1.4159 -1.3993  0.6521
 9633TIP3    H228864   5.003   3.818   1.192 -1.1498  0.9583 -3.3276
 9634TIP3   OH228865   5.973   6.408   0.182 -0.3560  0.6738  0.0810
 9634TIP3    H128866   5.944   6.319   0.206 -3.1533  1.4963  0.1423
 9634TIP3    H228867   5.970   6.457   0.265 -0.9782  1.3191 -0.3122
 9635TIP3   OH228868   6.594   1.931   3.850 -0.1774 -0.5152 -0.6876
 9635TIP3    H128869   6.599   1.908   3.757 -0.2701 -1.9770 -0.3507
 9635TIP3    H228870   6.624   1.853   3.896  0.9375  0.5625  0.5057
 9636TIP3   OH228871   0.958   1.655   5.659  0.5095 -0.0885 -0.2642
 9636TIP3    H128872   1.024   1.588   5.643 -0.7295 -1.0374 -1.6496
 9636TIP3    H228873   0.990   1.733   5.614  0.7518 -0.4948 -0.7968
 9637TIP3   OH228874   1.459   2.211   0.754 -0.1836 -0.1226 -0.2009
 9637TIP3    H128875   1.518   2.139   0.728  1.5390  1.2388 -0.2731
 9637TIP3    H228876   1.518   2.285   0.767 -1.4267  0.4091  3.3805
 9638TIP3   OH228877   0.030   0.037   1.555 -0.0839  0.0532  0.0104
 9638TIP3    H128878   0.100  -0.024   1.579  0.1253  1.2733  2.9657
 9638TIP3    H228879  -0.050  -0.006   1.585 -0.2110  0.1462 -0.1955
 9639TIP3   OH228880   6.548   0.102   3.917  0.2290  0.1985  1.3241
 9639TIP3    H128881   6.631   0.144   3.940  1.2214 -0.9687  0.0709
 9639TIP3    H228882   6.574   0.017   3.881 -1.3651  0.5424 -0.8180
 9640TIP3   OH228883   4.975   3.474   3.371  0.2665  0.3814  0.5547
 9640TIP3    H128884   4.932   3.539   3.427  0.2292 -1.0615  2.2678
 9640TIP3    H228885   4.937   3.489   3.284 -0.4562  1.9944  1.1147
 9641TIP3   OH228886   4.491   0.564   0.355 -0.0863 -0.7222  0.1193
 9641TIP3    H128887   4.405   0.582   0.394  0.0781  0.7980 -0.1488
 9641TIP3    H228888   4.472   0.517   0.274 -0.6324 -0.8815  0.3357
 9642TIP3   OH228889   4.610   6.152   4.794 -1.0346 -0.1035  0.0736
 9642TIP3    H128890   4.698   6.186   4.805 -0.9313 -0.3949  0.1469
 9642TIP3    H228891   4.605   6.128   4.701 -1.2730  0.5697 -0.0917
 9643TIP3   OH228892   6.045   6.429   0.900  0.2004  0.1935  0.2352
 9643TIP3    H128893   6.116   6.414   0.962 -0.1994  0.8977  0.8938
 9643TIP3    H228894   5.988   6.492   0.945 -0.4023  0.2686 -0.6163
 9644TIP3   OH228895   6.702   4.525   2.320  0.2511 -0.2711 -0.0061
 9644TIP3    H128896   6.714   4.440   2.279  0.8601 -0.5192  0.6758
 9644TIP3    H228897   6.639   4.510   2.390  1.4629 -0.5077  1.0865
 9645TIP3   OH228898   2.040   2.865   0.438 -0.2690  0.0689  0.4079
 9645TIP3    H128899   2.049   2.770   0.449  0.3162  0.0824  0.1032
 9645TIP3    H228900   1.946   2.879   0.427 -0.4044 -0.4303  0.8483
 9646TIP3   OH228901   6.970   6.087   3.757 -0.3963  0.7600 -0.3386
 9646TIP3    H128902   6.963   6.150   3.830  0.6002  1.2758 -0.6687
 9646TIP3    H228903   6.922   6.010   3.788 -0.8703  1.3481  0.4471
 9647TIP3   OH228904   3.515   0.347   1.433  0.1125 -0.1665  0.3837
 9647TIP3    H128905   3.433   0.315   1.395  0.1884 -1.1032  0.9809
 9647TIP3    H228906   3.539   0.281   1.497  1.2488  0.1968  0.3460
 9648TIP3   OH228907   1.964   0.549   5.462  0.5749 -0.3226  0.0390
 9648TIP3    H128908   2.039   0.549   5.402 -0.0893 -1.0923 -0.8277
 9648TIP3    H228909   1.954   0.457   5.488 -0.6400 -0.4063 -0.6275
 9649TIP3   OH228910   5.165   1.057   5.495 -0.4345  0.0119 -0.1798
 9649TIP3    H128911   5.210   1.141   5.503 -0.9422  0.1296  2.1628
 9649TIP3    H228912   5.176   1.032   5.403  1.1768  1.8039 -0.5262
 9650TIP3   OH228913   0.076   6.227   3.050  0.0906 -0.1676 -0.1318
 9650TIP3    H128914   0.080   6.321   3.035  0.3800 -0.1552  0.0406
 9650TIP3    H228915   0.009   6.196   2.988 -0.9706  0.3339  0.7367
 9651TIP3   OH228916   2.177   4.086   5.735  0.1577 -0.7091  0.0212
 9651TIP3    H128917   2.140   4.169   5.704  0.7613  0.1419  1.4519
 9651TIP3    H228918   2.268   4.088   5.704  0.2457 -0.7120  0.2803
 9652TIP3   OH228919   4.270   1.855   1.179 -0.6684  0.6375 -0.5351
 9652TIP3    H128920   4.357   1.815   1.178 -0.8953  0.0198  1.1446
 9652TIP3    H228921   4.269   1.909   1.258 -2.2432 -0.4379  0.2408
 9653TIP3   OH228922   3.750   3.381   3.845  0.1416 -0.0233 -0.3782
 9653TIP3    H128923   3.701   3.451   3.887 -2.6825 -1.9675 -0.1913
 9653TIP3    H228924   3.723   3.384   3.753  0.0229 -0.8211 -0.3774
 9654TIP3   OH228925   0.663   1.121   1.270 -0.1014 -0.2100  0.0983
 9654TIP3    H128926   0.612   1.041   1.254 -0.4382  0.1738 -0.8260
 9654TIP3    H228927   0.616   1.189   1.222  1.7166  0.0214 -1.4375
 9655TIP3   OH228928   0.434   5.168   1.347 -0.0470 -0.3350 -0.8297
 9655TIP3    H128929   0.520   5.147   1.385  0.6366  0.1615 -2.0390
 9655TIP3    H228930   0.372   5.118   1.400  0.9758 -0.6318  0.1367
 9656TIP3   OH228931   4.919   3.431   5.824 -0.1348  0.2721 -0.0586
 9656TIP3    H128932   5.002   3.472   5.800 -0.6498  2.3823  1.4237
 9656TIP3    H228933   4.871   3.500   5.872 -1.2978 -1.9360  2.1992
 9657TIP3   OH228934   3.926   3.322   3.384  0.1032  0.7732 -0.7290
 9657TIP3    H128935   3.985   3.387   3.422 -0.6939  1.4695 -0.6328
 9657TIP3    H228936   3.839   3.363   3.391 -0.3075  0.0340 -1.4143
 9658TIP3   OH228937   4.413   0.460   3.663  0.6172  0.1688 -0.5413
 9658TIP3    H128938   4.402   0.402   3.588  1.6529 -0.9624  0.1551
 9658TIP3    H228939   4.377   0.544   3.634  2.4990  0.2459 -2.8999
 9659TIP3   OH228940   6.953   3.529   4.645  0.3959 -0.2327  0.3723
 9659TIP3    H128941   6.983   3.447   4.606  1.9486  0.6137 -0.2873
 9659TIP3    H228942   6.862   3.511   4.670 -0.2398 -1.2885 -2.3287
 9660TIP3   OH228943   2.861   0.151   2.965 -0.3285  0.2267  0.0208
 9660TIP3    H128944   2.804   0.221   2.932  1.0677  0.6160 -1.6940
 9660TIP3    H228945   2.845   0.150   3.059 -2.6803  0.7405 -0.3138
 9661TIP3   OH228946   5.566   6.359   4.556 -0.5702 -0.1692 -1.1155
 9661TIP3    H128947   5.486   6.411   4.549 -0.7244 -0.1659  0.2637
 9661TIP3    H228948   5.548   6.298   4.628 -0.0346 -1.4741 -2.0571
 9662TIP3   OH228949   5.882   3.907   0.777 -0.0476 -0.2686 -0.1107
 9662TIP3    H128950   5.925   3.827   0.806  1.4790 -0.2513 -2.1148
 9662TIP3    H228951   5.954   3.968   0.761 -1.0510  0.8752 -0.4435
 9663TIP3   OH228952   5.405   3.563   4.203 -0.8676  0.0824 -0.2737
 9663TIP3    H128953   5.462   3.493   4.236 -0.6414  1.2439  1.9690
 9663TIP3    H228954   5.423   3.638   4.260 -2.0313  1.5978 -1.7998
 9664TIP3   OH228955   0.544   5.516   3.495 -0.2829  0.1202  0.4139
 9664TIP3    H128956   0.599   5.440   3.477 -1.3905 -0.5756 -0.1454
 9664TIP3    H228957   0.546   5.525   3.591  1.4473  0.6443  0.3729
 9665TIP3   OH228958   4.838   1.992   4.782  0.0667 -0.0321 -0.3923
 9665TIP3    H128959   4.807   2.082   4.772 -0.3938 -0.2005 -0.5376
 9665TIP3    H228960   4.912   1.984   4.722 -0.4285  0.0042 -1.0168
 9666TIP3   OH228961   0.191   2.706   3.325  0.1257  0.1533 -0.1280
 9666TIP3    H128962   0.158   2.775   3.383 -0.7401 -0.4453  0.1278
 9666TIP3    H228963   0.228   2.640   3.385 -0.0900 -0.1237 -0.2951
 9667TIP3   OH228964   0.101   1.552   3.437  0.5748  0.1347 -0.4099
 9667TIP3    H128965   0.074   1.518   3.352  0.4757 -0.5071 -0.1283
 9667TIP3    H228966   0.027   1.606   3.466  0.1447 -0.5184 -0.2538
 9668TIP3   OH228967   1.166   1.285   1.893  0.0686 -0.1077  0.0843
 9668TIP3    H128968   1.157   1.196   1.859  0.2139  0.2520 -0.9549
 9668TIP3    H228969   1.207   1.275   1.978  0.3604 -1.0137 -0.1550
 9669TIP3   OH228970   1.462   1.319   1.309  0.3085  0.0356  0.2165
 9669TIP3    H128971   1.424   1.343   1.393 -1.6308 -2.0813  0.0337
 9669TIP3    H228972   1.410   1.366   1.244 -1.5140 -2.1331  0.0146
 9670TIP3   OH228973   3.521   0.568   3.373 -0.3426 -0.0023  0.2552
 9670TIP3    H128974   3.555   0.625   3.442 -0.9220  0.6150  0.0412
 9670TIP3    H228975   3.459   0.510   3.417 -0.0543 -0.1990  0.4029
 9671TIP3   OH228976   1.861   5.509   0.840 -0.5304  0.0165 -0.2834
 9671TIP3    H128977   1.939   5.551   0.878  0.1547 -2.5287  1.3365
 9671TIP3    H228978   1.801   5.500   0.913 -2.0068  1.0070 -1.3099
 9672TIP3   OH228979   3.738   6.110   1.586 -0.1037 -0.8347  0.6839
 9672TIP3    H128980   3.798   6.036   1.596  0.2143 -0.5820  0.6741
 9672TIP3    H228981   3.707   6.104   1.496  0.4696 -0.5513  0.4628
 9673TIP3   OH228982   2.744   2.858   3.080  0.3875  0.1211 -0.5228
 9673TIP3    H128983   2.727   2.768   3.053  0.9289 -0.4607  0.9577
 9673TIP3    H228984   2.798   2.894   3.009  0.8983 -0.9975 -0.7347
 9674TIP3   OH228985   2.864   0.899   5.025  0.4346 -0.4216  0.4937
 9674TIP3    H128986   2.937   0.933   5.076 -0.2039 -0.1814  1.2743
 9674TIP3    H228987   2.879   0.805   5.021  2.2507 -0.1161 -1.7410
 9675TIP3   OH228988   3.353   3.650   1.421 -0.5455 -0.7781 -0.0367
 9675TIP3    H128989   3.430   3.621   1.373 -0.3307  0.2949 -0.3528
 9675TIP3    H228990   3.384   3.660   1.511  0.3594  1.9637 -0.5669
 9676TIP3   OH228991   5.057   2.652   3.427  0.5595 -0.5155  0.0165
 9676TIP3    H128992   5.101   2.618   3.505 -0.6251 -1.4187  0.3271
 9676TIP3    H228993   4.968   2.673   3.458 -0.3335 -2.0618 -1.3205
 9677TIP3   OH228994   6.132   1.181   4.155 -0.5317 -0.6669 -0.1211
 9677TIP3    H128995   6.159   1.097   4.117  3.5196 -0.7909  2.3514
 9677TIP3    H228996   6.142   1.244   4.083  3.6238 -1.3687 -0.4336
 9678TIP3   OH228997   2.072   1.699   4.937 -0.3937  0.2408 -0.1517
 9678TIP3    H128998   2.075   1.794   4.924  1.1054  0.1787 -0.4106
 9678TIP3    H228999   1.991   1.684   4.987 -1.1589  1.5324 -0.9534
 9679TIP3   OH229000   0.635   1.245   1.518 -0.2157 -0.1130  0.2311
 9679TIP3    H129001   0.716   1.294   1.532 -0.2385 -0.1070  0.3435
 9679TIP3    H229002   0.647   1.203   1.432 -0.0119 -0.2709  0.3340
 9680TIP3   OH229003   3.671   6.283   2.715 -0.7503  0.5354  0.1937
 9680TIP3    H129004   3.711   6.368   2.735  1.5878 -0.4828  0.1749
 9680TIP3    H229005   3.583   6.305   2.685 -0.8611  2.8135  1.9198
 9681TIP3   OH229006   1.881   2.770   5.865  0.0845 -0.2003  0.5222
 9681TIP3    H129007   1.912   2.715   5.792 -0.6912 -0.4735  0.3886
 9681TIP3    H229008   1.936   2.848   5.861  0.0177 -0.1895 -0.3932
 9682TIP3   OH229009   0.880   3.710   4.390 -0.1675 -0.5018  0.0803
 9682TIP3    H129010   0.892   3.666   4.474 -1.0906  0.8247  0.9483
 9682TIP3    H229011   0.914   3.648   4.325  0.3332 -1.6583  1.3980
 9683TIP3   OH229012   4.164   6.712   5.756  0.3012  0.1786 -0.2969
 9683TIP3    H129013   4.093   6.751   5.807 -0.1298  0.5964 -1.2094
 9683TIP3    H229014   4.182   6.775   5.686  1.3921 -0.0444 -0.2400
 9684TIP3   OH229015   1.059   5.900   1.238 -0.3197  0.0345  0.5403
 9684TIP3    H129016   1.109   5.822   1.262 -2.3056 -2.0135 -1.4773
 9684TIP3    H229017   1.014   5.876   1.157 -3.4131  2.1739  1.4197
 9685TIP3   OH229018   0.585   4.423   3.749  0.2901 -0.2874  0.1263
 9685TIP3    H129019   0.561   4.490   3.814  2.8694  0.1512  0.7353
 9685TIP3    H229020   0.620   4.473   3.676  1.3728 -0.9168  0.1969
 9686TIP3   OH229021   1.379   1.029   1.731  0.0185 -0.0910 -0.5255
 9686TIP3    H129022   1.289   1.039   1.761  0.7178  0.7650  1.4940
 9686TIP3    H229023   1.395   0.935   1.734 -1.5335 -0.5383 -3.3980
 9687TIP3   OH229024   6.094   6.610   2.680  0.0189 -0.0275  0.5791
 9687TIP3    H129025   6.094   6.550   2.754  0.5660 -1.0426 -0.2241
 9687TIP3    H229026   6.004   6.641   2.674 -0.7346 -2.1476 -0.0606
 9688TIP3   OH229027   6.876   0.384   3.112 -0.2675 -0.4644  0.0403
 9688TIP3    H129028   6.952   0.328   3.130 -0.7411 -1.5472 -1.1970
 9688TIP3    H229029   6.801   0.332   3.140 -0.8164 -1.0589 -2.3240
 9689TIP3   OH229030   2.221   2.590   4.739  0.1287 -0.6133  0.9560
 9689TIP3    H129031   2.195   2.577   4.830 -0.8791  0.5046  0.8521
 9689TIP3    H229032   2.182   2.673   4.714  1.2321 -0.4042 -0.2080
 9690TIP3   OH229033   5.259   1.964   3.783 -0.1975  0.0735 -0.2890
 9690TIP3    H129034   5.253   1.991   3.691  0.4485 -2.4418 -1.1579
 9690TIP3    H229035   5.346   1.993   3.811 -0.7822  1.7583 -0.0866
 9691TIP3   OH229036   5.925   3.905   0.423 -0.6905 -0.3373  0.3578
 9691TIP3    H129037   5.838   3.946   0.428 -0.6012 -0.2503  1.4652
 9691TIP3    H229038   5.970   3.954   0.354 -0.9570  0.7323  0.9242
 9692TIP3   OH229039   4.229   1.175   4.217  0.0908  0.1258  0.3448
 9692TIP3    H129040   4.297   1.117   4.182  0.1099  0.7892 -0.7739
 9692TIP3    H229041   4.264   1.206   4.300  1.1241  0.3843 -0.1775
 9693TIP3   OH229042   1.931   1.341   4.923 -0.1606  0.3120  0.1255
 9693TIP3    H129043   1.888   1.373   4.843 -0.2953 -0.9409 -0.3381
 9693TIP3    H229044   1.860   1.333   4.986 -0.7686 -2.1404 -0.7633
 9694TIP3   OH229045   1.084   2.009   3.414  0.2667  0.0985 -0.2929
 9694TIP3    H129046   1.050   1.965   3.335  0.3371 -0.1049 -0.2096
 9694TIP3    H229047   1.006   2.035   3.462  0.2228  0.2488 -0.4443
 9695TIP3   OH229048   2.967   2.587   3.593 -0.0805  0.2193  0.1240
 9695TIP3    H129049   2.950   2.505   3.547  1.3779 -1.0570  1.7007
 9695TIP3    H229050   2.970   2.653   3.524  1.3602 -1.4680 -1.5728
 9696TIP3   OH229051   0.565   3.532   1.629  0.4389 -0.5170 -0.5981
 9696TIP3    H129052   0.529   3.615   1.598  1.5177 -0.5412 -2.0565
 9696TIP3    H229053   0.611   3.555   1.710  0.4643  0.2626 -0.8170
 9697TIP3   OH229054   3.624   6.698   2.968 -0.2198 -0.6417  0.4138
 9697TIP3    H129055   3.694   6.684   2.904  0.8252 -0.3143  1.4427
 9697TIP3    H229056   3.546   6.659   2.928  0.6797 -1.5598 -0.5039
 9698TIP3   OH229057   3.583   2.696   3.005 -0.4700 -0.0477  0.5321
 9698TIP3    H129058   3.561   2.780   2.963  0.9105  0.0343 -0.0814
 9698TIP3    H229059   3.576   2.714   3.099 -1.4136  0.3866  0.3997
 9699TIP3   OH229060   0.445   4.990   0.459  0.2991  0.2536  0.3058
 9699TIP3    H129061   0.509   4.920   0.474 -0.1994  0.0706  1.7324
 9699TIP3    H229062   0.494   5.071   0.476  0.4571  0.1730  0.2382
 9700TIP3   OH229063   1.101   2.634   1.830  0.1836  0.3915  0.7081
 9700TIP3    H129064   1.159   2.609   1.758  0.8706 -1.4283  1.8312
 9700TIP3    H229065   1.098   2.730   1.827  1.1666  0.3987 -0.9650
 9701TIP3   OH229066   5.470   5.239   5.498  0.2508 -0.1853  0.2263
 9701TIP3    H129067   5.440   5.180   5.567 -0.1442  0.1263  0.3212
 9701TIP3    H229068   5.499   5.317   5.544 -1.2444  0.5506 -0.0321
 9702TIP3   OH229069   2.149   2.882   4.701  0.4119  0.5424 -0.4043
 9702TIP3    H129070   2.219   2.940   4.670  0.4622  1.3201  1.0781
 9702TIP3    H229071   2.163   2.876   4.796 -1.2735  0.3662 -0.1373
 9703TIP3   OH229072   4.870   5.723   5.245 -0.1311 -0.4339  0.3208
 9703TIP3    H129073   4.895   5.766   5.327 -1.7351  0.4676  0.3878
 9703TIP3    H229074   4.825   5.791   5.195 -0.3356 -1.3250 -0.7539
 9704TIP3   OH229075   5.397   3.960   2.861  0.1150  0.2906 -0.5588
 9704TIP3    H129076   5.304   3.983   2.865 -0.3003 -1.3840  1.8058
 9704TIP3    H229077   5.434   3.998   2.941  0.7745 -1.5391  0.0618
 9705TIP3   OH229078   7.104   0.538   3.367 -0.1034 -0.1973  0.0300
 9705TIP3    H129079   7.049   0.607   3.330  0.2595 -1.0415 -2.1947
 9705TIP3    H229080   7.095   0.465   3.306  1.3959 -1.2930  1.0592
 9706TIP3   OH229081   6.166   1.898   2.164 -0.2503 -0.1731 -0.3909
 9706TIP3    H129082   6.144   1.853   2.246 -1.0409  0.9466  0.0341
 9706TIP3    H229083   6.120   1.848   2.096  0.6600 -1.2914 -0.2096
 9707TIP3   OH229084   2.445   6.662   3.900  0.2174  0.3410 -0.6563
 9707TIP3    H129085   2.416   6.753   3.899  0.6599  0.6161  2.5419
 9707TIP3    H229086   2.369   6.612   3.930 -0.2460 -0.5439 -3.0418
 9708TIP3   OH229087   5.981   6.267   1.264  0.1409 -0.0406  0.4798
 9708TIP3    H129088   5.939   6.341   1.308 -0.0947 -0.0702  0.3100
 9708TIP3    H229089   6.037   6.307   1.198 -0.4849 -0.0277 -0.0505
 9709TIP3   OH229090   5.885   3.309   2.335 -0.1792  0.0144 -0.2257
 9709TIP3    H129091   5.925   3.314   2.421  2.5767  1.5592 -1.4579
 9709TIP3    H229092   5.850   3.220   2.329 -0.4947 -0.1015  2.4268
 9710TIP3   OH229093   4.644   1.009   3.845  0.4149 -0.1116  0.3607
 9710TIP3    H129094   4.607   0.944   3.786 -1.6368 -1.5259  2.9479
 9710TIP3    H229095   4.722   0.967   3.882 -1.4751 -1.7350  2.8086
 9711TIP3   OH229096   3.710   3.256   4.931  0.2141 -0.6612 -0.2400
 9711TIP3    H129097   3.632   3.264   4.985  1.1338  2.4987  0.7909
 9711TIP3    H229098   3.774   3.212   4.987 -0.0820 -1.1192 -0.2559
 9712TIP3   OH229099   3.366   0.307   2.200  0.0463 -0.8155  0.1320
 9712TIP3    H129100   3.371   0.245   2.273 -0.7139 -1.4377 -0.3115
 9712TIP3    H229101   3.295   0.272   2.145 -1.1794  1.0577  0.4225
 9713TIP3   OH229102   1.922   1.515   2.949 -0.2966  0.0602 -0.2477
 9713TIP3    H129103   1.911   1.420   2.950  0.1200  0.0099 -0.2176
 9713TIP3    H229104   1.934   1.539   3.041 -1.9116  0.3350 -0.0779
 9714TIP3   OH229105   3.847   6.556   2.280  0.2330  0.3986 -0.2711
 9714TIP3    H129106   3.907   6.563   2.354 -0.7594  1.7236  0.4616
 9714TIP3    H229107   3.882   6.616   2.215  0.4373  0.1573 -0.3835
 9715TIP3   OH229108   0.542   1.735   0.121 -0.8652  0.2322 -0.0578
 9715TIP3    H129109   0.546   1.761   0.213  2.7756  3.4979 -0.8375
 9715TIP3    H229110   0.612   1.670   0.112 -0.9146  0.2498 -0.5691
 9716TIP3   OH229111   4.958   1.259   5.158  0.0699 -0.2932 -0.1257
 9716TIP3    H129112   4.965   1.344   5.200  0.2763  1.4419 -3.3490
 9716TIP3    H229113   4.871   1.258   5.119 -0.1412 -1.8201  0.3147
 9717TIP3   OH229114   1.395   2.622   0.992  0.1012 -0.5329 -0.6917
 9717TIP3    H129115   1.395   2.718   0.993  1.6564 -0.4946 -1.1312
 9717TIP3    H229116   1.316   2.598   0.944  0.0325  0.5439 -1.1333
 9718TIP3   OH229117   1.748   0.655   3.547 -0.5825 -0.0062  0.0892
 9718TIP3    H129118   1.716   0.566   3.556 -0.1009 -0.0377  1.9103
 9718TIP3    H229119   1.671   0.707   3.524 -0.9237 -0.8367 -0.6560
 9719TIP3   OH229120   1.273   3.517   4.402  0.7464 -0.1559  0.0422
 9719TIP3    H129121   1.285   3.482   4.313 -0.7126 -1.0740  0.1895
 9719TIP3    H229122   1.326   3.597   4.402  0.9247 -0.2234 -1.5989
 9720TIP3   OH229123   3.526   4.253   4.522 -0.1404 -0.4909  0.1205
 9720TIP3    H129124   3.432   4.254   4.540  0.0268 -0.3813  1.0260
 9720TIP3    H229125   3.533   4.276   4.429 -0.9663  0.1994  0.2223
 9721TIP3   OH229126   0.554   6.051   4.252 -0.1794 -0.3551 -0.5316
 9721TIP3    H129127   0.612   6.036   4.326 -0.5325 -1.2875 -0.4429
 9721TIP3    H229128   0.491   6.116   4.284  0.1632 -0.1399 -0.2848
 9722TIP3   OH229129   4.337   0.930   5.692 -0.2409  1.0633  0.2116
 9722TIP3    H129130   4.374   0.977   5.617  0.4930 -0.4509 -0.4114
 9722TIP3    H229131   4.329   0.997   5.760  2.5215  1.7835 -0.0244
 9723TIP3   OH229132   2.721   2.175   4.738  0.6811  1.0497  0.6931
 9723TIP3    H129133   2.708   2.100   4.796  0.0894  0.9396  0.4188
 9723TIP3    H229134   2.658   2.162   4.667  0.1782  2.1047  0.9349
 9724TIP3   OH229135   4.338   1.025   3.096  0.1791 -0.2164  0.2739
 9724TIP3    H129136   4.410   0.988   3.045  0.8764  2.9238 -1.2424
 9724TIP3    H229137   4.268   1.040   3.032  0.2393  1.7253  0.6061
 9725TIP3   OH229138   6.013   0.517   4.563 -0.3402 -0.5026  0.0907
 9725TIP3    H129139   6.006   0.555   4.475 -0.4186  0.9211  0.6817
 9725TIP3    H229140   6.098   0.473   4.564 -0.4211 -0.6898 -0.7509
 9726TIP3   OH229141   1.674   6.593   0.948 -0.1053 -0.5520 -0.0776
 9726TIP3    H129142   1.723   6.656   0.896 -0.9416  0.4031  0.2693
 9726TIP3    H229143   1.587   6.592   0.909  0.0902 -2.0786 -0.5631
 9727TIP3   OH229144   4.398   5.850   5.866  0.1194 -0.5435  0.3794
 9727TIP3    H129145   4.312   5.882   5.839  0.2770 -1.3844 -1.2260
 9727TIP3    H229146   4.461   5.906   5.822  0.4268 -0.0737  1.3717
 9728TIP3   OH229147   4.328   3.664   2.217 -0.3473 -0.4307 -0.1022
 9728TIP3    H129148   4.358   3.673   2.307 -2.2786  0.2222  0.5307
 9728TIP3    H229149   4.369   3.738   2.171  0.9179 -0.9619  0.1323
 9729TIP3   OH229150   6.137   6.037   0.055 -0.0549 -0.0485  0.7241
 9729TIP3    H129151   6.214   5.991   0.090  0.0819  0.6135  1.3218
 9729TIP3    H229152   6.066   6.013   0.114  0.1883  1.1111  1.5378
 9730TIP3   OH229153   5.794   5.990   5.322 -0.3651 -0.4032 -0.1902
 9730TIP3    H129154   5.779   5.993   5.416 -0.1362 -1.9250 -0.0735
 9730TIP3    H229155   5.888   5.971   5.314 -0.7731 -2.5083 -0.6345
 9731TIP3   OH229156   6.800   5.598   0.843 -0.0997 -0.0318 -0.3161
 9731TIP3    H129157   6.768   5.510   0.862 -0.7419  0.1066 -0.7305
 9731TIP3    H229158   6.734   5.636   0.786 -1.4123  1.7772  2.1939
 9732TIP3   OH229159   6.273   5.661   3.392  0.4418  0.0919  0.2360
 9732TIP3    H129160   6.234   5.740   3.429 -0.3197 -0.4128  0.5543
 9732TIP3    H229161   6.240   5.590   3.448  0.8386 -0.4802 -0.2446
 9733TIP3   OH229162   6.949   3.809   0.405  1.2221 -0.2314  0.3621
 9733TIP3    H129163   6.906   3.869   0.344  2.6758  0.6172  0.1097
 9733TIP3    H229164   6.980   3.866   0.476  0.0020 -1.1337  1.6582
 9734TIP3   OH229165   2.927   1.760   3.549 -0.2573 -0.1100 -0.3534
 9734TIP3    H129166   2.988   1.806   3.491  0.2379  1.1176  1.0957
 9734TIP3    H229167   2.974   1.752   3.632 -0.6421 -2.5567 -0.2803
 9735TIP3   OH229168   1.406   1.610   0.755 -0.6266 -0.5920 -0.5515
 9735TIP3    H129169   1.367   1.683   0.803 -0.3081  0.2924 -1.5930
 9735TIP3    H229170   1.486   1.646   0.718 -0.4180 -1.5033 -1.0098
 9736TIP3   OH229171   2.530   3.416   3.874  0.2416  0.0378 -0.2791
 9736TIP3    H129172   2.623   3.407   3.898 -0.4577 -1.3828  2.2104
 9736TIP3    H229173   2.495   3.327   3.881 -1.6027  0.7702  0.1234
 9737TIP3   OH229174   2.269   4.668   4.008 -0.2277  0.0579 -0.3443
 9737TIP3    H129175   2.360   4.646   3.991 -0.0021  0.6001  0.1304
 9737TIP3    H229176   2.234   4.591   4.054 -0.2458 -0.4921 -1.2696
 9738TIP3   OH229177   4.635   4.286   0.796  0.4089 -0.0297 -0.4380
 9738TIP3    H129178   4.576   4.294   0.871 -0.5105  0.7631 -1.2144
 9738TIP3    H229179   4.650   4.377   0.769 -0.0403 -0.3445 -1.7897
 9739TIP3   OH229180   1.033   0.729   0.274  0.0576 -0.2563  0.2104
 9739TIP3    H129181   0.997   0.751   0.360  0.2154 -0.3825  0.3099
 9739TIP3    H229182   0.969   0.669   0.236 -0.6052  0.7271 -0.2534
 9740TIP3   OH229183   0.020   5.306   3.187  0.3230 -0.5527 -0.4322
 9740TIP3    H129184   0.111   5.315   3.158  0.5521 -1.4840 -0.0521
 9740TIP3    H229185   0.023   5.324   3.281  0.0675 -0.3118 -0.4698
 9741TIP3   OH229186   6.565   0.893   1.026  0.3592  0.0229  0.1159
 9741TIP3    H129187   6.623   0.909   0.952  0.4835  0.7516  0.3642
 9741TIP3    H229188   6.552   0.979   1.065 -0.5411 -0.1975  0.3237
 9742TIP3   OH229189   5.361   5.850  -0.022  0.1925  1.0101  0.8021
 9742TIP3    H129190   5.352   5.810   0.064 -1.5064 -0.3779  0.0525
 9742TIP3    H229191   5.275   5.887  -0.041  0.0616 -0.0314 -0.8835
 9743TIP3   OH229192   2.467   3.612   5.171 -0.1760  0.2988  0.5121
 9743TIP3    H129193   2.412   3.593   5.247 -2.8894 -1.1113 -1.6240
 9743TIP3    H229194   2.529   3.539   5.166 -0.9419 -0.3630  0.5765
 9744TIP3   OH229195   6.173   5.686   4.859 -0.3050  0.1432 -0.2775
 9744TIP3    H129196   6.116   5.695   4.783 -0.1790 -2.9702 -0.8745
 9744TIP3    H229197   6.114   5.689   4.934 -1.2663 -2.2398 -0.8444
 9745TIP3   OH229198   4.283   4.168   0.406 -0.3128 -0.0018  0.2139
 9745TIP3    H129199   4.279   4.236   0.339  0.3884  0.1997  0.3649
 9745TIP3    H229200   4.373   4.170   0.437 -0.3706 -0.7708  0.4674
 9746TIP3   OH229201   4.769   3.456   4.381  0.1451 -0.3299  0.6660
 9746TIP3    H129202   4.851   3.478   4.426  0.5552  0.8473 -0.5794
 9746TIP3    H229203   4.793   3.454   4.289 -1.2408  0.0973  0.2763
 9747TIP3   OH229204   0.987   0.190   2.355  0.3458 -0.4066 -0.0290
 9747TIP3    H129205   1.015   0.281   2.364 -1.0226 -0.0969  1.8221
 9747TIP3    H229206   0.986   0.156   2.445 -4.0410 -0.6235  0.0901
 9748TIP3   OH229207   3.770   2.973   3.103  0.1957 -0.0849  0.1725
 9748TIP3    H129208   3.818   2.899   3.064  0.7086  0.1713  0.3156
 9748TIP3    H229209   3.740   3.023   3.027  0.0660 -0.2958  0.0803
 9749TIP3   OH229210   2.518   6.469   0.020  0.0078 -0.0144  0.2472
 9749TIP3    H129211   2.438   6.465  -0.033  0.7573 -0.2677 -0.8959
 9749TIP3    H229212   2.488   6.494   0.107 -1.3679 -0.5030 -0.0627
   7.20710   6.79492   5.88456   0.00000   0.00000  -2.40237   0.00000  -2.40237  -3.39746
