integrator              = md
dt                      = 0.002
nsteps                  = 500000
nstxout-compressed      = 500
nstxout                 = 0
nstvout                 = 0
nstfout                 = 0
nstcalcenergy           = 100
nstenergy               = 500
nstlog                  = 500
;
cutoff-scheme           = Verlet
nstlist                 = 20
vdwtype                 = Cut-off
vdw-modifier            = Force-switch
rvdw_switch             = 1.0
rvdw                    = 1.2
rlist                   = 1.2
rcoulomb                = 1.2
coulombtype             = PME
;
tcoupl                  = v-rescale
tc_grps                 = SOLU SOLV
tau_t                   = 1.0 1.0
ref_t                   = 298.15 298.15
;
pcoupl                  = C-rescale
pcoupltype              = isotropic
tau_p                   = 5.0
compressibility         = 4.5e-5
ref_p                   = 1.0
;
constraints             = h-bonds
constraint_algorithm    = LINCS
continuation            = no
;
nstcomm                 = 100
comm_mode               = linear
comm_grps               = SOLU SOLV
;


pull                     = yes
pull_ngroups             = 2
pull_ncoords             = 1
pull_group1_name         = SOLU
pull_group2_name         = TARGET_ION
pull_coord1_type         = umbrella
pull_coord1_geometry     = distance
pull_coord1_groups       = 1 2
pull_coord1_dim          = Y Y Y
pull_coord1_k            = 1000
pull_coord1_init         = 0.8202
pull_coord1_rate         = 0.000000
pull_nstxout             = 100
pull_nstfout             = 100
gen_vel                  = yes
gen_temp                 = 298.15
gen_seed                 = -1
