Generated by CHARMM-GUI FF-Converter
44350
    1GLY      N    1   2.127   4.005   4.805
    1GLY    HT1    2   2.036   3.998   4.755
    1GLY    HT2    3   2.160   4.105   4.804
    1GLY    HT3    4   2.112   3.979   4.905
    1GLY     CA    5   2.226   3.920   4.742
    1GLY    HA1    6   2.225   3.937   4.636
    1GLY    HA2    7   2.199   3.821   4.772
    1GLY      C    8   2.367   3.944   4.794
    1GLY      O    9   2.392   4.042   4.864
    2PRO      N   10   2.476   3.864   4.759
    2PRO     CD   11   2.448   3.736   4.718
    2PRO    HD1   12   2.422   3.738   4.609
    2PRO    HD2   13   2.367   3.687   4.777
    2PRO     CA   14   2.613   3.889   4.801
    2PRO     HA   15   2.613   3.909   4.908
    2PRO     CB   16   2.686   3.759   4.766
    2PRO    HB1   17   2.754   3.726   4.847
    2PRO    HB2   18   2.747   3.770   4.673
    2PRO     CG   19   2.576   3.661   4.740
    2PRO    HG1   20   2.603   3.594   4.655
    2PRO    HG2   21   2.565   3.596   4.830
    2PRO      C   22   2.677   4.008   4.730
    2PRO      O   23   2.632   4.046   4.621
    3GLY      N   24   2.771   4.071   4.809
    3GLY     HN   25   2.798   4.032   4.896
    3GLY     CA   26   2.845   4.181   4.750
    3GLY    HA1   27   2.918   4.213   4.823
    3GLY    HA2   28   2.775   4.259   4.723
    3GLY      C   29   2.922   4.141   4.625
    3GLY      O   30   2.937   4.022   4.596
    4ASP      N   31   2.960   4.242   4.549
    4ASP     HN   32   2.936   4.337   4.567
    4ASP     CA   33   3.048   4.216   4.436
    4ASP     HA   34   2.994   4.145   4.377
    4ASP     CB   35   3.070   4.344   4.355
    4ASP    HB1   36   3.152   4.334   4.280
    4ASP    HB2   37   3.099   4.427   4.423
    4ASP     CG   38   2.946   4.388   4.279
    4ASP    OD1   39   2.856   4.304   4.255
    4ASP    OD2   40   2.938   4.507   4.242
    4ASP      C   41   3.183   4.160   4.483
    4ASP      O   42   3.231   4.195   4.591
    5PRO      N   43   3.243   4.086   4.412
    5PRO     CD   44   3.197   4.044   4.291
    5PRO    HD1   45   3.197   4.129   4.219
    5PRO    HD2   46   3.097   3.994   4.296
    5PRO     CA   47   3.379   4.046   4.446
    5PRO     HA   48   3.376   3.991   4.539
    5PRO     CB   49   3.422   3.960   4.327
    5PRO    HB1   50   3.463   3.862   4.362
    5PRO    HB2   51   3.500   4.010   4.265
    5PRO     CG   52   3.297   3.942   4.246
    5PRO    HG1   53   3.317   3.949   4.137
    5PRO    HG2   54   3.256   3.840   4.267
    5PRO      C   55   3.473   4.165   4.464
    5PRO      O   56   3.449   4.272   4.408
    6GLY      N   57   3.567   4.132   4.558
    6GLY     HN   58   3.581   4.040   4.593
    6GLY     CA   59   3.669   4.234   4.578
    6GLY    HA1   60   3.740   4.194   4.649
    6GLY    HA2   61   3.622   4.325   4.612
    6GLY      C   62   3.747   4.266   4.451
    6GLY      O   63   3.738   4.193   4.352
    7SER      N   64   3.826   4.363   4.474
    7SER     HN   65   3.832   4.414   4.559
    7SER     CA   66   3.915   4.396   4.364
    7SER     HA   67   3.861   4.394   4.270
    7SER     CB   68   3.971   4.538   4.382
    7SER    HB1   69   4.040   4.564   4.298
    7SER    HB2   70   4.030   4.543   4.476
    7SER     OG   71   3.867   4.633   4.388
    7SER    HG1   72   3.821   4.625   4.303
    7SER      C   73   4.030   4.296   4.353
    7SER      O   74   4.064   4.229   4.450
    8GLY      N   75   4.085   4.289   4.230
    8GLY     HN   76   4.056   4.344   4.151
    8GLY     CA   77   4.199   4.200   4.215
    8GLY    HA1   78   4.221   4.196   4.109
    8GLY    HA2   79   4.173   4.102   4.255
    8GLY      C   80   4.324   4.250   4.284
    8GLY      O   81   4.330   4.365   4.328
    9ASN      N   82   4.417   4.162   4.294
    9ASN     HN   83   4.405   4.070   4.257
    9ASN     CA   84   4.549   4.198   4.346
    9ASN     HA   85   4.524   4.242   4.441
    9ASN     CB   86   4.635   4.073   4.364
    9ASN    HB1   87   4.709   4.059   4.283
    9ASN    HB2   88   4.567   3.984   4.360
    9ASN     CG   89   4.699   4.066   4.501
    9ASN    OD1   90   4.643   4.114   4.600
    9ASN    ND2   91   4.817   4.006   4.509
    9ASN   HD21   92   4.853   3.989   4.600
    9ASN   HD22   93   4.858   3.970   4.425
    9ASN      C   94   4.619   4.298   4.255
    9ASN      O   95   4.602   4.295   4.133
   10PRO      N   96   4.698   4.377   4.319
   10PRO     CD   97   4.717   4.393   4.454
   10PRO    HD1   98   4.779   4.310   4.493
   10PRO    HD2   99   4.621   4.401   4.511
   10PRO     CA  100   4.779   4.464   4.233
   10PRO     HA  101   4.713   4.521   4.169
   10PRO     CB  102   4.856   4.551   4.332
   10PRO    HB1  103   4.845   4.658   4.304
   10PRO    HB2  104   4.965   4.526   4.334
   10PRO     CG  105   4.795   4.521   4.465
   10PRO    HG1  106   4.872   4.514   4.545
   10PRO    HG2  107   4.726   4.605   4.493
   10PRO      C  108   4.874   4.385   4.143
   10PRO      O  109   4.907   4.270   4.173
   11GLY      N  110   4.903   4.441   4.023
   11GLY     HN  111   4.867   4.531   4.000
   11GLY     CA  112   4.996   4.376   3.931
   11GLY    HA1  113   5.006   4.440   3.845
   11GLY    HA2  114   4.957   4.278   3.908
   11GLY      C  115   5.134   4.359   3.990
   11GLY      O  116   5.164   4.412   4.097
   12SER      N  117   5.216   4.295   3.923
   12SER     HN  118   5.189   4.245   3.841
   12SER     CA  119   5.356   4.279   3.961
   12SER     HA  120   5.362   4.260   4.067
   12SER     CB  121   5.418   4.160   3.888
   12SER    HB1  122   5.524   4.143   3.917
   12SER    HB2  123   5.418   4.181   3.778
   12SER     OG  124   5.342   4.043   3.908
   12SER    HG1  125   5.379   3.996   3.986
   12SER      C  126   5.436   4.406   3.930
   12SER      O  127   5.402   4.480   3.838
   13GLY      N  128   5.533   4.437   4.008
   13GLY     HN  129   5.554   4.379   4.086
   13GLY     CA  130   5.623   4.548   3.982
   13GLY    HA1  131   5.693   4.553   4.064
   13GLY    HA2  132   5.564   4.638   3.971
   13GLY      C  133   5.705   4.529   3.856
   13GLY      O  134   5.714   4.419   3.802
   14ASP      N  135   5.754   4.610   3.800
   14ASP     HN  136   5.743   4.701   3.837
   14ASP     CA  137   5.842   4.612   3.683
   14ASP     HA  138   5.788   4.560   3.605
   14ASP     CB  139   5.866   4.756   3.637
   14ASP    HB1  140   5.946   4.757   3.559
   14ASP    HB2  141   5.900   4.815   3.724
   14ASP     CG  142   5.744   4.820   3.574
   14ASP    OD1  143   5.652   4.747   3.531
   14ASP    OD2  144   5.738   4.944   3.569
   14ASP      C  145   5.975   4.543   3.713
   14ASP      O  146   6.024   4.549   3.826
   15PRO      N  147   6.018   4.432   3.626
   15PRO     CD  148   5.945   4.398   3.510
   15PRO    HD1  149   5.955   4.479   3.435
   15PRO    HD2  150   5.837   4.378   3.533
   15PRO     CA  151   6.143   4.359   3.645
   15PRO     HA  152   6.138   4.306   3.739
   15PRO     CB  153   6.150   4.268   3.522
   15PRO    HB1  154   6.185   4.166   3.549
   15PRO    HB2  155   6.222   4.310   3.447
   15PRO     CG  156   6.012   4.272   3.464
   15PRO    HG1  157   6.012   4.261   3.354
   15PRO    HG2  158   5.956   4.186   3.509
   15PRO      C  159   6.265   4.451   3.652
   15PRO    OT1  160   6.246   4.575   3.641
   15PRO    OT2  161   6.378   4.398   3.668
   16LIT    LIT  162   5.028   8.581   6.241
   17LIT    LIT  163   6.344   2.667   1.316
   18LIT    LIT  164   4.995   7.531   4.739
   19LIT    LIT  165   1.756   5.940   7.273
   20LIT    LIT  166   5.501   1.880   0.766
   21LIT    LIT  167   5.874   5.035   3.638
   22LIT    LIT  168   7.706   5.706   2.852
   23LIT    LIT  169   5.568   4.463   5.635
   24LIT    LIT  170   5.985   5.134   3.106
   25LIT    LIT  171   3.429   6.751   1.615
   26LIT    LIT  172   7.454   4.013   4.700
   27LIT    LIT  173   6.310   7.243   5.037
   28LIT    LIT  174   2.916   1.296   4.208
   29LIT    LIT  175   2.809   0.400   6.214
   30LIT    LIT  176   4.023   5.097   0.295
   31LIT    LIT  177   5.178   2.048   1.618
   32LIT    LIT  178   1.002   7.484   6.068
   33LIT    LIT  179   1.970   2.314   3.856
   34LIT    LIT  180   3.485   2.194   3.024
   35LIT    LIT  181   0.875   2.249   3.891
   36LIT    LIT  182   2.540   6.050   8.086
   37LIT    LIT  183   7.750   6.535   2.706
   38LIT    LIT  184   0.961   5.141   6.594
   39LIT    LIT  185   7.914   3.410   3.123
   40LIT    LIT  186   0.363   2.343   4.904
   41LIT    LIT  187   2.225   2.290   3.134
   42LIT    LIT  188   2.861   1.894   5.205
   43LIT    LIT  189   4.235   8.588   5.288
   44LIT    LIT  190   3.894   8.258   2.988
   45LIT    LIT  191   4.370   1.946   0.342
   46LIT    LIT  192   2.948   0.776   2.735
   47LIT    LIT  193   7.301   4.151   1.454
   48LIT    LIT  194   6.474   6.850   6.463
   49LIT    LIT  195   7.948   5.353   6.733
   50LIT    LIT  196   7.689   6.396   5.822
   51LIT    LIT  197   3.715   3.461   3.428
   52LIT    LIT  198   1.319   6.939   4.941
   53LIT    LIT  199   6.877   3.699   4.634
   54LIT    LIT  200   4.485   4.183   2.748
   55LIT    LIT  201   8.218   4.639   1.647
   56LIT    LIT  202   5.303   1.051   7.346
   57LIT    LIT  203   2.520   4.264   4.261
   58LIT    LIT  204   0.994   6.506   5.746
   59LIT    LIT  205   1.551   0.967   4.910
   60CLA    CLA  206   1.151   5.104   6.065
   61CLA    CLA  207   3.895   2.708   7.361
   62CLA    CLA  208   5.603   7.843   5.270
   63CLA    CLA  209   3.582   1.094   4.293
   64CLA    CLA  210   1.069   2.531   5.216
   65CLA    CLA  211   2.511   1.377   4.741
   66CLA    CLA  212   8.365   6.413   4.356
   67CLA    CLA  213   6.049   8.000   2.905
   68CLA    CLA  214  -0.123   6.005   2.510
   69CLA    CLA  215   5.930   6.626   4.306
   70CLA    CLA  216   6.639   3.381   6.617
   71CLA    CLA  217   5.310   8.021   4.434
   72CLA    CLA  218   4.625   5.602   5.856
   73CLA    CLA  219   4.163   6.198   2.986
   74CLA    CLA  220   7.791   5.612   3.846
   75CLA    CLA  221   3.566   3.708   6.214
   76CLA    CLA  222   7.739   6.116   5.657
   77CLA    CLA  223   3.635   1.594   3.060
   78CLA    CLA  224   2.846   2.568   3.622
   79CLA    CLA  225   8.318   3.814   4.004
   80CLA    CLA  226   5.330   1.781   1.296
   81CLA    CLA  227   1.398   2.702   4.115
   82CLA    CLA  228   2.693   7.384   3.694
   83CLA    CLA  229   5.907   2.214   2.360
   84CLA    CLA  230   0.243   2.251   4.743
   85CLA    CLA  231   2.652   2.664   2.412
   86CLA    CLA  232   3.895   3.613   3.562
   87CLA    CLA  233   7.340   5.518   6.724
   88CLA    CLA  234  -0.048   2.258   4.031
   89CLA    CLA  235   6.417   7.062   4.973
   90CLA    CLA  236   6.338   5.738   0.832
   91CLA    CLA  237   7.099   3.665   4.610
   92CLA    CLA  238   0.426   5.647   1.756
   93CLA    CLA  239   7.844   6.668   3.094
   94CLA    CLA  240   2.470   6.504   8.379
   95CLA    CLA  241   1.576   6.272   7.061
   96CLA    CLA  242   3.024   3.259   4.924
   97CLA    CLA  243   2.373   1.918   3.826
   98CLA    CLA  244   1.931   2.134   2.192
   99CLA    CLA  245   6.274   6.801   6.546
  100CLA    CLA  246   1.477   3.785   5.575
  101CLA    CLA  247   1.873   5.154   3.516
  102TIP3   OH2  248   3.278   0.360   2.244
  102TIP3    H1  249   3.279   0.264   2.258
  102TIP3    H2  250   3.193   0.386   2.284
  103TIP3   OH2  251   2.959   0.711   2.348
  103TIP3    H1  252   2.948   0.733   2.253
  103TIP3    H2  253   3.046   0.753   2.365
  104TIP3   OH2  254   3.282   0.061   2.255
  104TIP3    H1  255   3.186   0.068   2.266
  104TIP3    H2  256   3.292   0.026   2.165
  105TIP3   OH2  257   2.745   0.254   2.511
  105TIP3    H1  258   2.714   0.196   2.584
  105TIP3    H2  259   2.803   0.314   2.561
  106TIP3   OH2  260   3.103   0.431   2.007
  106TIP3    H1  261   3.060   0.434   2.094
  106TIP3    H2  262   3.196   0.436   2.033
  107TIP3   OH2  263   3.150   0.175   2.573
  107TIP3    H1  264   3.080   0.180   2.641
  107TIP3    H2  265   3.195   0.261   2.586
  108TIP3   OH2  266   3.198  -0.157   2.414
  108TIP3    H1  267   3.255  -0.237   2.409
  108TIP3    H2  268   3.235  -0.102   2.344
  109TIP3   OH2  269   3.367  -0.365   2.423
  109TIP3    H1  270   3.331  -0.445   2.467
  109TIP3    H2  271   3.462  -0.375   2.439
  110TIP3   OH2  272   2.586   0.646   2.277
  110TIP3    H1  273   2.590   0.549   2.275
  110TIP3    H2  274   2.614   0.667   2.367
  111TIP3   OH2  275   3.016   0.443   2.310
  111TIP3    H1  276   2.925   0.408   2.316
  111TIP3    H2  277   2.999   0.538   2.329
  112TIP3   OH2  278   4.204  -0.170   1.521
  112TIP3    H1  279   4.280  -0.186   1.578
  112TIP3    H2  280   4.230  -0.216   1.439
  113TIP3   OH2  281   4.515   0.123   1.195
  113TIP3    H1  282   4.454   0.086   1.267
  113TIP3    H2  283   4.536   0.207   1.230
  114TIP3   OH2  284   4.196   0.598   1.186
  114TIP3    H1  285   4.235   0.525   1.133
  114TIP3    H2  286   4.155   0.547   1.257
  115TIP3   OH2  287   4.082   0.083   1.543
  115TIP3    H1  288   4.111  -0.008   1.520
  115TIP3    H2  289   4.171   0.123   1.559
  116TIP3   OH2  290   3.947  -0.025   1.753
  116TIP3    H1  291   3.885   0.036   1.798
  116TIP3    H2  292   3.991   0.035   1.689
  117TIP3   OH2  293   3.768   0.165   1.849
  117TIP3    H1  294   3.747   0.256   1.817
  117TIP3    H2  295   3.691   0.152   1.907
  118TIP3   OH2  296   4.606   0.357   1.322
  118TIP3    H1  297   4.520   0.362   1.370
  118TIP3    H2  298   4.604   0.444   1.275
  119TIP3   OH2  299   4.317   0.407   1.026
  119TIP3    H1  300   4.356   0.328   0.986
  119TIP3    H2  301   4.359   0.478   0.973
  120TIP3   OH2  302   4.839   0.317   1.703
  120TIP3    H1  303   4.821   0.238   1.657
  120TIP3    H2  304   4.812   0.387   1.642
  121TIP3   OH2  305   4.721  -0.211   1.849
  121TIP3    H1  306   4.705  -0.127   1.897
  121TIP3    H2  307   4.651  -0.211   1.783
  122TIP3   OH2  308   3.864   0.223   1.432
  122TIP3    H1  309   3.818   0.140   1.453
  122TIP3    H2  310   3.956   0.198   1.458
  123TIP3   OH2  311   4.380   0.361   1.459
  123TIP3    H1  312   4.353   0.447   1.497
  123TIP3    H2  313   4.346   0.297   1.524
  124TIP3   OH2  314   3.979   0.277   1.998
  124TIP3    H1  315   3.921   0.341   2.045
  124TIP3    H2  316   3.912   0.227   1.947
  125TIP3   OH2  317   3.724  -0.151   2.082
  125TIP3    H1  318   3.736  -0.074   2.142
  125TIP3    H2  319   3.630  -0.167   2.091
  126TIP3   OH2  320   4.094   0.298   1.146
  126TIP3    H1  321   4.168   0.334   1.094
  126TIP3    H2  322   4.039   0.262   1.075
  127TIP3   OH2  323   3.775   0.444   2.086
  127TIP3    H1  324   3.738   0.450   1.996
  127TIP3    H2  325   3.694   0.427   2.140
  128TIP3   OH2  326   5.065   0.627   1.715
  128TIP3    H1  327   5.067   0.532   1.735
  128TIP3    H2  328   4.984   0.653   1.766
  129TIP3   OH2  329   4.177   0.408   1.857
  129TIP3    H1  330   4.175   0.501   1.888
  129TIP3    H2  331   4.105   0.369   1.911
  130TIP3   OH2  332   4.240   0.480   0.730
  130TIP3    H1  333   4.158   0.440   0.766
  130TIP3    H2  334   4.302   0.405   0.737
  131TIP3   OH2  335   4.957  -0.264   1.996
  131TIP3    H1  336   4.877  -0.238   1.946
  131TIP3    H2  337   4.958  -0.360   1.983
  132TIP3   OH2  338   3.559   0.184   2.042
  132TIP3    H1  339   3.610   0.141   2.112
  132TIP3    H2  340   3.522   0.110   1.989
  133TIP3   OH2  341   4.716  -0.475   1.931
  133TIP3    H1  342   4.700  -0.446   2.022
  133TIP3    H2  343   4.716  -0.391   1.883
  134TIP3   OH2  344   4.445  -0.220   2.134
  134TIP3    H1  345   4.420  -0.302   2.183
  134TIP3    H2  346   4.540  -0.214   2.160
  135TIP3   OH2  347   4.417  -0.256   1.702
  135TIP3    H1  348   4.449  -0.343   1.677
  135TIP3    H2  349   4.398  -0.274   1.795
  136TIP3   OH2  350   4.765   0.973   1.823
  136TIP3    H1  351   4.762   1.001   1.729
  136TIP3    H2  352   4.845   1.020   1.854
  137TIP3   OH2  353   3.723   0.075   2.246
  137TIP3    H1  354   3.803   0.107   2.292
  137TIP3    H2  355   3.658   0.079   2.319
  138TIP3   OH2  356   4.156  -0.591   1.851
  138TIP3    H1  357   4.104  -0.567   1.773
  138TIP3    H2  358   4.217  -0.516   1.860
  139TIP3   OH2  359   4.778   0.118   1.529
  139TIP3    H1  360   4.836   0.162   1.456
  139TIP3    H2  361   4.694   0.157   1.514
  140TIP3   OH2  362   4.301   0.149   1.886
  140TIP3    H1  363   4.317   0.122   1.976
  140TIP3    H2  364   4.259   0.237   1.896
  141TIP3   OH2  365   4.196  -0.113   2.192
  141TIP3    H1  366   4.138  -0.166   2.135
  141TIP3    H2  367   4.285  -0.142   2.161
  142TIP3   OH2  368   4.455   0.398   1.779
  142TIP3    H1  369   4.359   0.402   1.791
  142TIP3    H2  370   4.485   0.453   1.855
  143TIP3   OH2  371   5.108   0.329   1.777
  143TIP3    H1  372   5.004   0.335   1.767
  143TIP3    H2  373   5.131   0.307   1.691
  144TIP3   OH2  374   4.527  -0.076   1.439
  144TIP3    H1  375   4.577  -0.022   1.420
  144TIP3    H2  376   4.573  -0.111   1.528
  145TIP3   OH2  377   3.960   0.497   1.654
  145TIP3    H1  378   4.001   0.569   1.601
  145TIP3    H2  379   4.038   0.462   1.701
  146TIP3   OH2  380   4.337   0.137   1.619
  146TIP3    H1  381   4.318   0.138   1.717
  146TIP3    H2  382   4.419   0.091   1.617
  147TIP3   OH2  383   4.587   0.665   1.658
  147TIP3    H1  384   4.505   0.613   1.648
  147TIP3    H2  385   4.574   0.732   1.587
  148TIP3   OH2  386   3.366   0.357   1.823
  148TIP3    H1  387   3.406   0.270   1.833
  148TIP3    H2  388   3.430   0.414   1.867
  149TIP3   OH2  389   4.377  -0.409   1.930
  149TIP3    H1  390   4.363  -0.343   2.001
  149TIP3    H2  391   4.413  -0.482   1.983
  150TIP3   OH2  392   4.618   0.629   1.249
  150TIP3    H1  393   4.573   0.681   1.179
  150TIP3    H2  394   4.711   0.655   1.231
  151TIP3   OH2  395   3.393   0.667   2.239
  151TIP3    H1  396   3.479   0.675   2.285
  151TIP3    H2  397   3.389   0.571   2.227
  152TIP3   OH2  398   3.860   0.629   2.280
  152TIP3    H1  399   3.956   0.621   2.288
  152TIP3    H2  400   3.841   0.566   2.207
  153TIP3   OH2  401   4.512   0.534   2.009
  153TIP3    H1  402   4.502   0.468   2.081
  153TIP3    H2  403   4.587   0.588   2.041
  154TIP3   OH2  404   3.514   0.071   2.430
  154TIP3    H1  405   3.533  -0.024   2.441
  154TIP3    H2  406   3.429   0.068   2.382
  155TIP3   OH2  407   4.123   0.160   2.208
  155TIP3    H1  408   4.082   0.178   2.121
  155TIP3    H2  409   4.154   0.067   2.199
  156TIP3   OH2  410   4.612   0.165   1.799
  156TIP3    H1  411   4.676   0.238   1.793
  156TIP3    H2  412   4.528   0.218   1.803
  157TIP3   OH2  413   3.635  -0.194   2.422
  157TIP3    H1  414   3.716  -0.235   2.389
  157TIP3    H2  415   3.665  -0.158   2.508
  158TIP3   OH2  416   3.968  -0.279   2.071
  158TIP3    H1  417   3.882  -0.233   2.065
  158TIP3    H2  418   4.014  -0.249   1.990
  159TIP3   OH2  419   4.491   0.095   2.210
  159TIP3    H1  420   4.571   0.064   2.166
  159TIP3    H2  421   4.478   0.028   2.279
  160TIP3   OH2  422   4.051  -0.498   2.199
  160TIP3    H1  423   3.981  -0.545   2.152
  160TIP3    H2  424   4.037  -0.409   2.159
  161TIP3   OH2  425   4.133  -0.179   1.882
  161TIP3    H1  426   4.190  -0.204   1.809
  161TIP3    H2  427   4.071  -0.117   1.838
  162TIP3   OH2  428   4.698  -0.231   2.239
  162TIP3    H1  429   4.728  -0.288   2.313
  162TIP3    H2  430   4.776  -0.177   2.222
  163TIP3   OH2  431   4.749   0.034   1.994
  163TIP3    H1  432   4.691   0.082   1.931
  163TIP3    H2  433   4.837   0.052   1.954
  164TIP3   OH2  434   3.937  -0.372   2.429
  164TIP3    H1  435   3.901  -0.451   2.470
  164TIP3    H2  436   3.997  -0.410   2.362
  165TIP3   OH2  437   4.338  -0.448   2.228
  165TIP3    H1  438   4.372  -0.483   2.313
  165TIP3    H2  439   4.243  -0.464   2.239
  166TIP3   OH2  440   4.874   0.724   1.226
  166TIP3    H1  441   4.894   0.760   1.315
  166TIP3    H2  442   4.924   0.786   1.170
  167TIP3   OH2  443   4.901   0.752   1.502
  167TIP3    H1  444   4.856   0.664   1.497
  167TIP3    H2  445   4.974   0.729   1.561
  168TIP3   OH2  446   4.944   0.423   2.067
  168TIP3    H1  447   4.872   0.434   2.132
  168TIP3    H2  448   4.987   0.511   2.069
  169TIP3   OH2  449   4.951   0.222   1.344
  169TIP3    H1  450   5.017   0.177   1.289
  169TIP3    H2  451   4.948   0.309   1.296
  170TIP3   OH2  452   4.763   0.505   1.515
  170TIP3    H1  453   4.692   0.556   1.560
  170TIP3    H2  454   4.716   0.467   1.439
  171TIP3   OH2  455   4.999   0.084   1.887
  171TIP3    H1  456   5.067   0.013   1.880
  171TIP3    H2  457   5.040   0.155   1.834
  172TIP3   OH2  458   5.175  -0.125   1.906
  172TIP3    H1  459   5.114  -0.186   1.950
  172TIP3    H2  460   5.263  -0.160   1.931
  173TIP3   OH2  461   3.561  -0.582   2.484
  173TIP3    H1  462   3.626  -0.602   2.415
  173TIP3    H2  463   3.602  -0.620   2.564
  174TIP3   OH2  464   4.468   0.593   0.899
  174TIP3    H1  465   4.538   0.541   0.854
  174TIP3    H2  466   4.517   0.670   0.931
  175TIP3   OH2  467   3.555   0.412   2.256
  175TIP3    H1  468   3.471   0.369   2.231
  175TIP3    H2  469   3.567   0.384   2.347
  176TIP3   OH2  470   3.733   0.433   1.797
  176TIP3    H1  471   3.686   0.511   1.761
  176TIP3    H2  472   3.820   0.449   1.754
  177TIP3   OH2  473   4.173   0.675   1.935
  177TIP3    H1  474   4.214   0.674   2.024
  177TIP3    H2  475   4.239   0.728   1.885
  178TIP3   OH2  476   4.354   0.830   1.800
  178TIP3    H1  477   4.427   0.780   1.759
  178TIP3    H2  478   4.404   0.887   1.861
  179TIP3   OH2  479   3.422   0.686   1.835
  179TIP3    H1  480   3.327   0.699   1.815
  179TIP3    H2  481   3.434   0.748   1.908
  180TIP3   OH2  482   3.648   0.666   1.684
  180TIP3    H1  483   3.561   0.676   1.729
  180TIP3    H2  484   3.629   0.700   1.595
  181TIP3   OH2  485   4.068   0.692   1.484
  181TIP3    H1  486   4.002   0.711   1.415
  181TIP3    H2  487   4.081   0.780   1.524
  182TIP3   OH2  488   4.337   0.629   1.530
  182TIP3    H1  489   4.243   0.647   1.512
  182TIP3    H2  490   4.380   0.703   1.484
  183TIP3   OH2  491   4.546   0.824   1.442
  183TIP3    H1  492   4.530   0.910   1.398
  183TIP3    H2  493   4.570   0.767   1.366
  184TIP3   OH2  494   3.341   0.486   1.576
  184TIP3    H1  495   3.359   0.443   1.662
  184TIP3    H2  496   3.337   0.410   1.515
  185TIP3   OH2  497   3.782   0.483   1.429
  185TIP3    H1  498   3.814   0.394   1.404
  185TIP3    H2  499   3.826   0.492   1.515
  186TIP3   OH2  500   4.820   0.705   1.821
  186TIP3    H1  501   4.739   0.676   1.773
  186TIP3    H2  502   4.804   0.800   1.828
  187TIP3   OH2  503   5.517   0.415   1.287
  187TIP3    H1  504   5.527   0.512   1.290
  187TIP3    H2  505   5.468   0.401   1.370
  188TIP3   OH2  506   5.752   0.527   1.470
  188TIP3    H1  507   5.695   0.594   1.514
  188TIP3    H2  508   5.694   0.450   1.466
  189TIP3   OH2  509   5.561   0.709   1.573
  189TIP3    H1  510   5.526   0.712   1.482
  189TIP3    H2  511   5.481   0.690   1.627
  190TIP3   OH2  512   5.159   0.244   1.530
  190TIP3    H1  513   5.081   0.222   1.474
  190TIP3    H2  514   5.189   0.158   1.563
  191TIP3   OH2  515   4.996   0.438   1.179
  191TIP3    H1  516   5.092   0.442   1.173
  191TIP3    H2  517   4.976   0.524   1.220
  192TIP3   OH2  518   5.934   0.721   1.302
  192TIP3    H1  519   5.956   0.807   1.342
  192TIP3    H2  520   5.947   0.664   1.381
  193TIP3   OH2  521   5.354   0.433   1.505
  193TIP3    H1  522   5.407   0.419   1.586
  193TIP3    H2  523   5.286   0.363   1.516
  194TIP3   OH2  524   6.545   1.246   1.332
  194TIP3    H1  525   6.536   1.247   1.236
  194TIP3    H2  526   6.637   1.273   1.345
  195TIP3   OH2  527   5.496   0.372   1.732
  195TIP3    H1  528   5.589   0.371   1.761
  195TIP3    H2  529   5.451   0.362   1.817
  196TIP3   OH2  530   5.247   0.037   1.681
  196TIP3    H1  531   5.299   0.054   1.760
  196TIP3    H2  532   5.229  -0.060   1.693
  197TIP3   OH2  533   5.721   0.796   1.154
  197TIP3    H1  534   5.759   0.848   1.081
  197TIP3    H2  535   5.801   0.779   1.209
  198TIP3   OH2  536   5.205   0.602   1.306
  198TIP3    H1  537   5.258   0.543   1.363
  198TIP3    H2  538   5.223   0.687   1.350
  199TIP3   OH2  539   5.187   0.930   1.720
  199TIP3    H1  540   5.273   0.932   1.767
  199TIP3    H2  541   5.173   0.834   1.716
  200TIP3   OH2  542   5.661   0.885   1.766
  200TIP3    H1  543   5.756   0.868   1.770
  200TIP3    H2  544   5.636   0.825   1.692
  201TIP3   OH2  545   6.262   0.823   1.508
  201TIP3    H1  546   6.260   0.740   1.560
  201TIP3    H2  547   6.354   0.850   1.518
  202TIP3   OH2  548   5.320   0.339   1.945
  202TIP3    H1  549   5.346   0.242   1.939
  202TIP3    H2  550   5.239   0.339   1.895
  203TIP3   OH2  551   5.923   0.402   1.713
  203TIP3    H1  552   5.917   0.446   1.626
  203TIP3    H2  553   5.964   0.318   1.690
  204TIP3   OH2  554   5.427   0.081   1.902
  204TIP3    H1  555   5.514   0.058   1.866
  204TIP3    H2  556   5.453   0.103   1.995
  205TIP3   OH2  557   4.757   0.724   0.777
  205TIP3    H1  558   4.730   0.664   0.707
  205TIP3    H2  559   4.791   0.662   0.847
  206TIP3   OH2  560   4.898   0.588   0.959
  206TIP3    H1  561   4.901   0.498   0.994
  206TIP3    H2  562   4.942   0.636   1.031
  207TIP3   OH2  563   5.343   0.669   1.739
  207TIP3    H1  564   5.254   0.632   1.726
  207TIP3    H2  565   5.366   0.637   1.827
  208TIP3   OH2  566   5.514   0.695   1.291
  208TIP3    H1  567   5.468   0.771   1.250
  208TIP3    H2  568   5.602   0.715   1.251
  209TIP3   OH2  569   5.967   0.957   1.437
  209TIP3    H1  570   6.010   0.945   1.525
  209TIP3    H2  571   6.035   1.009   1.390
  210TIP3   OH2  572   6.131   1.111   1.280
  210TIP3    H1  573   6.204   1.064   1.235
  210TIP3    H2  574   6.183   1.161   1.347
  211TIP3   OH2  575   5.198   0.941   1.315
  211TIP3    H1  576   5.107   0.973   1.296
  211TIP3    H2  577   5.219   0.992   1.394
  212TIP3   OH2  578   5.432   0.932   1.168
  212TIP3    H1  579   5.343   0.943   1.209
  212TIP3    H2  580   5.417   0.965   1.077
  213TIP3   OH2  581   5.833   0.947   0.951
  213TIP3    H1  582   5.782   1.004   0.894
  213TIP3    H2  583   5.876   1.012   1.010
  214TIP3   OH2  584   5.115   0.743   1.075
  214TIP3    H1  585   5.153   0.710   1.159
  214TIP3    H2  586   5.172   0.702   1.009
  215TIP3   OH2  587   0.824   2.248   2.481
  215TIP3    H1  588   0.794   2.292   2.401
  215TIP3    H2  589   0.895   2.307   2.512
  216TIP3   OH2  590   1.021   1.723   2.762
  216TIP3    H1  591   0.971   1.723   2.845
  216TIP3    H2  592   1.062   1.812   2.765
  217TIP3   OH2  593   2.335   1.680   1.384
  217TIP3    H1  594   2.337   1.665   1.480
  217TIP3    H2  595   2.360   1.774   1.381
  218TIP3   OH2  596   2.014   2.105   1.326
  218TIP3    H1  597   2.087   2.053   1.287
  218TIP3    H2  598   2.040   2.110   1.419
  219TIP3   OH2  599   3.006   0.937   1.734
  219TIP3    H1  600   3.004   1.030   1.762
  219TIP3    H2  601   2.984   0.943   1.639
  220TIP3   OH2  602   3.038   1.177   1.867
  220TIP3    H1  603   2.951   1.217   1.847
  220TIP3    H2  604   3.054   1.210   1.958
  221TIP3   OH2  605   2.438   1.927   1.480
  221TIP3    H1  606   2.350   1.925   1.522
  221TIP3    H2  607   2.438   2.017   1.440
  222TIP3   OH2  608   2.674   1.845   1.836
  222TIP3    H1  609   2.670   1.768   1.775
  222TIP3    H2  610   2.654   1.919   1.774
  223TIP3   OH2  611   2.877   1.472   1.672
  223TIP3    H1  612   2.794   1.524   1.683
  223TIP3    H2  613   2.902   1.500   1.582
  224TIP3   OH2  614   2.572   1.365   1.976
  224TIP3    H1  615   2.561   1.448   2.025
  224TIP3    H2  616   2.482   1.357   1.936
  225TIP3   OH2  617   2.200   1.919   1.603
  225TIP3    H1  618   2.189   2.009   1.641
  225TIP3    H2  619   2.205   1.863   1.682
  226TIP3   OH2  620   1.814   1.802   2.149
  226TIP3    H1  621   1.842   1.895   2.163
  226TIP3    H2  622   1.718   1.811   2.148
  227TIP3   OH2  623   1.589   2.022   2.247
  227TIP3    H1  624   1.592   1.998   2.153
  227TIP3    H2  625   1.504   1.989   2.275
  228TIP3   OH2  626   2.917   2.184   1.873
  228TIP3    H1  627   2.912   2.088   1.891
  228TIP3    H2  628   2.833   2.213   1.916
  229TIP3   OH2  629   2.803   1.312   2.145
  229TIP3    H1  630   2.723   1.333   2.093
  229TIP3    H2  631   2.793   1.216   2.152
  230TIP3   OH2  632   2.605   1.110   2.090
  230TIP3    H1  633   2.534   1.082   2.151
  230TIP3    H2  634   2.563   1.183   2.041
  231TIP3   OH2  635   2.281   1.308   2.310
  231TIP3    H1  636   2.270   1.233   2.371
  231TIP3    H2  637   2.374   1.331   2.326
  232TIP3   OH2  638   2.320   1.312   1.892
  232TIP3    H1  639   2.285   1.276   1.810
  232TIP3    H2  640   2.264   1.268   1.959
  233TIP3   OH2  641   2.601   2.530   1.969
  233TIP3    H1  642   2.605   2.561   1.877
  233TIP3    H2  643   2.671   2.584   2.011
  234TIP3   OH2  644   1.581   1.635   2.394
  234TIP3    H1  645   1.652   1.668   2.451
  234TIP3    H2  646   1.503   1.641   2.451
  235TIP3   OH2  647   2.661   1.635   1.667
  235TIP3    H1  648   2.674   1.680   1.580
  235TIP3    H2  649   2.568   1.605   1.661
  236TIP3   OH2  650   2.125   1.709   2.036
  236TIP3    H1  651   2.177   1.679   2.112
  236TIP3    H2  652   2.084   1.789   2.071
  237TIP3   OH2  653   2.032   1.423   2.341
  237TIP3    H1  654   1.986   1.392   2.263
  237TIP3    H2  655   2.125   1.398   2.321
  238TIP3   OH2  656   2.292   1.958   1.915
  238TIP3    H1  657   2.202   1.985   1.937
  238TIP3    H2  658   2.339   1.999   1.992
  239TIP3   OH2  659   2.927   1.891   1.916
  239TIP3    H1  660   2.828   1.890   1.910
  239TIP3    H2  661   2.949   1.862   1.825
  240TIP3   OH2  662   2.412   1.532   1.645
  240TIP3    H1  663   2.324   1.505   1.610
  240TIP3    H2  664   2.457   1.445   1.641
  241TIP3   OH2  665   2.197   1.688   1.765
  241TIP3    H1  666   2.179   1.689   1.861
  241TIP3    H2  667   2.285   1.645   1.763
  242TIP3   OH2  668   2.443   2.209   1.803
  242TIP3    H1  669   2.359   2.159   1.806
  242TIP3    H2  670   2.420   2.283   1.743
  243TIP3   OH2  671   2.206   1.161   2.091
  243TIP3    H1  672   2.234   1.219   2.165
  243TIP3    H2  673   2.252   1.079   2.114
  244TIP3   OH2  674   2.845   0.995   2.039
  244TIP3    H1  675   2.754   1.021   2.068
  244TIP3    H2  676   2.845   1.035   1.950
  245TIP3   OH2  677   2.463   2.188   1.410
  245TIP3    H1  678   2.422   2.233   1.332
  245TIP3    H2  679   2.557   2.207   1.390
  246TIP3   OH2  680   1.238   2.241   2.382
  246TIP3    H1  681   1.323   2.246   2.432
  246TIP3    H2  682   1.227   2.145   2.377
  247TIP3   OH2  683   1.716   2.188   2.426
  247TIP3    H1  684   1.806   2.195   2.389
  247TIP3    H2  685   1.679   2.126   2.359
  248TIP3   OH2  686   2.376   2.073   2.140
  248TIP3    H1  687   2.345   2.028   2.221
  248TIP3    H2  688   2.432   2.144   2.177
  249TIP3   OH2  689   1.368   1.630   2.593
  249TIP3    H1  690   1.406   1.540   2.586
  249TIP3    H2  691   1.277   1.611   2.567
  250TIP3   OH2  692   1.958   1.700   2.362
  250TIP3    H1  693   1.915   1.730   2.279
  250TIP3    H2  694   1.989   1.611   2.342
  251TIP3   OH2  695   2.456   1.730   1.966
  251TIP3    H1  696   2.534   1.775   1.927
  251TIP3    H2  697   2.388   1.798   1.950
  252TIP3   OH2  698   1.481   1.375   2.584
  252TIP3    H1  699   1.552   1.329   2.537
  252TIP3    H2  700   1.522   1.401   2.668
  253TIP3   OH2  701   2.316   1.637   2.354
  253TIP3    H1  702   2.405   1.636   2.315
  253TIP3    H2  703   2.325   1.578   2.431
  254TIP3   OH2  704   2.547   1.329   2.414
  254TIP3    H1  705   2.592   1.244   2.403
  254TIP3    H2  706   2.613   1.391   2.379
  255TIP3   OH2  707   2.588   1.585   2.152
  255TIP3    H1  708   2.529   1.639   2.094
  255TIP3    H2  709   2.675   1.606   2.111
  256TIP3   OH2  710   1.834   1.131   2.599
  256TIP3    H1  711   1.752   1.115   2.649
  256TIP3    H2  712   1.823   1.069   2.524
  257TIP3   OH2  713   2.204   1.078   2.450
  257TIP3    H1  714   2.201   1.081   2.547
  257TIP3    H2  715   2.110   1.069   2.429
  258TIP3   OH2  716   2.438   1.049   2.298
  258TIP3    H1  717   2.366   1.042   2.363
  258TIP3    H2  718   2.513   1.007   2.344
  259TIP3   OH2  719   2.677   0.987   2.453
  259TIP3    H1  720   2.680   0.891   2.471
  259TIP3    H2  721   2.663   1.026   2.541
  260TIP3   OH2  722   2.245   0.806   2.647
  260TIP3    H1  723   2.224   0.733   2.586
  260TIP3    H2  724   2.162   0.858   2.650
  261TIP3   OH2  725   2.718   2.272   1.366
  261TIP3    H1  726   2.736   2.309   1.455
  261TIP3    H2  727   2.765   2.334   1.309
  262TIP3   OH2  728   2.740   2.305   1.643
  262TIP3    H1  729   2.695   2.218   1.640
  262TIP3    H2  730   2.809   2.285   1.707
  263TIP3   OH2  731   2.789   1.980   2.217
  263TIP3    H1  732   2.713   1.993   2.277
  263TIP3    H2  733   2.827   2.071   2.218
  264TIP3   OH2  734   2.770   1.756   1.449
  264TIP3    H1  735   2.839   1.694   1.418
  264TIP3    H2  736   2.785   1.835   1.394
  265TIP3   OH2  737   2.617   2.053   1.664
  265TIP3    H1  738   2.549   2.102   1.715
  265TIP3    H2  739   2.562   2.010   1.595
  266TIP3   OH2  740   2.833   1.645   2.045
  266TIP3    H1  741   2.904   1.579   2.031
  266TIP3    H2  742   2.857   1.716   1.982
  267TIP3   OH2  743   3.018   1.446   2.050
  267TIP3    H1  744   2.942   1.398   2.091
  267TIP3    H2  745   3.092   1.388   2.077
  268TIP3   OH2  746   2.759   1.070   1.589
  268TIP3    H1  747   2.830   1.127   1.551
  268TIP3    H2  748   2.718   1.131   1.651
  269TIP3   OH2  749   2.780   1.258   1.819
  269TIP3    H1  750   2.699   1.292   1.862
  269TIP3    H2  751   2.803   1.332   1.760
  270TIP3   OH2  752   3.206   0.821   2.373
  270TIP3    H1  753   3.278   0.770   2.329
  270TIP3    H2  754   3.186   0.888   2.304
  271TIP3   OH2  755   3.096   0.986   2.182
  271TIP3    H1  756   3.019   1.033   2.219
  271TIP3    H2  757   3.052   0.928   2.118
  272TIP3   OH2  758   2.262   2.187   0.989
  272TIP3    H1  759   2.328   2.158   0.924
  272TIP3    H2  760   2.317   2.231   1.057
  273TIP3   OH2  761   1.347   1.949   2.405
  273TIP3    H1  762   1.377   1.870   2.360
  273TIP3    H2  763   1.398   1.951   2.487
  274TIP3   OH2  764   1.613   1.969   1.940
  274TIP3    H1  765   1.516   1.976   1.934
  274TIP3    H2  766   1.640   2.061   1.953
  275TIP3   OH2  767   2.201   2.407   1.925
  275TIP3    H1  768   2.241   2.321   1.940
  275TIP3    H2  769   2.238   2.457   2.000
  276TIP3   OH2  770   2.984   0.744   2.064
  276TIP3    H1  771   2.909   0.801   2.037
  276TIP3    H2  772   2.972   0.667   2.006
  277TIP3   OH2  773   1.279   2.272   1.968
  277TIP3    H1  774   1.218   2.234   1.900
  277TIP3    H2  775   1.236   2.251   2.051
  278TIP3   OH2  776   1.488   2.237   1.801
  278TIP3    H1  777   1.434   2.250   1.882
  278TIP3    H2  778   1.416   2.234   1.737
  279TIP3   OH2  779   1.918   2.265   1.606
  279TIP3    H1  780   1.869   2.317   1.541
  279TIP3    H2  781   1.921   2.329   1.680
  280TIP3   OH2  782   2.177   2.186   1.668
  280TIP3    H1  783   2.082   2.209   1.656
  280TIP3    H2  784   2.219   2.271   1.653
  281TIP3   OH2  785   2.388   2.384   1.598
  281TIP3    H1  786   2.371   2.468   1.550
  281TIP3    H2  787   2.411   2.323   1.525
  282TIP3   OH2  788   2.736   0.723   2.510
  282TIP3    H1  789   2.763   0.662   2.580
  282TIP3    H2  790   2.807   0.709   2.442
  283TIP3   OH2  791   2.673   2.265   1.963
  283TIP3    H1  792   2.591   2.229   1.922
  283TIP3    H2  793   2.646   2.358   1.974
  284TIP3   OH2  794   3.935   1.642   0.732
  284TIP3    H1  795   3.902   1.731   0.710
  284TIP3    H2  796   3.864   1.586   0.695
  285TIP3   OH2  797   3.932   1.636   1.124
  285TIP3    H1  798   3.967   1.612   1.211
  285TIP3    H2  799   3.893   1.553   1.094
  286TIP3   OH2  800   3.231   1.528   1.486
  286TIP3    H1  801   3.259   1.458   1.546
  286TIP3    H2  802   3.305   1.589   1.492
  287TIP3   OH2  803   4.180   1.949   0.796
  287TIP3    H1  804   4.158   1.877   0.857
  287TIP3    H2  805   4.206   2.020   0.857
  288TIP3   OH2  806   3.204   1.941   1.205
  288TIP3    H1  807   3.196   1.843   1.209
  288TIP3    H2  808   3.300   1.952   1.205
  289TIP3   OH2  809   2.994   1.460   1.173
  289TIP3    H1  810   3.057   1.393   1.207
  289TIP3    H2  811   3.046   1.504   1.104
  290TIP3   OH2  812   3.828   2.400   0.817
  290TIP3    H1  813   3.872   2.325   0.772
  290TIP3    H2  814   3.811   2.364   0.905
  291TIP3   OH2  815   3.729   1.861   1.167
  291TIP3    H1  816   3.771   1.783   1.127
  291TIP3    H2  817   3.811   1.909   1.193
  292TIP3   OH2  818   4.744   1.182   1.168
  292TIP3    H1  819   4.774   1.264   1.211
  292TIP3    H2  820   4.758   1.203   1.074
  293TIP3   OH2  821   4.142   1.361   1.197
  293TIP3    H1  822   4.184   1.275   1.219
  293TIP3    H2  823   4.111   1.343   1.107
  294TIP3   OH2  824   3.481   1.008   1.180
  294TIP3    H1  825   3.457   1.070   1.110
  294TIP3    H2  826   3.416   0.937   1.167
  295TIP3   OH2  827   4.176   1.118   0.788
  295TIP3    H1  828   4.248   1.102   0.853
  295TIP3    H2  829   4.228   1.151   0.713
  296TIP3   OH2  830   3.121   1.240   1.268
  296TIP3    H1  831   3.205   1.210   1.308
  296TIP3    H2  832   3.095   1.161   1.215
  297TIP3   OH2  833   3.568   1.445   1.068
  297TIP3    H1  834   3.661   1.417   1.084
  297TIP3    H2  835   3.529   1.360   1.036
  298TIP3   OH2  836   4.818   1.391   1.335
  298TIP3    H1  837   4.731   1.434   1.320
  298TIP3    H2  838   4.835   1.418   1.427
  299TIP3   OH2  839   3.480   1.014   1.605
  299TIP3    H1  840   3.422   1.055   1.538
  299TIP3    H2  841   3.425   1.026   1.685
  300TIP3   OH2  842   3.843   1.875   0.592
  300TIP3    H1  843   3.792   1.846   0.514
  300TIP3    H2  844   3.785   1.948   0.625
  301TIP3   OH2  845   3.583   1.782   1.392
  301TIP3    H1  846   3.522   1.850   1.429
  301TIP3    H2  847   3.625   1.832   1.318
  302TIP3   OH2  848   4.379   1.125   0.962
  302TIP3    H1  849   4.370   1.067   1.038
  302TIP3    H2  850   4.432   1.198   0.996
  303TIP3   OH2  851   3.356   1.136   1.386
  303TIP3    H1  852   3.413   1.211   1.412
  303TIP3    H2  853   3.414   1.091   1.322
  304TIP3   OH2  854   3.412   1.977   1.490
  304TIP3    H1  855   3.388   2.065   1.456
  304TIP3    H2  856   3.333   1.959   1.546
  305TIP3   OH2  857   4.244   2.183   0.963
  305TIP3    H1  858   4.156   2.173   1.007
  305TIP3    H2  859   4.234   2.271   0.922
  306TIP3   OH2  860   4.536   1.079   1.333
  306TIP3    H1  861   4.448   1.104   1.300
  306TIP3    H2  862   4.596   1.111   1.262
  307TIP3   OH2  863   3.831   0.728   1.317
  307TIP3    H1  864   3.816   0.635   1.344
  307TIP3    H2  865   3.759   0.771   1.368
  308TIP3   OH2  866   3.950   2.221   0.638
  308TIP3    H1  867   4.003   2.140   0.632
  308TIP3    H2  868   4.013   2.287   0.600
  309TIP3   OH2  869   4.098   1.973   0.537
  309TIP3    H1  870   4.010   1.932   0.550
  309TIP3    H2  871   4.137   1.956   0.625
  310TIP3   OH2  872   4.469   2.092   1.312
  310TIP3    H1  873   4.456   2.014   1.254
  310TIP3    H2  874   4.451   2.166   1.251
  311TIP3   OH2  875   3.770   1.485   0.569
  311TIP3    H1  876   3.690   1.534   0.544
  311TIP3    H2  877   3.812   1.467   0.483
  312TIP3   OH2  878   4.659   1.722   1.149
  312TIP3    H1  879   4.578   1.777   1.157
  312TIP3    H2  880   4.693   1.754   1.063
  313TIP3   OH2  881   4.123   1.576   0.541
  313TIP3    H1  882   4.064   1.603   0.615
  313TIP3    H2  883   4.204   1.550   0.588
  314TIP3   OH2  884   4.344   1.608   1.457
  314TIP3    H1  885   4.341   1.690   1.508
  314TIP3    H2  886   4.257   1.612   1.411
  315TIP3   OH2  887   3.344   1.564   0.956
  315TIP3    H1  888   3.330   1.509   0.877
  315TIP3    H2  889   3.426   1.524   0.994
  316TIP3   OH2  890   3.474   1.981   1.105
  316TIP3    H1  891   3.453   1.944   1.019
  316TIP3    H2  892   3.563   1.943   1.123
  317TIP3   OH2  893   3.480   1.541   1.312
  317TIP3    H1  894   3.518   1.520   1.225
  317TIP3    H2  895   3.522   1.627   1.334
  318TIP3   OH2  896   4.007   2.175   1.090
  318TIP3    H1  897   3.991   2.256   1.142
  318TIP3    H2  898   3.988   2.104   1.154
  319TIP3   OH2  899   3.617   2.094   1.636
  319TIP3    H1  900   3.556   2.155   1.683
  319TIP3    H2  901   3.552   2.041   1.585
  320TIP3   OH2  902   3.969   1.423   0.377
  320TIP3    H1  903   4.025   1.488   0.425
  320TIP3    H2  904   3.991   1.444   0.284
  321TIP3   OH2  905   3.371   1.649   1.738
  321TIP3    H1  906   3.377   1.737   1.780
  321TIP3    H2  907   3.277   1.628   1.756
  322TIP3   OH2  908   3.695   2.100   0.650
  322TIP3    H1  909   3.768   2.163   0.659
  322TIP3    H2  910   3.633   2.147   0.593
  323TIP3   OH2  911   3.411   2.259   1.725
  323TIP3    H1  912   3.374   2.263   1.635
  323TIP3    H2  913   3.332   2.237   1.779
  324TIP3   OH2  914   4.271   2.043  -0.020
  324TIP3    H1  915   4.275   2.138  -0.050
  324TIP3    H2  916   4.358   2.010  -0.049
  325TIP3   OH2  917   2.989   1.790   1.672
  325TIP3    H1  918   2.924   1.763   1.606
  325TIP3    H2  919   3.030   1.705   1.699
  326TIP3   OH2  920   2.846   1.985   1.303
  326TIP3    H1  921   2.942   1.995   1.302
  326TIP3    H2  922   2.820   2.065   1.352
  327TIP3   OH2  923   4.715   2.444   1.370
  327TIP3    H1  924   4.712   2.346   1.379
  327TIP3    H2  925   4.628   2.467   1.409
  328TIP3   OH2  926   3.813   2.222   1.494
  328TIP3    H1  927   3.810   2.315   1.526
  328TIP3    H2  928   3.741   2.182   1.548
  329TIP3   OH2  929   3.582   2.355   0.441
  329TIP3    H1  930   3.533   2.339   0.358
  329TIP3    H2  931   3.544   2.440   0.471
  330TIP3   OH2  932   3.023   2.213   0.832
  330TIP3    H1  933   3.068   2.205   0.919
  330TIP3    H2  934   2.975   2.128   0.829
  331TIP3   OH2  935   3.769   2.258   0.098
  331TIP3    H1  936   3.829   2.198   0.049
  331TIP3    H2  937   3.809   2.257   0.187
  332TIP3   OH2  938   3.835   2.301   0.366
  332TIP3    H1  939   3.741   2.313   0.393
  332TIP3    H2  940   3.872   2.264   0.447
  333TIP3   OH2  941   4.602   1.571   1.628
  333TIP3    H1  942   4.515   1.579   1.586
  333TIP3    H2  943   4.616   1.474   1.623
  334TIP3   OH2  944   3.194   1.975   1.653
  334TIP3    H1  945   3.241   1.963   1.738
  334TIP3    H2  946   3.119   1.913   1.664
  335TIP3   OH2  947   3.606   0.814   1.453
  335TIP3    H1  948   3.517   0.782   1.429
  335TIP3    H2  949   3.580   0.891   1.506
  336TIP3   OH2  950   4.129   0.914   1.638
  336TIP3    H1  951   4.198   0.887   1.702
  336TIP3    H2  952   4.046   0.895   1.685
  337TIP3   OH2  953   4.364   1.345   1.557
  337TIP3    H1  954   4.313   1.341   1.641
  337TIP3    H2  955   4.339   1.432   1.521
  338TIP3   OH2  956   4.067   1.485   0.126
  338TIP3    H1  957   4.000   1.471   0.059
  338TIP3    H2  958   4.132   1.541   0.081
  339TIP3   OH2  959   3.531   1.325   1.467
  339TIP3    H1  960   3.480   1.344   1.548
  339TIP3    H2  961   3.512   1.405   1.413
  340TIP3   OH2  962   3.423   1.228   0.978
  340TIP3    H1  963   3.330   1.205   0.992
  340TIP3    H2  964   3.452   1.154   0.921
  341TIP3   OH2  965   3.904   1.286   0.706
  341TIP3    H1  966   3.856   1.358   0.660
  341TIP3    H2  967   3.955   1.246   0.633
  342TIP3   OH2  968   4.074   1.563   1.787
  342TIP3    H1  969   4.051   1.491   1.850
  342TIP3    H2  970   4.167   1.578   1.811
  343TIP3   OH2  971   4.054   1.314   0.942
  343TIP3    H1  972   3.993   1.338   0.869
  343TIP3    H2  973   4.093   1.234   0.900
  344TIP3   OH2  974   3.344   1.344   1.669
  344TIP3    H1  975   3.366   1.410   1.737
  344TIP3    H2  976   3.328   1.264   1.722
  345TIP3   OH2  977   4.066   1.560   1.362
  345TIP3    H1  978   4.100   1.488   1.303
  345TIP3    H2  979   4.036   1.506   1.438
  346TIP3   OH2  980   3.741   1.015   1.042
  346TIP3    H1  981   3.670   1.021   1.108
  346TIP3    H2  982   3.821   1.015   1.098
  347TIP3   OH2  983   4.228   1.099   1.242
  347TIP3    H1  984   4.195   1.113   1.333
  347TIP3    H2  985   4.163   1.036   1.208
  348TIP3   OH2  986   4.402   2.787   1.459
  348TIP3    H1  987   4.397   2.813   1.366
  348TIP3    H2  988   4.479   2.839   1.491
  349TIP3   OH2  989   3.358   1.897   1.878
  349TIP3    H1  990   3.436   1.928   1.927
  349TIP3    H2  991   3.291   1.897   1.950
  350TIP3   OH2  992   3.821   1.353   1.135
  350TIP3    H1  993   3.895   1.315   1.085
  350TIP3    H2  994   3.828   1.308   1.221
  351TIP3   OH2  995   3.795   1.253   1.423
  351TIP3    H1  996   3.706   1.290   1.440
  351TIP3    H2  997   3.854   1.313   1.473
  352TIP3   OH2  998   3.530   1.628   0.533
  352TIP3    H1  999   3.436   1.617   0.519
  352TIP3    H2 1000   3.528   1.670   0.623
  353TIP3   OH2 1001   4.431   1.876   1.145
  353TIP3    H1 1002   4.453   1.926   1.064
  353TIP3    H2 1003   4.346   1.832   1.120
  354TIP3   OH2 1004   3.932   1.960   1.516
  354TIP3    H1 1005   3.958   1.939   1.606
  354TIP3    H2 1006   3.891   2.047   1.524
  355TIP3   OH2 1007   4.054   1.186   0.490
  355TIP3    H1 1008   4.150   1.199   0.499
  355TIP3    H2 1009   4.026   1.266   0.440
  356TIP3   OH2 1010   3.231   1.664   1.193
  356TIP3    H1 1011   3.271   1.632   1.110
  356TIP3    H2 1012   3.273   1.608   1.260
  357TIP3   OH2 1013   3.685   1.794   0.373
  357TIP3    H1 1014   3.637   1.880   0.373
  357TIP3    H2 1015   3.622   1.738   0.421
  358TIP3   OH2 1016   3.109   1.578   1.807
  358TIP3    H1 1017   3.123   1.564   1.903
  358TIP3    H2 1018   3.038   1.515   1.788
  359TIP3   OH2 1019   3.834   1.699   1.825
  359TIP3    H1 1020   3.772   1.637   1.784
  359TIP3    H2 1021   3.920   1.662   1.797
  360TIP3   OH2 1022   4.090   2.220   1.411
  360TIP3    H1 1023   3.994   2.216   1.426
  360TIP3    H2 1024   4.119   2.270   1.490
  361TIP3   OH2 1025   4.491   1.290   0.325
  361TIP3    H1 1026   4.443   1.231   0.263
  361TIP3    H2 1027   4.480   1.375   0.278
  362TIP3   OH2 1028   4.718   2.166   1.391
  362TIP3    H1 1029   4.622   2.149   1.386
  362TIP3    H2 1030   4.747   2.126   1.306
  363TIP3   OH2 1031   4.225   2.032   0.250
  363TIP3    H1 1032   4.138   2.046   0.278
  363TIP3    H2 1033   4.219   2.033   0.153
  364TIP3   OH2 1034   4.199   1.738   1.061
  364TIP3    H1 1035   4.105   1.715   1.076
  364TIP3    H2 1036   4.231   1.657   1.018
  365TIP3   OH2 1037   3.324   1.967   0.813
  365TIP3    H1 1038   3.322   2.051   0.763
  365TIP3    H2 1039   3.230   1.953   0.830
  366TIP3   OH2 1040   3.465   1.737   0.769
  366TIP3    H1 1041   3.428   1.827   0.782
  366TIP3    H2 1042   3.429   1.690   0.845
  367TIP3   OH2 1043   3.597   2.310   1.287
  367TIP3    H1 1044   3.639   2.383   1.238
  367TIP3    H2 1045   3.672   2.273   1.336
  368TIP3   OH2 1046   3.248   2.204   0.670
  368TIP3    H1 1047   3.163   2.217   0.717
  368TIP3    H2 1048   3.282   2.296   0.671
  369TIP3   OH2 1049   3.981   1.943   1.248
  369TIP3    H1 1050   3.969   1.943   1.346
  369TIP3    H2 1051   4.061   1.890   1.239
  370TIP3   OH2 1052   3.964   1.838   0.141
  370TIP3    H1 1053   3.955   1.808   0.232
  370TIP3    H2 1054   3.890   1.791   0.100
  371TIP3   OH2 1055   4.233   2.473   1.297
  371TIP3    H1 1056   4.152   2.418   1.293
  371TIP3    H2 1057   4.214   2.538   1.225
  372TIP3   OH2 1058   4.298   2.315  -0.053
  372TIP3    H1 1059   4.346   2.384  -0.101
  372TIP3    H2 1060   4.220   2.367  -0.023
  373TIP3   OH2 1061   3.310   1.089   1.814
  373TIP3    H1 1062   3.215   1.107   1.833
  373TIP3    H2 1063   3.336   1.037   1.892
  374TIP3   OH2 1064   3.038   2.168   1.443
  374TIP3    H1 1065   3.092   2.101   1.489
  374TIP3    H2 1066   3.049   2.244   1.502
  375TIP3   OH2 1067   3.308   1.826   0.395
  375TIP3    H1 1068   3.305   1.811   0.490
  375TIP3    H2 1069   3.287   1.922   0.393
  376TIP3   OH2 1070   4.155   1.152   1.500
  376TIP3    H1 1071   4.235   1.190   1.539
  376TIP3    H2 1072   4.142   1.071   1.554
  377TIP3   OH2 1073   4.025   0.930   0.658
  377TIP3    H1 1074   4.017   0.969   0.570
  377TIP3    H2 1075   4.071   1.002   0.706
  378TIP3   OH2 1076   3.544   2.026   0.373
  378TIP3    H1 1077   3.455   2.055   0.402
  378TIP3    H2 1078   3.539   2.040   0.277
  379TIP3   OH2 1079   3.724   1.080   0.750
  379TIP3    H1 1080   3.787   1.155   0.745
  379TIP3    H2 1081   3.718   1.065   0.845
  380TIP3   OH2 1082   3.994   1.400   1.570
  380TIP3    H1 1083   4.017   1.452   1.650
  380TIP3    H2 1084   4.046   1.319   1.583
  381TIP3   OH2 1085   3.899   0.829   0.883
  381TIP3    H1 1086   3.864   0.914   0.913
  381TIP3    H2 1087   3.943   0.854   0.799
  382TIP3   OH2 1088   3.277   2.093   0.419
  382TIP3    H1 1089   3.250   2.165   0.358
  382TIP3    H2 1090   3.260   2.135   0.507
  383TIP3   OH2 1091   4.630   1.301   1.555
  383TIP3    H1 1092   4.532   1.300   1.563
  383TIP3    H2 1093   4.640   1.256   1.470
  384TIP3   OH2 1094   4.283   1.494   0.939
  384TIP3    H1 1095   4.207   1.435   0.951
  384TIP3    H2 1096   4.354   1.446   0.988
  385TIP3   OH2 1097   4.253   2.452   0.888
  385TIP3    H1 1098   4.209   2.499   0.813
  385TIP3    H2 1099   4.347   2.471   0.867
  386TIP3   OH2 1100   3.338   0.744   1.488
  386TIP3    H1 1101   3.318   0.703   1.402
  386TIP3    H2 1102   3.333   0.664   1.545
  387TIP3   OH2 1103   2.898   1.966   0.798
  387TIP3    H1 1104   2.808   2.004   0.799
  387TIP3    H2 1105   2.914   1.943   0.705
  388TIP3   OH2 1106   3.027   2.485   1.864
  388TIP3    H1 1107   3.111   2.486   1.915
  388TIP3    H2 1108   3.003   2.391   1.868
  389TIP3   OH2 1109   3.506   2.442   1.914
  389TIP3    H1 1110   3.600   2.420   1.919
  389TIP3    H2 1111   3.477   2.381   1.843
  390TIP3   OH2 1112   3.489   2.024   0.099
  390TIP3    H1 1113   3.437   1.943   0.112
  390TIP3    H2 1114   3.511   2.012   0.005
  391TIP3   OH2 1115   4.146   2.350   1.646
  391TIP3    H1 1116   4.137   2.281   1.716
  391TIP3    H2 1117   4.220   2.404   1.680
  392TIP3   OH2 1118   3.944   2.078  -0.019
  392TIP3    H1 1119   3.958   1.991   0.023
  392TIP3    H2 1120   3.997   2.071  -0.099
  393TIP3   OH2 1121   3.156   1.889   2.070
  393TIP3    H1 1122   3.169   1.792   2.078
  393TIP3    H2 1123   3.068   1.892   2.026
  394TIP3   OH2 1124   3.763   1.976   1.843
  394TIP3    H1 1125   3.719   1.994   1.758
  394TIP3    H2 1126   3.792   1.883   1.833
  395TIP3   OH2 1127   3.739   1.691   0.084
  395TIP3    H1 1128   3.699   1.720   0.169
  395TIP3    H2 1129   3.661   1.688   0.026
  396TIP3   OH2 1130   4.253   1.983   1.451
  396TIP3    H1 1131   4.329   2.028   1.408
  396TIP3    H2 1132   4.183   2.049   1.437
  397TIP3   OH2 1133   3.276   1.622   2.054
  397TIP3    H1 1134   3.353   1.567   2.033
  397TIP3    H2 1135   3.302   1.657   2.142
  398TIP3   OH2 1136   3.610   1.506   1.714
  398TIP3    H1 1137   3.531   1.565   1.715
  398TIP3    H2 1138   3.660   1.541   1.637
  399TIP3   OH2 1139   4.127   1.908   1.847
  399TIP3    H1 1140   4.205   1.876   1.801
  399TIP3    H2 1141   4.119   1.845   1.920
  400TIP3   OH2 1142   4.276   1.594  -0.029
  400TIP3    H1 1143   4.289   1.537  -0.106
  400TIP3    H2 1144   4.263   1.681  -0.070
  401TIP3   OH2 1145   3.733   1.295   1.837
  401TIP3    H1 1146   3.734   1.217   1.779
  401TIP3    H2 1147   3.689   1.363   1.781
  402TIP3   OH2 1148   3.739   1.082   1.647
  402TIP3    H1 1149   3.766   1.124   1.563
  402TIP3    H2 1150   3.644   1.063   1.631
  403TIP3   OH2 1151   3.758   1.614   1.518
  403TIP3    H1 1152   3.845   1.629   1.477
  403TIP3    H2 1153   3.702   1.681   1.473
  404TIP3   OH2 1154   4.340   1.581   1.897
  404TIP3    H1 1155   4.388   1.499   1.918
  404TIP3    H2 1156   4.411   1.638   1.865
  405TIP3   OH2 1157   4.388   1.837   1.635
  405TIP3    H1 1158   4.328   1.891   1.578
  405TIP3    H2 1159   4.475   1.859   1.594
  406TIP3   OH2 1160   3.611   1.403   2.070
  406TIP3    H1 1161   3.543   1.335   2.088
  406TIP3    H2 1162   3.645   1.374   1.983
  407TIP3   OH2 1163   3.868   0.844   1.717
  407TIP3    H1 1164   3.819   0.925   1.693
  407TIP3    H2 1165   3.799   0.775   1.706
  408TIP3   OH2 1166   3.993   1.346   1.931
  408TIP3    H1 1167   3.980   1.333   2.027
  408TIP3    H2 1168   3.903   1.323   1.900
  409TIP3   OH2 1169   4.230   1.295   1.786
  409TIP3    H1 1170   4.156   1.298   1.849
  409TIP3    H2 1171   4.305   1.266   1.842
  410TIP3   OH2 1172   4.461   1.238   1.933
  410TIP3    H1 1173   4.474   1.143   1.952
  410TIP3    H2 1174   4.456   1.277   2.023
  411TIP3   OH2 1175   3.451   1.182   2.125
  411TIP3    H1 1176   3.459   1.090   2.093
  411TIP3    H2 1177   3.487   1.173   2.215
  412TIP3   OH2 1178   3.958   0.851   1.976
  412TIP3    H1 1179   4.025   0.781   1.969
  412TIP3    H2 1180   3.919   0.848   1.886
  413TIP3   OH2 1181   4.027   1.069   2.133
  413TIP3    H1 1182   4.004   0.998   2.069
  413TIP3    H2 1183   3.949   1.128   2.127
  414TIP3   OH2 1184   3.240   2.286   0.228
  414TIP3    H1 1185   3.333   2.299   0.202
  414TIP3    H2 1186   3.192   2.337   0.162
  415TIP3   OH2 1187   2.643   2.283   0.854
  415TIP3    H1 1188   2.576   2.223   0.821
  415TIP3    H2 1189   2.686   2.231   0.926
  416TIP3   OH2 1190   2.768   2.148   1.055
  416TIP3    H1 1191   2.765   2.074   1.118
  416TIP3    H2 1192   2.824   2.210   1.104
  417TIP3   OH2 1193   4.509   2.537   0.849
  417TIP3    H1 1194   4.530   2.570   0.939
  417TIP3    H2 1195   4.569   2.589   0.794
  418TIP3   OH2 1196   4.533   2.561   1.130
  418TIP3    H1 1197   4.488   2.474   1.127
  418TIP3    H2 1198   4.608   2.539   1.187
  419TIP3   OH2 1199   4.581   2.239   1.708
  419TIP3    H1 1200   4.507   2.247   1.773
  419TIP3    H2 1201   4.617   2.330   1.710
  420TIP3   OH2 1202   4.516   1.632   0.509
  420TIP3    H1 1203   4.450   1.586   0.566
  420TIP3    H2 1204   4.579   1.666   0.575
  421TIP3   OH2 1205   4.581   2.010   0.956
  421TIP3    H1 1206   4.638   1.946   0.910
  421TIP3    H2 1207   4.576   2.084   0.892
  422TIP3   OH2 1208   4.409   2.312   1.151
  422TIP3    H1 1209   4.338   2.354   1.204
  422TIP3    H2 1210   4.359   2.266   1.081
  423TIP3   OH2 1211   4.463   1.524   0.175
  423TIP3    H1 1212   4.391   1.550   0.114
  423TIP3    H2 1213   4.451   1.584   0.250
  424TIP3   OH2 1214   4.322   1.178   0.133
  424TIP3    H1 1215   4.288   1.255   0.087
  424TIP3    H2 1216   4.241   1.126   0.149
  425TIP3   OH2 1217   4.348   1.480   0.670
  425TIP3    H1 1218   4.346   1.384   0.660
  425TIP3    H2 1219   4.331   1.490   0.767
  426TIP3   OH2 1220   2.968   1.565   1.427
  426TIP3    H1 1221   2.968   1.536   1.334
  426TIP3    H2 1222   3.065   1.561   1.446
  427TIP3   OH2 1223   4.635   1.904   1.527
  427TIP3    H1 1224   4.708   1.839   1.518
  427TIP3    H2 1225   4.662   1.973   1.465
  428TIP3   OH2 1226   4.827   1.710   1.561
  428TIP3    H1 1227   4.744   1.666   1.590
  428TIP3    H2 1228   4.887   1.632   1.567
  429TIP3   OH2 1229   4.333   1.202   0.566
  429TIP3    H1 1230   4.372   1.113   0.582
  429TIP3    H2 1231   4.391   1.233   0.494
  430TIP3   OH2 1232   4.495   1.364   1.064
  430TIP3    H1 1233   4.580   1.388   1.022
  430TIP3    H2 1234   4.510   1.401   1.153
  431TIP3   OH2 1235   4.567   1.508   1.295
  431TIP3    H1 1236   4.489   1.543   1.344
  431TIP3    H2 1237   4.596   1.588   1.246
  432TIP3   OH2 1238   3.185   1.240   2.111
  432TIP3    H1 1239   3.283   1.234   2.110
  432TIP3    H2 1240   3.164   1.152   2.149
  433TIP3   OH2 1241   5.014   1.101   1.848
  433TIP3    H1 1242   5.078   1.038   1.809
  433TIP3    H2 1243   4.988   1.155   1.771
  434TIP3   OH2 1244   4.444   0.955   0.608
  434TIP3    H1 1245   4.480   0.942   0.699
  434TIP3    H2 1246   4.382   0.878   0.605
  435TIP3   OH2 1247   3.164   0.949   1.453
  435TIP3    H1 1248   3.222   0.883   1.495
  435TIP3    H2 1249   3.218   1.030   1.461
  436TIP3   OH2 1250   2.965   1.221   1.500
  436TIP3    H1 1251   3.009   1.225   1.413
  436TIP3    H2 1252   2.986   1.307   1.537
  437TIP3   OH2 1253   4.886   1.241   1.652
  437TIP3    H1 1254   4.800   1.282   1.675
  437TIP3    H2 1255   4.854   1.166   1.597
  438TIP3   OH2 1256   4.104   2.400   0.511
  438TIP3    H1 1257   4.149   2.404   0.424
  438TIP3    H2 1258   4.140   2.478   0.557
  439TIP3   OH2 1259   3.160   0.748   1.838
  439TIP3    H1 1260   3.129   0.780   1.924
  439TIP3    H2 1261   3.111   0.811   1.780
  440TIP3   OH2 1262   3.193   2.209   1.888
  440TIP3    H1 1263   3.098   2.190   1.872
  440TIP3    H2 1264   3.199   2.196   1.984
  441TIP3   OH2 1265   3.371   2.247   1.437
  441TIP3    H1 1266   3.320   2.321   1.399
  441TIP3    H2 1267   3.456   2.263   1.391
  442TIP3   OH2 1268   3.811   2.488   1.573
  442TIP3    H1 1269   3.852   2.489   1.663
  442TIP3    H2 1270   3.876   2.542   1.523
  443TIP3   OH2 1271   3.991   2.644   1.436
  443TIP3    H1 1272   4.062   2.593   1.396
  443TIP3    H2 1273   4.042   2.701   1.497
  444TIP3   OH2 1274   4.787   1.006   1.534
  444TIP3    H1 1275   4.698   0.995   1.498
  444TIP3    H2 1276   4.822   0.914   1.527
  445TIP3   OH2 1277   3.045   2.502   1.463
  445TIP3    H1 1278   2.954   2.533   1.440
  445TIP3    H2 1279   3.056   2.546   1.548
  446TIP3   OH2 1280   3.281   2.482   1.321
  446TIP3    H1 1281   3.194   2.493   1.365
  446TIP3    H2 1282   3.261   2.514   1.231
  447TIP3   OH2 1283   3.708   2.509   1.116
  447TIP3    H1 1284   3.634   2.526   1.054
  447TIP3    H2 1285   3.718   2.596   1.159
  448TIP3   OH2 1286   3.976   2.447   1.168
  448TIP3    H1 1287   3.881   2.465   1.150
  448TIP3    H2 1288   4.018   2.524   1.128
  449TIP3   OH2 1289   4.183   2.639   1.083
  449TIP3    H1 1290   4.169   2.724   1.036
  449TIP3    H2 1291   4.208   2.579   1.010
  450TIP3   OH2 1292   2.957   2.297   1.202
  450TIP3    H1 1293   2.980   2.268   1.293
  450TIP3    H2 1294   3.030   2.252   1.153
  451TIP3   OH2 1295   3.154   2.170   1.065
  451TIP3    H1 1296   3.167   2.086   1.116
  451TIP3    H2 1297   3.246   2.205   1.063
  452TIP3   OH2 1298   3.420   2.261   1.069
  452TIP3    H1 1299   3.450   2.168   1.061
  452TIP3    H2 1300   3.465   2.285   1.152
  453TIP3   OH2 1301   3.990   0.929   1.166
  453TIP3    H1 1302   3.950   0.855   1.215
  453TIP3    H2 1303   4.040   0.882   1.097
  454TIP3   OH2 1304   4.518   0.811   1.072
  454TIP3    H1 1305   4.547   0.866   0.995
  454TIP3    H2 1306   4.421   0.816   1.061
  455TIP3   OH2 1307   4.592   0.924   0.838
  455TIP3    H1 1308   4.664   0.862   0.812
  455TIP3    H2 1309   4.634   1.012   0.820
  456TIP3   OH2 1310   3.695   0.683   1.078
  456TIP3    H1 1311   3.716   0.766   1.032
  456TIP3    H2 1312   3.736   0.699   1.164
  457TIP3   OH2 1313   4.243   0.815   1.029
  457TIP3    H1 1314   4.227   0.775   0.943
  457TIP3    H2 1315   4.225   0.740   1.090
  458TIP3   OH2 1316   4.269   0.746   0.639
  458TIP3    H1 1317   4.179   0.781   0.629
  458TIP3    H2 1318   4.259   0.670   0.700
  459TIP3   OH2 1319   3.509   2.289   0.171
  459TIP3    H1 1320   3.600   2.304   0.138
  459TIP3    H2 1321   3.499   2.195   0.142
  460TIP3   OH2 1322   4.240   2.372   0.268
  460TIP3    H1 1323   4.243   2.280   0.240
  460TIP3    H2 1324   4.191   2.414   0.194
  461TIP3   OH2 1325   3.449   0.902   2.055
  461TIP3    H1 1326   3.412   0.837   2.118
  461TIP3    H2 1327   3.543   0.903   2.085
  462TIP3   OH2 1328   3.699   0.900   2.175
  462TIP3    H1 1329   3.785   0.884   2.134
  462TIP3    H2 1330   3.694   0.827   2.239
  463TIP3   OH2 1331   4.525   0.967   1.967
  463TIP3    H1 1332   4.542   0.937   2.059
  463TIP3    H2 1333   4.614   0.963   1.928
  464TIP3   OH2 1334   4.462   2.518   1.458
  464TIP3    H1 1335   4.383   2.487   1.409
  464TIP3    H2 1336   4.441   2.613   1.465
  465TIP3   OH2 1337   5.680   1.913   0.279
  465TIP3    H1 1338   5.671   1.994   0.224
  465TIP3    H2 1339   5.636   1.849   0.223
  466TIP3   OH2 1340   5.675   1.885   0.641
  466TIP3    H1 1341   5.756   1.866   0.694
  466TIP3    H2 1342   5.699   1.844   0.555
  467TIP3   OH2 1343   5.044   1.786   0.955
  467TIP3    H1 1344   5.063   1.712   1.018
  467TIP3    H2 1345   5.090   1.858   1.001
  468TIP3   OH2 1346   5.974   2.204   0.290
  468TIP3    H1 1347   5.957   2.133   0.353
  468TIP3    H2 1348   6.006   2.276   0.347
  469TIP3   OH2 1349   5.000   2.199   0.694
  469TIP3    H1 1350   4.993   2.101   0.696
  469TIP3    H2 1351   5.097   2.209   0.685
  470TIP3   OH2 1352   4.702   1.423   0.486
  470TIP3    H1 1353   4.643   1.499   0.496
  470TIP3    H2 1354   4.640   1.356   0.454
  471TIP3   OH2 1355   4.759   1.690   0.653
  471TIP3    H1 1356   4.801   1.607   0.686
  471TIP3    H2 1357   4.822   1.717   0.585
  472TIP3   OH2 1358   5.623   2.658   0.309
  472TIP3    H1 1359   5.661   2.582   0.259
  472TIP3    H2 1360   5.612   2.618   0.397
  473TIP3   OH2 1361   5.523   2.115   0.658
  473TIP3    H1 1362   5.570   2.051   0.601
  473TIP3    H2 1363   5.603   2.167   0.687
  474TIP3   OH2 1364   5.927   1.619   0.688
  474TIP3    H1 1365   5.965   1.535   0.721
  474TIP3    H2 1366   5.884   1.588   0.607
  475TIP3   OH2 1367   5.260   1.313   0.679
  475TIP3    H1 1368   5.230   1.371   0.606
  475TIP3    H2 1369   5.253   1.225   0.637
  476TIP3   OH2 1370   4.904   1.480   0.753
  476TIP3    H1 1371   4.979   1.456   0.810
  476TIP3    H2 1372   4.918   1.418   0.678
  477TIP3   OH2 1373   5.354   1.685   0.580
  477TIP3    H1 1374   5.443   1.648   0.579
  477TIP3    H2 1375   5.301   1.608   0.550
  478TIP3   OH2 1376   6.578   1.621   0.839
  478TIP3    H1 1377   6.516   1.693   0.823
  478TIP3    H2 1378   6.655   1.666   0.878
  479TIP3   OH2 1379   5.268   1.265   1.091
  479TIP3    H1 1380   5.204   1.306   1.030
  479TIP3    H2 1381   5.221   1.278   1.176
  480TIP3   OH2 1382   5.626   2.124   0.091
  480TIP3    H1 1383   5.580   2.095   0.010
  480TIP3    H2 1384   5.569   2.198   0.119
  481TIP3   OH2 1385   5.392   2.003   0.859
  481TIP3    H1 1386   5.325   2.049   0.930
  481TIP3    H2 1387   5.414   2.082   0.813
  482TIP3   OH2 1388   5.124   1.397   0.897
  482TIP3    H1 1389   5.163   1.481   0.926
  482TIP3    H2 1390   5.182   1.370   0.822
  483TIP3   OH2 1391   5.214   2.221   0.974
  483TIP3    H1 1392   5.189   2.305   0.934
  483TIP3    H2 1393   5.136   2.206   1.031
  484TIP3   OH2 1394   4.529   1.941   0.233
  484TIP3    H1 1395   4.532   1.936   0.135
  484TIP3    H2 1396   4.597   2.010   0.250
  485TIP3   OH2 1397   6.041   2.442   0.457
  485TIP3    H1 1398   5.951   2.433   0.495
  485TIP3    H2 1399   6.033   2.527   0.409
  486TIP3   OH2 1400   5.735   2.470   0.141
  486TIP3    H1 1401   5.782   2.387   0.119
  486TIP3    H2 1402   5.798   2.534   0.100
  487TIP3   OH2 1403   5.875   2.255   0.039
  487TIP3    H1 1404   5.804   2.188   0.041
  487TIP3    H2 1405   5.927   2.231   0.118
  488TIP3   OH2 1406   6.266   2.350   0.800
  488TIP3    H1 1407   6.253   2.272   0.742
  488TIP3    H2 1408   6.244   2.424   0.740
  489TIP3   OH2 1409   6.458   1.997   0.656
  489TIP3    H1 1410   6.372   2.044   0.648
  489TIP3    H2 1411   6.493   2.008   0.566
  490TIP3   OH2 1412   6.128   1.873   0.947
  490TIP3    H1 1413   6.123   1.948   1.009
  490TIP3    H2 1414   6.041   1.879   0.904
  491TIP3   OH2 1415   5.136   1.816   0.450
  491TIP3    H1 1416   5.105   1.758   0.378
  491TIP3    H2 1417   5.215   1.769   0.483
  492TIP3   OH2 1418   5.266   2.235   0.592
  492TIP3    H1 1419   5.247   2.203   0.503
  492TIP3    H2 1420   5.355   2.199   0.609
  493TIP3   OH2 1421   5.798   2.432   0.577
  493TIP3    H1 1422   5.788   2.514   0.629
  493TIP3    H2 1423   5.783   2.362   0.642
  494TIP3   OH2 1424   5.411   2.354   1.117
  494TIP3    H1 1425   5.350   2.414   1.163
  494TIP3    H2 1426   5.347   2.297   1.067
  495TIP3   OH2 1427   5.484   2.361   0.139
  495TIP3    H1 1428   5.570   2.406   0.143
  495TIP3    H2 1429   5.433   2.420   0.082
  496TIP3   OH2 1430   5.206   2.518   1.209
  496TIP3    H1 1431   5.173   2.520   1.117
  496TIP3    H2 1432   5.127   2.488   1.259
  497TIP3   OH2 1433   5.008   1.662   0.235
  497TIP3    H1 1434   4.937   1.709   0.186
  497TIP3    H2 1435   4.960   1.585   0.268
  498TIP3   OH2 1436   4.785   2.056   1.150
  498TIP3    H1 1437   4.714   2.027   1.089
  498TIP3    H2 1438   4.816   1.971   1.189
  499TIP3   OH2 1439   4.639   2.245   0.783
  499TIP3    H1 1440   4.736   2.241   0.783
  499TIP3    H2 1441   4.623   2.321   0.841
  500TIP3   OH2 1442   6.510   2.688   0.844
  500TIP3    H1 1443   6.512   2.591   0.853
  500TIP3    H2 1444   6.416   2.706   0.852
  501TIP3   OH2 1445   5.610   2.481   0.980
  501TIP3    H1 1446   5.605   2.573   1.012
  501TIP3    H2 1447   5.539   2.438   1.034
  502TIP3   OH2 1448   5.377   2.617  -0.067
  502TIP3    H1 1449   5.312   2.594  -0.135
  502TIP3    H2 1450   5.347   2.704  -0.035
  503TIP3   OH2 1451   4.810   2.458   0.319
  503TIP3    H1 1452   4.860   2.450   0.403
  503TIP3    H2 1453   4.749   2.383   0.327
  504TIP3   OH2 1454   5.607   2.498  -0.161
  504TIP3    H1 1455   5.527   2.542  -0.125
  504TIP3    H2 1456   5.671   2.517  -0.091
  505TIP3   OH2 1457   6.396   1.826   1.132
  505TIP3    H1 1458   6.323   1.826   1.070
  505TIP3    H2 1459   6.416   1.729   1.134
  506TIP3   OH2 1460   4.996   2.224   1.139
  506TIP3    H1 1461   5.008   2.238   1.234
  506TIP3    H2 1462   4.918   2.164   1.138
  507TIP3   OH2 1463   5.373   1.069   0.930
  507TIP3    H1 1464   5.287   1.032   0.902
  507TIP3    H2 1465   5.344   1.141   0.988
  508TIP3   OH2 1466   5.920   1.160   1.111
  508TIP3    H1 1467   5.990   1.145   1.178
  508TIP3    H2 1468   5.838   1.145   1.163
  509TIP3   OH2 1469   6.155   1.600   1.036
  509TIP3    H1 1470   6.113   1.595   1.125
  509TIP3    H2 1471   6.135   1.690   1.008
  510TIP3   OH2 1472   5.191   1.483   0.476
  510TIP3    H1 1473   5.104   1.438   0.473
  510TIP3    H2 1474   5.231   1.456   0.391
  511TIP3   OH2 1475   5.868   1.821   1.277
  511TIP3    H1 1476   5.847   1.748   1.339
  511TIP3    H2 1477   5.962   1.835   1.300
  512TIP3   OH2 1478   5.807   1.553   0.455
  512TIP3    H1 1479   5.829   1.601   0.372
  512TIP3    H2 1480   5.821   1.460   0.427
  513TIP3   OH2 1481   5.124   1.603   1.147
  513TIP3    H1 1482   5.189   1.663   1.191
  513TIP3    H2 1483   5.124   1.529   1.210
  514TIP3   OH2 1484   4.725   1.143   0.754
  514TIP3    H1 1485   4.807   1.164   0.803
  514TIP3    H2 1486   4.757   1.104   0.671
  515TIP3   OH2 1487   4.752   1.197   0.313
  515TIP3    H1 1488   4.794   1.258   0.251
  515TIP3    H2 1489   4.657   1.220   0.304
  516TIP3   OH2 1490   5.862   1.828   0.841
  516TIP3    H1 1491   5.898   1.750   0.793
  516TIP3    H2 1492   5.830   1.784   0.923
  517TIP3   OH2 1493   5.529   1.299   0.611
  517TIP3    H1 1494   5.438   1.319   0.641
  517TIP3    H2 1495   5.573   1.278   0.694
  518TIP3   OH2 1496   4.957   1.331   0.517
  518TIP3    H1 1497   4.862   1.355   0.503
  518TIP3    H2 1498   4.961   1.245   0.472
  519TIP3   OH2 1499   5.933   1.339   0.723
  519TIP3    H1 1500   5.931   1.367   0.817
  519TIP3    H2 1501   6.004   1.274   0.723
  520TIP3   OH2 1502   6.189   3.056   0.957
  520TIP3    H1 1503   6.193   3.058   0.860
  520TIP3    H2 1504   6.277   3.091   0.980
  521TIP3   OH2 1505   5.616   1.605   0.651
  521TIP3    H1 1506   5.665   1.584   0.569
  521TIP3    H2 1507   5.677   1.568   0.716
  522TIP3   OH2 1508   5.287   1.931  -0.007
  522TIP3    H1 1509   5.251   1.839  -0.012
  522TIP3    H2 1510   5.296   1.942   0.090
  523TIP3   OH2 1511   6.225   2.138   0.635
  523TIP3    H1 1512   6.249   2.189   0.554
  523TIP3    H2 1513   6.137   2.101   0.611
  524TIP3   OH2 1514   5.728   2.216   1.005
  524TIP3    H1 1515   5.750   2.192   1.096
  524TIP3    H2 1516   5.688   2.304   1.015
  525TIP3   OH2 1517   5.022   1.923   0.684
  525TIP3    H1 1518   5.062   1.885   0.603
  525TIP3    H2 1519   5.042   1.857   0.752
  526TIP3   OH2 1520   5.481   2.066  -0.144
  526TIP3    H1 1521   5.427   2.147  -0.158
  526TIP3    H2 1522   5.412   2.007  -0.106
  527TIP3   OH2 1523   4.874   1.852   1.301
  527TIP3    H1 1524   4.924   1.833   1.382
  527TIP3    H2 1525   4.830   1.767   1.283
  528TIP3   OH2 1526   5.619   1.961   1.323
  528TIP3    H1 1527   5.543   1.902   1.305
  528TIP3    H2 1528   5.695   1.911   1.288
  529TIP3   OH2 1529   5.886   2.468   0.896
  529TIP3    H1 1530   5.790   2.472   0.915
  529TIP3    H2 1531   5.923   2.522   0.968
  530TIP3   OH2 1532   6.515   2.411   0.884
  530TIP3    H1 1533   6.419   2.397   0.872
  530TIP3    H2 1534   6.546   2.377   0.796
  531TIP3   OH2 1535   5.984   2.022   0.564
  531TIP3    H1 1536   5.891   2.002   0.571
  531TIP3    H2 1537   6.022   1.936   0.534
  532TIP3   OH2 1538   5.125   2.225   0.311
  532TIP3    H1 1539   5.127   2.302   0.252
  532TIP3    H2 1540   5.030   2.206   0.314
  533TIP3   OH2 1541   4.710   1.514   0.034
  533TIP3    H1 1542   4.738   1.606   0.036
  533TIP3    H2 1543   4.621   1.517   0.074
  534TIP3   OH2 1544   5.263   1.986   0.261
  534TIP3    H1 1545   5.226   2.076   0.273
  534TIP3    H2 1546   5.220   1.937   0.333
  535TIP3   OH2 1547   5.392   2.565   0.774
  535TIP3    H1 1548   5.435   2.638   0.724
  535TIP3    H2 1549   5.469   2.529   0.822
  536TIP3   OH2 1550   5.038   2.462   0.155
  536TIP3    H1 1551   4.953   2.470   0.203
  536TIP3    H2 1552   5.071   2.555   0.162
  537TIP3   OH2 1553   5.775   2.194   0.736
  537TIP3    H1 1554   5.768   2.198   0.834
  537TIP3    H2 1555   5.863   2.156   0.726
  538TIP3   OH2 1556   6.021   2.729   0.778
  538TIP3    H1 1557   5.938   2.679   0.767
  538TIP3    H2 1558   6.011   2.798   0.710
  539TIP3   OH2 1559   5.115   1.336   1.306
  539TIP3    H1 1560   5.019   1.344   1.319
  539TIP3    H2 1561   5.142   1.283   1.383
  540TIP3   OH2 1562   4.829   2.427   0.930
  540TIP3    H1 1563   4.886   2.357   0.966
  540TIP3    H2 1564   4.854   2.502   0.985
  541TIP3   OH2 1565   5.170   2.009  -0.334
  541TIP3    H1 1566   5.105   1.993  -0.404
  541TIP3    H2 1567   5.114   2.024  -0.257
  542TIP3   OH2 1568   5.054   2.081  -0.082
  542TIP3    H1 1569   5.139   2.041  -0.054
  542TIP3    H2 1570   5.074   2.177  -0.081
  543TIP3   OH2 1571   4.800   1.779   0.097
  543TIP3    H1 1572   4.740   1.835   0.146
  543TIP3    H2 1573   4.824   1.837   0.022
  544TIP3   OH2 1574   5.945   1.408   0.986
  544TIP3    H1 1575   6.022   1.455   1.024
  544TIP3    H2 1576   5.939   1.329   1.043
  545TIP3   OH2 1577   5.328   2.290  -0.176
  545TIP3    H1 1578   5.241   2.313  -0.139
  545TIP3    H2 1579   5.330   2.338  -0.259
  546TIP3   OH2 1580   5.794   1.675   1.052
  546TIP3    H1 1581   5.815   1.722   1.136
  546TIP3    H2 1582   5.827   1.586   1.071
  547TIP3   OH2 1583   5.077   2.355  -0.095
  547TIP3    H1 1584   5.052   2.427  -0.157
  547TIP3    H2 1585   5.058   2.396  -0.007
  548TIP3   OH2 1586   6.430   1.560   1.062
  548TIP3    H1 1587   6.334   1.548   1.046
  548TIP3    H2 1588   6.467   1.553   0.972
  549TIP3   OH2 1589   6.073   1.777   0.486
  549TIP3    H1 1590   6.008   1.706   0.491
  549TIP3    H2 1591   6.146   1.736   0.538
  550TIP3   OH2 1592   4.793   2.000  -0.085
  550TIP3    H1 1593   4.877   2.048  -0.072
  550TIP3    H2 1594   4.827   1.935  -0.151
  551TIP3   OH2 1595   6.046   2.713   0.372
  551TIP3    H1 1596   6.004   2.763   0.299
  551TIP3    H2 1597   6.140   2.734   0.354
  552TIP3   OH2 1598   5.117   0.969   0.905
  552TIP3    H1 1599   5.094   0.918   0.826
  552TIP3    H2 1600   5.110   0.899   0.974
  553TIP3   OH2 1601   4.651   2.178   0.283
  553TIP3    H1 1602   4.604   2.231   0.349
  553TIP3    H2 1603   4.629   2.227   0.200
  554TIP3   OH2 1604   4.821   2.741   1.355
  554TIP3    H1 1605   4.906   2.743   1.404
  554TIP3    H2 1606   4.798   2.647   1.356
  555TIP3   OH2 1607   5.296   2.697   1.404
  555TIP3    H1 1608   5.391   2.682   1.412
  555TIP3    H2 1609   5.275   2.637   1.330
  556TIP3   OH2 1610   5.961   2.590   1.132
  556TIP3    H1 1611   5.934   2.517   1.192
  556TIP3    H2 1612   5.982   2.660   1.195
  557TIP3   OH2 1613   4.921   1.816  -0.224
  557TIP3    H1 1614   4.974   1.737  -0.204
  557TIP3    H2 1615   4.943   1.826  -0.320
  558TIP3   OH2 1616   5.580   2.246   1.321
  558TIP3    H1 1617   5.517   2.250   1.246
  558TIP3    H2 1618   5.598   2.150   1.328
  559TIP3   OH2 1619   6.048   2.239   0.936
  559TIP3    H1 1620   6.122   2.284   0.891
  559TIP3    H2 1621   5.977   2.304   0.924
  560TIP3   OH2 1622   5.109   1.902   1.518
  560TIP3    H1 1623   5.159   1.851   1.451
  560TIP3    H2 1624   5.057   1.831   1.563
  561TIP3   OH2 1625   5.150   1.687  -0.010
  561TIP3    H1 1626   5.106   1.673   0.076
  561TIP3    H2 1627   5.132   1.605  -0.058
  562TIP3   OH2 1628   5.929   2.168   1.333
  562TIP3    H1 1629   6.006   2.130   1.290
  562TIP3    H2 1630   5.914   2.105   1.406
  563TIP3   OH2 1631   5.544   1.551   1.320
  563TIP3    H1 1632   5.531   1.473   1.264
  563TIP3    H2 1633   5.473   1.612   1.293
  564TIP3   OH2 1634   5.525   1.336   1.140
  564TIP3    H1 1635   5.554   1.366   1.054
  564TIP3    H2 1636   5.431   1.312   1.124
  565TIP3   OH2 1637   6.136   1.836   1.384
  565TIP3    H1 1638   6.178   1.753   1.412
  565TIP3    H2 1639   6.212   1.885   1.349
  566TIP3   OH2 1640   6.179   2.096   1.125
  566TIP3    H1 1641   6.122   2.149   1.065
  566TIP3    H2 1642   6.267   2.113   1.084
  567TIP3   OH2 1643   5.412   1.659   1.582
  567TIP3    H1 1644   5.346   1.586   1.582
  567TIP3    H2 1645   5.410   1.686   1.488
  568TIP3   OH2 1646   5.664   1.101   1.202
  568TIP3    H1 1647   5.606   1.179   1.189
  568TIP3    H2 1648   5.601   1.026   1.191
  569TIP3   OH2 1649   5.793   1.605   1.420
  569TIP3    H1 1650   5.779   1.586   1.515
  569TIP3    H2 1651   5.703   1.582   1.387
  570TIP3   OH2 1652   6.027   1.550   1.269
  570TIP3    H1 1653   5.955   1.554   1.335
  570TIP3    H2 1654   6.103   1.522   1.325
  571TIP3   OH2 1655   6.253   1.493   1.418
  571TIP3    H1 1656   6.265   1.398   1.438
  571TIP3    H2 1657   6.251   1.534   1.507
  572TIP3   OH2 1658   5.242   1.437   1.616
  572TIP3    H1 1659   5.251   1.346   1.582
  572TIP3    H2 1660   5.283   1.427   1.705
  573TIP3   OH2 1661   5.743   1.113   1.466
  573TIP3    H1 1662   5.817   1.048   1.465
  573TIP3    H2 1663   5.713   1.105   1.373
  574TIP3   OH2 1664   5.828   1.324   1.619
  574TIP3    H1 1665   5.801   1.254   1.556
  574TIP3    H2 1666   5.750   1.384   1.615
  575TIP3   OH2 1667   5.057   2.541  -0.295
  575TIP3    H1 1668   5.141   2.534  -0.345
  575TIP3    H2 1669   5.010   2.607  -0.348
  576TIP3   OH2 1670   4.534   1.925  -0.045
  576TIP3    H1 1671   4.620   1.969  -0.066
  576TIP3    H2 1672   4.533   1.857  -0.114
  577TIP3   OH2 1673   4.443   2.546   0.352
  577TIP3    H1 1674   4.376   2.487   0.311
  577TIP3    H2 1675   4.484   2.486   0.417
  578TIP3   OH2 1676   4.580   2.388   0.534
  578TIP3    H1 1677   4.567   2.324   0.607
  578TIP3    H2 1678   4.628   2.457   0.582
  579TIP3   OH2 1679   6.298   2.805   0.339
  579TIP3    H1 1680   6.331   2.845   0.421
  579TIP3    H2 1681   6.376   2.811   0.280
  580TIP3   OH2 1682   6.331   2.823   0.621
  580TIP3    H1 1683   6.287   2.735   0.618
  580TIP3    H2 1684   6.422   2.797   0.639
  581TIP3   OH2 1685   6.374   2.273   0.448
  581TIP3    H1 1686   6.428   2.207   0.401
  581TIP3    H2 1687   6.375   2.348   0.386
  582TIP3   OH2 1688   6.207   2.572   0.645
  582TIP3    H1 1689   6.135   2.617   0.695
  582TIP3    H2 1690   6.157   2.528   0.573
  583TIP3   OH2 1691   4.769   1.808   0.906
  583TIP3    H1 1692   4.761   1.773   0.815
  583TIP3    H2 1693   4.866   1.807   0.918
  584TIP3   OH2 1694   6.427   2.162   1.019
  584TIP3    H1 1695   6.494   2.090   1.015
  584TIP3    H2 1696   6.449   2.214   0.941
  585TIP3   OH2 1697   6.605   1.964   1.032
  585TIP3    H1 1698   6.533   1.910   1.071
  585TIP3    H2 1699   6.679   1.899   1.044
  586TIP3   OH2 1700   6.272   1.638   0.622
  586TIP3    H1 1701   6.362   1.619   0.588
  586TIP3    H2 1702   6.296   1.685   0.704
  587TIP3   OH2 1703   6.365   1.801   0.820
  587TIP3    H1 1704   6.281   1.839   0.855
  587TIP3    H2 1705   6.400   1.875   0.766
  588TIP3   OH2 1706   4.978   1.489   1.577
  588TIP3    H1 1707   5.076   1.481   1.582
  588TIP3    H2 1708   4.953   1.403   1.617
  589TIP3   OH2 1709   6.819   1.355   1.334
  589TIP3    H1 1710   6.880   1.298   1.283
  589TIP3    H2 1711   6.784   1.415   1.265
  590TIP3   OH2 1712   4.944   1.184   0.913
  590TIP3    H1 1713   5.006   1.109   0.919
  590TIP3    H2 1714   5.005   1.260   0.918
  591TIP3   OH2 1715   4.741   1.453   0.985
  591TIP3    H1 1716   4.787   1.456   0.899
  591TIP3    H2 1717   4.770   1.535   1.027
  592TIP3   OH2 1718   6.686   1.511   1.152
  592TIP3    H1 1719   6.591   1.536   1.153
  592TIP3    H2 1720   6.680   1.425   1.105
  593TIP3   OH2 1721   4.700   0.999   0.510
  593TIP3    H1 1722   4.609   0.981   0.543
  593TIP3    H2 1723   4.683   1.066   0.442
  594TIP3   OH2 1724   5.874   2.642  -0.012
  594TIP3    H1 1725   5.909   2.600  -0.092
  594TIP3    H2 1726   5.929   2.722  -0.011
  595TIP3   OH2 1727   4.943   1.035   1.296
  595TIP3    H1 1728   4.895   1.038   1.381
  595TIP3    H2 1729   4.878   1.079   1.237
  596TIP3   OH2 1730   4.992   2.444   1.369
  596TIP3    H1 1731   4.895   2.435   1.365
  596TIP3    H2 1732   5.007   2.469   1.461
  597TIP3   OH2 1733   5.167   2.502   0.925
  597TIP3    H1 1734   5.119   2.578   0.886
  597TIP3    H2 1735   5.253   2.517   0.881
  598TIP3   OH2 1736   5.606   2.747   1.061
  598TIP3    H1 1737   5.650   2.745   1.149
  598TIP3    H2 1738   5.672   2.799   1.009
  599TIP3   OH2 1739   5.789   2.899   0.924
  599TIP3    H1 1740   5.859   2.852   0.877
  599TIP3    H2 1741   5.841   2.956   0.984
  600TIP3   OH2 1742   4.840   2.758   0.951
  600TIP3    H1 1743   4.750   2.789   0.927
  600TIP3    H2 1744   4.854   2.808   1.033
  601TIP3   OH2 1745   5.076   2.737   0.808
  601TIP3    H1 1746   4.989   2.750   0.851
  601TIP3    H2 1747   5.058   2.770   0.718
  602TIP3   OH2 1748   5.502   2.765   0.605
  602TIP3    H1 1749   5.432   2.785   0.540
  602TIP3    H2 1750   5.515   2.852   0.648
  603TIP3   OH2 1751   5.771   2.703   0.657
  603TIP3    H1 1752   5.678   2.723   0.636
  603TIP3    H2 1753   5.818   2.775   0.613
  604TIP3   OH2 1754   5.975   2.895   0.568
  604TIP3    H1 1755   5.963   2.981   0.521
  604TIP3    H2 1756   6.004   2.837   0.495
  605TIP3   OH2 1757   4.752   2.553   0.689
  605TIP3    H1 1758   4.776   2.525   0.780
  605TIP3    H2 1759   4.825   2.509   0.640
  606TIP3   OH2 1760   4.948   2.425   0.551
  606TIP3    H1 1761   4.963   2.341   0.601
  606TIP3    H2 1762   5.039   2.461   0.547
  607TIP3   OH2 1763   5.214   2.519   0.556
  607TIP3    H1 1764   5.245   2.427   0.543
  607TIP3    H2 1765   5.262   2.540   0.639
  608TIP3   OH2 1766   4.537   2.330   0.091
  608TIP3    H1 1767   4.457   2.295   0.046
  608TIP3    H2 1768   4.529   2.423   0.063
  609TIP3   OH2 1769   5.244   1.159   1.543
  609TIP3    H1 1770   5.209   1.090   1.602
  609TIP3    H2 1771   5.338   1.161   1.572
  610TIP3   OH2 1772   5.493   1.161   1.664
  610TIP3    H1 1773   5.579   1.138   1.624
  610TIP3    H2 1774   5.484   1.091   1.732
  611TIP3   OH2 1775   4.627   2.346  -0.237
  611TIP3    H1 1776   4.600   2.410  -0.170
  611TIP3    H2 1777   4.690   2.290  -0.192
  612TIP3   OH2 1778   6.304   1.224   1.459
  612TIP3    H1 1779   6.326   1.195   1.551
  612TIP3    H2 1780   6.394   1.226   1.418
  613TIP3   OH2 1781   6.840   2.061   0.470
  613TIP3    H1 1782   6.878   2.040   0.557
  613TIP3    H2 1783   6.888   2.144   0.451
  614TIP3   OH2 1784   6.788   2.460   0.204
  614TIP3    H1 1785   6.767   2.386   0.145
  614TIP3    H2 1786   6.881   2.445   0.226
  615TIP3   OH2 1787   7.067   2.301   0.303
  615TIP3    H1 1788   7.043   2.374   0.364
  615TIP3    H2 1789   7.160   2.288   0.330
  616TIP3   OH2 1790   6.992   2.505   0.476
  616TIP3    H1 1791   6.974   2.596   0.447
  616TIP3    H2 1792   6.917   2.492   0.538
  617TIP3   OH2 1793   7.212   2.608   0.621
  617TIP3    H1 1794   7.149   2.673   0.660
  617TIP3    H2 1795   7.150   2.554   0.568
  618TIP3   OH2 1796   6.953   2.185   0.707
  618TIP3    H1 1797   6.963   2.268   0.758
  618TIP3    H2 1798   6.868   2.152   0.740
  619TIP3   OH2 1799   7.003   2.775   0.696
  619TIP3    H1 1800   6.968   2.785   0.605
  619TIP3    H2 1801   6.922   2.756   0.747
  620TIP3   OH2 1802   6.580   2.304   0.647
  620TIP3    H1 1803   6.512   2.284   0.579
  620TIP3    H2 1804   6.614   2.216   0.671
  621TIP3   OH2 1805   6.442   2.494   0.284
  621TIP3    H1 1806   6.536   2.502   0.264
  621TIP3    H2 1807   6.426   2.577   0.332
  622TIP3   OH2 1808   7.401   2.727   0.461
  622TIP3    H1 1809   7.403   2.820   0.493
  622TIP3    H2 1810   7.333   2.688   0.520
  623TIP3   OH2 1811   6.777   2.495   0.642
  623TIP3    H1 1812   6.828   2.474   0.723
  623TIP3    H2 1813   6.707   2.427   0.644
  624TIP3   OH2 1814   6.935   1.888   0.716
  624TIP3    H1 1815   6.935   1.904   0.811
  624TIP3    H2 1816   6.922   1.793   0.710
  625TIP3   OH2 1817   6.944   2.419   0.859
  625TIP3    H1 1818   7.029   2.444   0.899
  625TIP3    H2 1819   6.887   2.415   0.938
  626TIP3   OH2 1820   7.503   2.452   0.563
  626TIP3    H1 1821   7.530   2.478   0.652
  626TIP3    H2 1822   7.492   2.537   0.518
  627TIP3   OH2 1823   6.697   2.098   0.790
  627TIP3    H1 1824   6.718   2.079   0.883
  627TIP3    H2 1825   6.634   2.026   0.770
  628TIP3   OH2 1826   7.418   2.207   0.800
  628TIP3    H1 1827   7.339   2.158   0.768
  628TIP3    H2 1828   7.479   2.185   0.727
  629TIP3   OH2 1829   7.183   2.829   0.307
  629TIP3    H1 1830   7.199   2.858   0.216
  629TIP3    H2 1831   7.269   2.794   0.334
  630TIP3   OH2 1832   6.625   2.686   0.439
  630TIP3    H1 1833   6.680   2.614   0.472
  630TIP3    H2 1834   6.669   2.763   0.478
  631TIP3   OH2 1835   6.622   2.999   0.848
  631TIP3    H1 1836   6.709   3.004   0.895
  631TIP3    H2 1837   6.613   2.903   0.838
  632TIP3   OH2 1838   7.090   2.954   0.891
  632TIP3    H1 1839   7.186   2.944   0.899
  632TIP3    H2 1840   7.071   2.895   0.816
  633TIP3   OH2 1841   6.735   2.393   1.053
  633TIP3    H1 1842   6.765   2.300   1.049
  633TIP3    H2 1843   6.661   2.394   0.989
  634TIP3   OH2 1844   7.365   2.487   0.818
  634TIP3    H1 1845   7.321   2.506   0.733
  634TIP3    H2 1846   7.383   2.390   0.809
  635TIP3   OH2 1847   6.872   2.138   1.024
  635TIP3    H1 1848   6.952   2.088   1.003
  635TIP3    H2 1849   6.894   2.168   1.114
  636TIP3   OH2 1850   7.212   2.068   0.687
  636TIP3    H1 1851   7.119   2.098   0.692
  636TIP3    H2 1852   7.205   1.993   0.627
  637TIP3   OH2 1853   7.161   1.947   1.050
  637TIP3    H1 1854   7.110   1.874   1.091
  637TIP3    H2 1855   7.193   1.905   0.968
  638TIP3   OH2 1856   7.032   1.717   1.121
  638TIP3    H1 1857   7.064   1.659   1.048
  638TIP3    H2 1858   7.075   1.677   1.200
  639TIP3   OH2 1859   6.357   2.648   0.033
  639TIP3    H1 1860   6.352   2.574   0.093
  639TIP3    H2 1861   6.424   2.704   0.075
  640TIP3   OH2 1862   6.567   2.066   0.412
  640TIP3    H1 1863   6.572   2.001   0.340
  640TIP3    H2 1864   6.662   2.077   0.433
  641TIP3   OH2 1865   6.771   1.755   1.061
  641TIP3    H1 1866   6.867   1.746   1.082
  641TIP3    H2 1867   6.739   1.671   1.100
  642TIP3   OH2 1868   6.785   2.734   0.862
  642TIP3    H1 1869   6.693   2.702   0.849
  642TIP3    H2 1870   6.801   2.716   0.955
  643TIP3   OH2 1871   6.946   2.770   0.417
  643TIP3    H1 1872   6.903   2.840   0.365
  643TIP3    H2 1873   7.038   2.782   0.383
  644TIP3   OH2 1874   7.404   3.004   0.543
  644TIP3    H1 1875   7.450   3.008   0.629
  644TIP3    H2 1876   7.464   3.052   0.484
  645TIP3   OH2 1877   7.572   3.137   0.335
  645TIP3    H1 1878   7.607   3.127   0.245
  645TIP3    H2 1879   7.589   3.231   0.351
  646TIP3   OH2 1880   6.633   3.008   0.457
  646TIP3    H1 1881   6.546   3.040   0.424
  646TIP3    H2 1882   6.649   3.072   0.527
  647TIP3   OH2 1883   6.847   2.997   0.281
  647TIP3    H1 1884   6.774   2.996   0.347
  647TIP3    H2 1885   6.813   3.068   0.224
  648TIP3   OH2 1886   6.533   2.793   0.198
  648TIP3    H1 1887   6.575   2.769   0.284
  648TIP3    H2 1888   6.610   2.776   0.139
  649TIP3   OH2 1889   6.750   2.693   0.066
  649TIP3    H1 1890   6.765   2.611   0.117
  649TIP3    H2 1891   6.835   2.705   0.020
  650TIP3   OH2 1892   0.880   2.671   2.055
  650TIP3    H1 1893   0.809   2.713   2.003
  650TIP3    H2 1894   0.907   2.743   2.115
  651TIP3   OH2 1895   0.349   3.487   1.657
  651TIP3    H1 1896   0.294   3.410   1.680
  651TIP3    H2 1897   0.312   3.514   1.572
  652TIP3   OH2 1898   0.511   3.398   1.984
  652TIP3    H1 1899   0.511   3.321   1.924
  652TIP3    H2 1900   0.511   3.474   1.922
  653TIP3   OH2 1901   0.724   3.023   1.824
  653TIP3    H1 1902   0.649   3.085   1.831
  653TIP3    H2 1903   0.759   3.046   1.735
  654TIP3   OH2 1904   0.438   2.905   2.148
  654TIP3    H1 1905   0.404   2.982   2.197
  654TIP3    H2 1906   0.362   2.884   2.089
  655TIP3   OH2 1907   0.754   3.741   2.026
  655TIP3    H1 1908   0.754   3.645   2.043
  655TIP3    H2 1909   0.670   3.767   2.069
  656TIP3   OH2 1910  -0.130   3.534   2.179
  656TIP3    H1 1911  -0.135   3.630   2.198
  656TIP3    H2 1912  -0.222   3.509   2.193
  657TIP3   OH2 1913   0.650   2.867   2.310
  657TIP3    H1 1914   0.571   2.881   2.254
  657TIP3    H2 1915   0.657   2.769   2.306
  658TIP3   OH2 1916   0.110   2.853   2.503
  658TIP3    H1 1917   0.121   2.764   2.538
  658TIP3    H2 1918   0.203   2.883   2.501
  659TIP3   OH2 1919   0.446   4.091   2.124
  659TIP3    H1 1920   0.446   4.118   2.030
  659TIP3    H2 1921   0.526   4.137   2.157
  660TIP3   OH2 1922   0.497   3.170   1.821
  660TIP3    H1 1923   0.501   3.194   1.726
  660TIP3    H2 1924   0.452   3.084   1.817
  661TIP3   OH2 1925   0.013   3.299   2.191
  661TIP3    H1 1926   0.040   3.287   2.283
  661TIP3    H2 1927  -0.041   3.380   2.197
  662TIP3   OH2 1928   0.122   3.561   2.061
  662TIP3    H1 1929   0.035   3.552   2.103
  662TIP3    H2 1930   0.174   3.589   2.140
  663TIP3   OH2 1931   0.762   3.457   2.079
  663TIP3    H1 1932   0.665   3.447   2.069
  663TIP3    H2 1933   0.793   3.424   1.991
  664TIP3   OH2 1934   0.272   3.779   1.964
  664TIP3    H1 1935   0.201   3.712   1.968
  664TIP3    H2 1936   0.247   3.835   1.887
  665TIP3   OH2 1937   0.657   2.600   2.232
  665TIP3    H1 1938   0.572   2.555   2.220
  665TIP3    H2 1939   0.694   2.602   2.143
  666TIP3   OH2 1940  -0.456   3.739   2.587
  666TIP3    H1 1941  -0.366   3.746   2.621
  666TIP3    H2 1942  -0.440   3.718   2.495
  667TIP3   OH2 1943   0.201   3.644   2.307
  667TIP3    H1 1944   0.187   3.580   2.380
  667TIP3    H2 1945   0.273   3.700   2.343
  668TIP3   OH2 1946  -0.182   3.288   2.521
  668TIP3    H1 1947  -0.213   3.266   2.431
  668TIP3    H2 1948  -0.118   3.218   2.538
  669TIP3   OH2 1949   0.294   3.264   2.093
  669TIP3    H1 1950   0.362   3.330   2.068
  669TIP3    H2 1951   0.215   3.317   2.111
  670TIP3   OH2 1952   0.162   3.205   2.506
  670TIP3    H1 1953   0.246   3.183   2.463
  670TIP3    H2 1954   0.166   3.146   2.584
  671TIP3   OH2 1955   0.386   2.878   2.565
  671TIP3    H1 1956   0.435   2.796   2.586
  671TIP3    H2 1957   0.456   2.932   2.526
  672TIP3   OH2 1958   0.424   3.152   2.303
  672TIP3    H1 1959   0.370   3.190   2.231
  672TIP3    H2 1960   0.514   3.165   2.265
  673TIP3   OH2 1961   0.532   2.551   2.591
  673TIP3    H1 1962   0.538   2.454   2.606
  673TIP3    H2 1963   0.517   2.585   2.681
  674TIP3   OH2 1964   0.527   3.840   1.514
  674TIP3    H1 1965   0.556   3.867   1.603
  674TIP3    H2 1966   0.585   3.893   1.458
  675TIP3   OH2 1967   0.586   3.876   1.790
  675TIP3    H1 1968   0.547   3.786   1.802
  675TIP3    H2 1969   0.666   3.864   1.842
  676TIP3   OH2 1970   0.622   3.541   2.367
  676TIP3    H1 1971   0.553   3.551   2.435
  676TIP3    H2 1972   0.668   3.628   2.371
  677TIP3   OH2 1973   0.700   3.347   1.622
  677TIP3    H1 1974   0.738   3.265   1.585
  677TIP3    H2 1975   0.702   3.410   1.548
  678TIP3   OH2 1976   0.477   3.633   1.841
  678TIP3    H1 1977   0.401   3.669   1.891
  678TIP3    H2 1978   0.434   3.584   1.768
  679TIP3   OH2 1979   0.673   3.203   2.195
  679TIP3    H1 1980   0.741   3.134   2.184
  679TIP3    H2 1981   0.704   3.272   2.135
  680TIP3   OH2 1982   0.855   3.005   2.204
  680TIP3    H1 1983   0.783   2.954   2.246
  680TIP3    H2 1984   0.931   2.948   2.229
  681TIP3   OH2 1985   0.649   2.800   1.964
  681TIP3    H1 1986   0.571   2.824   2.017
  681TIP3    H2 1987   0.666   2.883   1.915
  682TIP3   OH2 1988   1.064   2.410   2.514
  682TIP3    H1 1989   1.127   2.348   2.472
  682TIP3    H2 1990   1.029   2.459   2.437
  683TIP3   OH2 1991   0.927   2.543   2.321
  683TIP3    H1 1992   0.840   2.581   2.346
  683TIP3    H2 1993   0.911   2.516   2.230
  684TIP3   OH2 1994  -0.140   3.800   2.237
  684TIP3    H1 1995  -0.100   3.797   2.327
  684TIP3    H2 1996  -0.071   3.849   2.188
  685TIP3   OH2 1997   0.050   3.934   2.095
  685TIP3    H1 1998   0.131   3.887   2.070
  685TIP3    H2 1999   0.089   4.001   2.156
  686TIP3   OH2 2000   0.004   3.764   1.788
  686TIP3    H1 2001  -0.074   3.782   1.842
  686TIP3    H2 2002   0.047   3.851   1.786
  687TIP3   OH2 2003   0.231   3.945   1.743
  687TIP3    H1 2004   0.210   4.035   1.707
  687TIP3    H2 2005   0.280   3.909   1.668
  688TIP3   OH2 2006   0.590   2.287   2.644
  688TIP3    H1 2007   0.601   2.248   2.733
  688TIP3    H2 2008   0.668   2.251   2.597
  689TIP3   OH2 2009   0.506   3.823   2.123
  689TIP3    H1 2010   0.425   3.795   2.075
  689TIP3    H2 2011   0.489   3.919   2.131
  690TIP3   OH2 2012   1.770   3.202   0.886
  690TIP3    H1 2013   1.747   3.292   0.854
  690TIP3    H2 2014   1.689   3.179   0.932
  691TIP3   OH2 2015   1.777   3.191   1.272
  691TIP3    H1 2016   1.810   3.170   1.361
  691TIP3    H2 2017   1.734   3.108   1.247
  692TIP3   OH2 2018   1.074   3.091   1.640
  692TIP3    H1 2019   1.099   3.017   1.699
  692TIP3    H2 2020   1.161   3.133   1.629
  693TIP3   OH2 2021   2.018   3.497   0.954
  693TIP3    H1 2022   2.001   3.426   1.018
  693TIP3    H2 2023   2.047   3.570   1.011
  694TIP3   OH2 2024   1.042   3.490   1.350
  694TIP3    H1 2025   1.041   3.392   1.361
  694TIP3    H2 2026   1.138   3.505   1.341
  695TIP3   OH2 2027   1.667   3.959   0.972
  695TIP3    H1 2028   1.710   3.889   0.918
  695TIP3    H2 2029   1.660   3.916   1.058
  696TIP3   OH2 2030   1.568   3.424   1.322
  696TIP3    H1 2031   1.601   3.348   1.271
  696TIP3    H2 2032   1.654   3.465   1.346
  697TIP3   OH2 2033   2.588   2.739   1.318
  697TIP3    H1 2034   2.616   2.823   1.360
  697TIP3    H2 2035   2.604   2.759   1.224
  698TIP3   OH2 2036   1.986   2.921   1.350
  698TIP3    H1 2037   2.024   2.833   1.371
  698TIP3    H2 2038   1.952   2.905   1.260
  699TIP3   OH2 2039   2.012   2.676   0.957
  699TIP3    H1 2040   2.094   2.659   1.008
  699TIP3    H2 2041   2.048   2.697   0.869
  700TIP3   OH2 2042   1.405   2.972   1.235
  700TIP3    H1 2043   1.500   2.954   1.252
  700TIP3    H2 2044   1.395   2.933   1.147
  701TIP3   OH2 2045   2.661   2.951   1.484
  701TIP3    H1 2046   2.575   2.994   1.465
  701TIP3    H2 2047   2.668   2.968   1.579
  702TIP3   OH2 2048   1.315   2.562   1.756
  702TIP3    H1 2049   1.244   2.603   1.702
  702TIP3    H2 2050   1.273   2.565   1.843
  703TIP3   OH2 2051   1.652   3.418   0.768
  703TIP3    H1 2052   1.604   3.407   0.685
  703TIP3    H2 2053   1.618   3.504   0.797
  704TIP3   OH2 2054   1.427   3.340   1.542
  704TIP3    H1 2055   1.367   3.409   1.578
  704TIP3    H2 2056   1.471   3.388   1.468
  705TIP3   OH2 2057   2.230   2.667   1.121
  705TIP3    H1 2058   2.201   2.634   1.207
  705TIP3    H2 2059   2.277   2.750   1.145
  706TIP3   OH2 2060   1.154   2.694   1.581
  706TIP3    H1 2061   1.225   2.761   1.580
  706TIP3    H2 2062   1.176   2.638   1.505
  707TIP3   OH2 2063   1.254   3.536   1.640
  707TIP3    H1 2064   1.229   3.624   1.604
  707TIP3    H2 2065   1.176   3.519   1.696
  708TIP3   OH2 2066   2.086   3.741   1.119
  708TIP3    H1 2067   1.996   3.731   1.159
  708TIP3    H2 2068   2.075   3.827   1.073
  709TIP3   OH2 2069   2.378   2.638   1.482
  709TIP3    H1 2070   2.290   2.665   1.451
  709TIP3    H2 2071   2.436   2.672   1.411
  710TIP3   OH2 2072   1.784   3.786   0.791
  710TIP3    H1 2073   1.832   3.702   0.773
  710TIP3    H2 2074   1.848   3.850   0.752
  711TIP3   OH2 2075   1.927   3.572   0.704
  711TIP3    H1 2076   1.927   3.493   0.646
  711TIP3    H2 2077   1.962   3.534   0.787
  712TIP3   OH2 2078   2.312   3.650   1.462
  712TIP3    H1 2079   2.298   3.572   1.403
  712TIP3    H2 2080   2.293   3.724   1.400
  713TIP3   OH2 2081   2.507   3.292   1.309
  713TIP3    H1 2082   2.422   3.341   1.314
  713TIP3    H2 2083   2.536   3.315   1.218
  714TIP3   OH2 2084   1.951   3.130   0.690
  714TIP3    H1 2085   1.893   3.151   0.766
  714TIP3    H2 2086   2.033   3.103   0.735
  715TIP3   OH2 2087   2.185   3.166   1.606
  715TIP3    H1 2088   2.182   3.248   1.659
  715TIP3    H2 2089   2.099   3.169   1.561
  716TIP3   OH2 2090   1.307   3.527   1.257
  716TIP3    H1 2091   1.299   3.506   1.163
  716TIP3    H2 2092   1.396   3.492   1.278
  717TIP3   OH2 2093   1.306   3.103   1.461
  717TIP3    H1 2094   1.343   3.067   1.378
  717TIP3    H2 2095   1.360   3.183   1.476
  718TIP3   OH2 2096   1.844   3.734   1.240
  718TIP3    H1 2097   1.832   3.813   1.296
  718TIP3    H2 2098   1.829   3.660   1.302
  719TIP3   OH2 2099   1.459   3.653   1.786
  719TIP3    H1 2100   1.397   3.713   1.833
  719TIP3    H2 2101   1.395   3.599   1.736
  720TIP3   OH2 2102   1.216   3.212   1.892
  720TIP3    H1 2103   1.216   3.299   1.935
  720TIP3    H2 2104   1.123   3.185   1.903
  721TIP3   OH2 2105   1.533   3.670   0.785
  721TIP3    H1 2106   1.617   3.717   0.799
  721TIP3    H2 2107   1.474   3.741   0.759
  722TIP3   OH2 2108   1.251   3.818   1.874
  722TIP3    H1 2109   1.215   3.821   1.783
  722TIP3    H2 2110   1.171   3.798   1.927
  723TIP3   OH2 2111   2.095   3.600   0.108
  723TIP3    H1 2112   2.115   3.694   0.093
  723TIP3    H2 2113   2.185   3.561   0.106
  724TIP3   OH2 2114   0.846   3.358   1.846
  724TIP3    H1 2115   0.790   3.347   1.767
  724TIP3    H2 2116   0.882   3.267   1.862
  725TIP3   OH2 2117   0.699   3.567   1.441
  725TIP3    H1 2118   0.796   3.564   1.435
  725TIP3    H2 2119   0.689   3.642   1.502
  726TIP3   OH2 2120   2.549   3.998   1.510
  726TIP3    H1 2121   2.548   3.902   1.525
  726TIP3    H2 2122   2.466   4.023   1.556
  727TIP3   OH2 2123   1.654   3.782   1.643
  727TIP3    H1 2124   1.651   3.874   1.676
  727TIP3    H2 2125   1.583   3.741   1.697
  728TIP3   OH2 2126   1.419   3.903   0.606
  728TIP3    H1 2127   1.381   3.887   0.516
  728TIP3    H2 2128   1.388   3.993   0.626
  729TIP3   OH2 2129   0.847   3.768   0.975
  729TIP3    H1 2130   0.893   3.743   1.058
  729TIP3    H2 2131   0.808   3.682   0.946
  730TIP3   OH2 2132   1.615   3.806   0.241
  730TIP3    H1 2133   1.672   3.748   0.189
  730TIP3    H2 2134   1.661   3.813   0.327
  731TIP3   OH2 2135   1.673   3.863   0.513
  731TIP3    H1 2136   1.582   3.869   0.551
  731TIP3    H2 2137   1.719   3.818   0.585
  732TIP3   OH2 2138   2.440   3.128   1.782
  732TIP3    H1 2139   2.354   3.135   1.738
  732TIP3    H2 2140   2.456   3.032   1.778
  733TIP3   OH2 2141   1.039   3.544   1.807
  733TIP3    H1 2142   1.093   3.530   1.888
  733TIP3    H2 2143   0.967   3.479   1.822
  734TIP3   OH2 2144   1.970   2.465   1.786
  734TIP3    H1 2145   2.046   2.443   1.844
  734TIP3    H2 2146   1.893   2.447   1.844
  735TIP3   OH2 2147   2.208   2.904   1.708
  735TIP3    H1 2148   2.156   2.898   1.792
  735TIP3    H2 2149   2.181   2.990   1.672
  736TIP3   OH2 2150   1.368   2.881   1.610
  736TIP3    H1 2151   1.321   2.899   1.694
  736TIP3    H2 2152   1.347   2.962   1.559
  737TIP3   OH2 2153   1.769   2.881   0.846
  737TIP3    H1 2154   1.678   2.900   0.821
  737TIP3    H2 2155   1.815   2.885   0.761
  738TIP3   OH2 2156   1.915   3.122   1.939
  738TIP3    H1 2157   1.893   3.049   2.001
  738TIP3    H2 2158   2.010   3.135   1.961
  739TIP3   OH2 2159   1.895   2.879   1.094
  739TIP3    H1 2160   1.845   2.908   1.015
  739TIP3    H2 2161   1.934   2.797   1.056
  740TIP3   OH2 2162   1.187   2.906   1.820
  740TIP3    H1 2163   1.221   2.958   1.895
  740TIP3    H2 2164   1.171   2.819   1.861
  741TIP3   OH2 2165   1.907   3.118   1.514
  741TIP3    H1 2166   1.941   3.047   1.455
  741TIP3    H2 2167   1.878   3.064   1.590
  742TIP3   OH2 2168   2.069   2.659   1.390
  742TIP3    H1 2169   2.039   2.672   1.483
  742TIP3    H2 2170   2.008   2.588   1.362
  743TIP3   OH2 2171   2.242   4.346   1.610
  743TIP3    H1 2172   2.240   4.371   1.516
  743TIP3    H2 2173   2.322   4.394   1.641
  744TIP3   OH2 2174   1.197   3.462   2.028
  744TIP3    H1 2175   1.278   3.487   2.077
  744TIP3    H2 2176   1.133   3.456   2.102
  745TIP3   OH2 2177   1.668   2.912   1.286
  745TIP3    H1 2178   1.742   2.875   1.235
  745TIP3    H2 2179   1.673   2.864   1.370
  746TIP3   OH2 2180   1.637   2.811   1.573
  746TIP3    H1 2181   1.548   2.848   1.589
  746TIP3    H2 2182   1.695   2.870   1.625
  747TIP3   OH2 2183   2.272   3.433   1.296
  747TIP3    H1 2184   2.294   3.484   1.215
  747TIP3    H2 2185   2.187   3.390   1.271
  748TIP3   OH2 2186   1.773   3.517   1.666
  748TIP3    H1 2187   1.803   3.495   1.755
  748TIP3    H2 2188   1.733   3.605   1.676
  749TIP3   OH2 2189   1.052   3.211   1.339
  749TIP3    H1 2190   1.107   3.180   1.266
  749TIP3    H2 2191   1.095   3.166   1.414
  750TIP3   OH2 2192   0.953   3.132   1.961
  750TIP3    H1 2193   0.971   3.121   2.056
  750TIP3    H2 2194   0.887   3.062   1.945
  751TIP3   OH2 2195   1.675   3.257   1.976
  751TIP3    H1 2196   1.614   3.194   1.934
  751TIP3    H2 2197   1.762   3.220   1.949
  752TIP3   OH2 2198   1.931   3.779   1.561
  752TIP3    H1 2199   1.835   3.775   1.576
  752TIP3    H2 2200   1.959   3.829   1.641
  753TIP3   OH2 2201   2.342   2.845   0.451
  753TIP3    H1 2202   2.266   2.795   0.418
  753TIP3    H2 2203   2.326   2.934   0.411
  754TIP3   OH2 2204   2.562   3.709   1.550
  754TIP3    H1 2205   2.464   3.702   1.543
  754TIP3    H2 2206   2.587   3.677   1.460
  755TIP3   OH2 2207   2.050   3.664   0.379
  755TIP3    H1 2208   2.011   3.597   0.436
  755TIP3    H2 2209   2.050   3.621   0.292
  756TIP3   OH2 2210   2.039   3.297   1.213
  756TIP3    H1 2211   1.946   3.271   1.228
  756TIP3    H2 2212   2.072   3.216   1.169
  757TIP3   OH2 2213   1.198   3.540   0.979
  757TIP3    H1 2214   1.174   3.628   0.941
  757TIP3    H2 2215   1.110   3.499   0.991
  758TIP3   OH2 2216   1.366   3.312   0.975
  758TIP3    H1 2217   1.327   3.399   0.962
  758TIP3    H2 2218   1.288   3.254   0.977
  759TIP3   OH2 2219   1.437   3.865   1.437
  759TIP3    H1 2220   1.479   3.938   1.388
  759TIP3    H2 2221   1.513   3.828   1.485
  760TIP3   OH2 2222   1.102   3.770   0.862
  760TIP3    H1 2223   1.007   3.783   0.878
  760TIP3    H2 2224   1.129   3.860   0.835
  761TIP3   OH2 2225   1.823   3.501   1.398
  761TIP3    H1 2226   1.812   3.500   1.496
  761TIP3    H2 2227   1.902   3.446   1.387
  762TIP3   OH2 2228   1.813   3.429   0.292
  762TIP3    H1 2229   1.863   3.398   0.370
  762TIP3    H2 2230   1.744   3.362   0.286
  763TIP3   OH2 2231   2.072   4.033   1.448
  763TIP3    H1 2232   1.993   3.976   1.444
  763TIP3    H2 2233   2.054   4.096   1.375
  764TIP3   OH2 2234   2.140   3.875   0.093
  764TIP3    H1 2235   2.191   3.953   0.062
  764TIP3    H2 2236   2.061   3.921   0.129
  765TIP3   OH2 2237   1.153   2.645   1.972
  765TIP3    H1 2238   1.056   2.641   1.985
  765TIP3    H2 2239   1.185   2.589   2.044
  766TIP3   OH2 2240   1.964   3.355   0.520
  766TIP3    H1 2241   1.944   3.274   0.572
  766TIP3    H2 2242   2.055   3.333   0.492
  767TIP3   OH2 2243   0.878   3.725   1.605
  767TIP3    H1 2244   0.934   3.660   1.649
  767TIP3    H2 2245   0.899   3.805   1.655
  768TIP3   OH2 2246   1.999   2.705   1.651
  768TIP3    H1 2247   2.077   2.742   1.695
  768TIP3    H2 2248   1.984   2.622   1.702
  769TIP3   OH2 2249   1.376   3.564   0.480
  769TIP3    H1 2250   1.352   3.586   0.571
  769TIP3    H2 2251   1.390   3.652   0.441
  770TIP3   OH2 2252   1.836   2.957   1.722
  770TIP3    H1 2253   1.859   3.009   1.802
  770TIP3    H2 2254   1.888   2.876   1.735
  771TIP3   OH2 2255   2.474   2.859   1.699
  771TIP3    H1 2256   2.376   2.860   1.713
  771TIP3    H2 2257   2.477   2.807   1.618
  772TIP3   OH2 2258   2.124   3.054   1.092
  772TIP3    H1 2259   2.047   2.996   1.104
  772TIP3    H2 2260   2.195   3.005   1.140
  773TIP3   OH2 2261   2.093   4.013   1.040
  773TIP3    H1 2262   2.050   4.060   0.965
  773TIP3    H2 2263   2.187   4.030   1.018
  774TIP3   OH2 2264   0.867   4.042   2.021
  774TIP3    H1 2265   0.954   4.046   2.068
  774TIP3    H2 2266   0.852   3.946   2.021
  775TIP3   OH2 2267   1.342   4.000   2.064
  775TIP3    H1 2268   1.437   3.983   2.073
  775TIP3    H2 2269   1.319   3.938   1.992
  776TIP3   OH2 2270   1.984   3.909   1.799
  776TIP3    H1 2271   1.977   3.839   1.868
  776TIP3    H2 2272   2.062   3.960   1.830
  777TIP3   OH2 2273   1.771   3.618   0.103
  777TIP3    H1 2274   1.791   3.557   0.178
  777TIP3    H2 2275   1.857   3.621   0.057
  778TIP3   OH2 2276   0.998   3.446   2.222
  778TIP3    H1 2277   1.014   3.350   2.229
  778TIP3    H2 2278   0.909   3.448   2.180
  779TIP3   OH2 2279   1.602   3.532   1.995
  779TIP3    H1 2280   1.562   3.550   1.907
  779TIP3    H2 2281   1.634   3.439   1.985
  780TIP3   OH2 2282   2.095   3.543   1.601
  780TIP3    H1 2283   2.171   3.586   1.558
  780TIP3    H2 2284   2.025   3.609   1.585
  781TIP3   OH2 2285   1.116   3.181   2.203
  781TIP3    H1 2286   1.193   3.129   2.177
  781TIP3    H2 2287   1.144   3.213   2.292
  782TIP3   OH2 2288   1.451   3.064   1.865
  782TIP3    H1 2289   1.373   3.124   1.865
  782TIP3    H2 2290   1.502   3.098   1.788
  783TIP3   OH2 2291   1.969   3.466   1.997
  783TIP3    H1 2292   2.046   3.433   1.950
  783TIP3    H2 2293   1.961   3.401   2.070
  784TIP3   OH2 2294   1.573   2.853   1.990
  784TIP3    H1 2295   1.572   2.773   1.934
  784TIP3    H2 2296   1.529   2.919   1.932
  785TIP3   OH2 2297   1.574   2.640   1.798
  785TIP3    H1 2298   1.601   2.681   1.713
  785TIP3    H2 2299   1.481   2.613   1.779
  786TIP3   OH2 2300   1.600   3.172   1.670
  786TIP3    H1 2301   1.686   3.183   1.629
  786TIP3    H2 2302   1.545   3.239   1.624
  787TIP3   OH2 2303   2.179   3.139   2.047
  787TIP3    H1 2304   2.223   3.059   2.082
  787TIP3    H2 2305   2.254   3.190   2.014
  788TIP3   OH2 2306   2.225   3.395   1.787
  788TIP3    H1 2307   2.167   3.449   1.729
  788TIP3    H2 2308   2.312   3.415   1.748
  789TIP3   OH2 2309   1.450   2.962   2.221
  789TIP3    H1 2310   1.384   2.892   2.238
  789TIP3    H2 2311   1.486   2.935   2.134
  790TIP3   OH2 2312   1.705   2.400   1.867
  790TIP3    H1 2313   1.660   2.485   1.850
  790TIP3    H2 2314   1.635   2.337   1.841
  791TIP3   OH2 2315   1.833   2.906   2.082
  791TIP3    H1 2316   1.822   2.889   2.177
  791TIP3    H2 2317   1.744   2.880   2.051
  792TIP3   OH2 2318   2.071   2.854   1.935
  792TIP3    H1 2319   1.998   2.855   2.000
  792TIP3    H2 2320   2.147   2.823   1.989
  793TIP3   OH2 2321   2.296   2.789   2.083
  793TIP3    H1 2322   2.317   2.697   2.109
  793TIP3    H2 2323   2.295   2.836   2.169
  794TIP3   OH2 2324   1.291   2.746   2.279
  794TIP3    H1 2325   1.290   2.653   2.247
  794TIP3    H2 2326   1.329   2.732   2.368
  795TIP3   OH2 2327   1.808   2.413   2.128
  795TIP3    H1 2328   1.852   2.327   2.149
  795TIP3    H2 2329   1.776   2.395   2.038
  796TIP3   OH2 2330   1.872   2.627   2.283
  796TIP3    H1 2331   1.855   2.554   2.219
  796TIP3    H2 2332   1.791   2.681   2.275
  797TIP3   OH2 2333   0.613   3.741   1.203
  797TIP3    H1 2334   0.651   3.670   1.256
  797TIP3    H2 2335   0.659   3.817   1.246
  798TIP3   OH2 2336   2.349   4.098   1.000
  798TIP3    H1 2337   2.374   4.129   1.089
  798TIP3    H2 2338   2.413   4.143   0.944
  799TIP3   OH2 2339   2.377   4.119   1.282
  799TIP3    H1 2340   2.330   4.033   1.277
  799TIP3    H2 2341   2.449   4.095   1.341
  800TIP3   OH2 2342   2.422   3.797   1.854
  800TIP3    H1 2343   2.350   3.806   1.920
  800TIP3    H2 2344   2.464   3.885   1.859
  801TIP3   OH2 2345   2.242   3.301   0.467
  801TIP3    H1 2346   2.306   3.370   0.441
  801TIP3    H2 2347   2.284   3.267   0.549
  802TIP3   OH2 2348   2.367   3.176   0.679
  802TIP3    H1 2349   2.298   3.134   0.735
  802TIP3    H2 2350   2.427   3.215   0.745
  803TIP3   OH2 2351   2.425   3.572   1.111
  803TIP3    H1 2352   2.475   3.504   1.063
  803TIP3    H2 2353   2.417   3.643   1.043
  804TIP3   OH2 2354   2.251   3.871   1.303
  804TIP3    H1 2355   2.179   3.912   1.355
  804TIP3    H2 2356   2.201   3.824   1.232
  805TIP3   OH2 2357   2.284   3.077   0.310
  805TIP3    H1 2358   2.218   3.095   0.239
  805TIP3    H2 2359   2.264   3.153   0.370
  806TIP3   OH2 2360   2.180   3.036   0.823
  806TIP3    H1 2361   2.173   2.939   0.811
  806TIP3    H2 2362   2.166   3.046   0.919
  807TIP3   OH2 2363   0.816   3.106   1.571
  807TIP3    H1 2364   0.823   3.054   1.490
  807TIP3    H2 2365   0.911   3.105   1.600
  808TIP3   OH2 2366   2.471   3.460   1.681
  808TIP3    H1 2367   2.541   3.392   1.670
  808TIP3    H2 2368   2.496   3.527   1.616
  809TIP3   OH2 2369   2.655   3.261   1.687
  809TIP3    H1 2370   2.580   3.213   1.728
  809TIP3    H2 2371   2.727   3.197   1.706
  810TIP3   OH2 2372   2.173   2.771   0.740
  810TIP3    H1 2373   2.218   2.690   0.774
  810TIP3    H2 2374   2.226   2.786   0.661
  811TIP3   OH2 2375   2.336   2.919   1.213
  811TIP3    H1 2376   2.422   2.945   1.172
  811TIP3    H2 2377   2.350   2.958   1.302
  812TIP3   OH2 2378   2.408   3.068   1.441
  812TIP3    H1 2379   2.332   3.100   1.493
  812TIP3    H2 2380   2.440   3.151   1.399
  813TIP3   OH2 2381   1.026   2.802   2.261
  813TIP3    H1 2382   1.124   2.792   2.257
  813TIP3    H2 2383   1.002   2.716   2.301
  814TIP3   OH2 2384   2.865   2.661   2.003
  814TIP3    H1 2385   2.921   2.597   1.954
  814TIP3    H2 2386   2.830   2.717   1.932
  815TIP3   OH2 2387   2.301   2.545   0.797
  815TIP3    H1 2388   2.325   2.494   0.877
  815TIP3    H2 2389   2.263   2.478   0.737
  816TIP3   OH2 2390   2.730   2.797   1.806
  816TIP3    H1 2391   2.649   2.840   1.839
  816TIP3    H2 2392   2.691   2.728   1.749
  817TIP3   OH2 2393   1.934   3.968   0.658
  817TIP3    H1 2394   1.982   3.955   0.573
  817TIP3    H2 2395   1.988   4.034   0.702
  818TIP3   OH2 2396   1.031   3.776   2.039
  818TIP3    H1 2397   0.938   3.747   2.025
  818TIP3    H2 2398   1.045   3.752   2.131
  819TIP3   OH2 2399   1.210   3.806   1.586
  819TIP3    H1 2400   1.165   3.884   1.548
  819TIP3    H2 2401   1.297   3.817   1.542
  820TIP3   OH2 2402   1.651   4.049   1.725
  820TIP3    H1 2403   1.693   4.047   1.813
  820TIP3    H2 2404   1.717   4.100   1.674
  821TIP3   OH2 2405   1.831   4.202   1.586
  821TIP3    H1 2406   1.901   4.150   1.544
  821TIP3    H2 2407   1.884   4.258   1.647
  822TIP3   OH2 2408   2.628   2.562   1.681
  822TIP3    H1 2409   2.536   2.552   1.652
  822TIP3    H2 2410   2.659   2.469   1.674
  823TIP3   OH2 2411   0.884   4.054   1.617
  823TIP3    H1 2412   0.794   4.087   1.594
  823TIP3    H2 2413   0.902   4.108   1.695
  824TIP3   OH2 2414   1.121   4.040   1.472
  824TIP3    H1 2415   1.033   4.052   1.514
  824TIP3    H2 2416   1.104   4.072   1.381
  825TIP3   OH2 2417   1.547   4.066   1.269
  825TIP3    H1 2418   1.478   4.085   1.203
  825TIP3    H2 2419   1.559   4.154   1.311
  826TIP3   OH2 2420   1.817   4.006   1.321
  826TIP3    H1 2421   1.722   4.023   1.301
  826TIP3    H2 2422   1.860   4.080   1.276
  827TIP3   OH2 2423   2.024   4.198   1.233
  827TIP3    H1 2424   2.009   4.282   1.185
  827TIP3    H2 2425   2.050   4.137   1.161
  828TIP3   OH2 2426   0.807   3.865   1.362
  828TIP3    H1 2427   0.834   3.843   1.453
  828TIP3    H2 2428   0.876   3.817   1.312
  829TIP3   OH2 2429   0.987   3.723   1.215
  829TIP3    H1 2430   1.009   3.640   1.262
  829TIP3    H2 2431   1.077   3.762   1.205
  830TIP3   OH2 2432   1.256   3.821   1.219
  830TIP3    H1 2433   1.289   3.733   1.197
  830TIP3    H2 2434   1.305   3.838   1.302
  831TIP3   OH2 2435   1.852   2.474   1.324
  831TIP3    H1 2436   1.760   2.448   1.331
  831TIP3    H2 2437   1.881   2.430   1.243
  832TIP3   OH2 2438   2.376   2.335   1.206
  832TIP3    H1 2439   2.414   2.399   1.141
  832TIP3    H2 2440   2.285   2.370   1.217
  833TIP3   OH2 2441   2.480   2.459   0.991
  833TIP3    H1 2442   2.549   2.412   0.940
  833TIP3    H2 2443   2.498   2.552   0.966
  834TIP3   OH2 2444   2.110   2.375   1.226
  834TIP3    H1 2445   2.064   2.382   1.141
  834TIP3    H2 2446   2.071   2.292   1.259
  835TIP3   OH2 2447   1.364   3.823   0.346
  835TIP3    H1 2448   1.450   3.823   0.297
  835TIP3    H2 2449   1.302   3.791   0.279
  836TIP3   OH2 2450   2.079   3.933   0.423
  836TIP3    H1 2451   2.073   3.835   0.413
  836TIP3    H2 2452   2.031   3.962   0.343
  837TIP3   OH2 2453   1.283   2.479   2.224
  837TIP3    H1 2454   1.252   2.398   2.268
  837TIP3    H2 2455   1.380   2.472   2.242
  838TIP3   OH2 2456   1.541   2.464   2.331
  838TIP3    H1 2457   1.625   2.439   2.288
  838TIP3    H2 2458   1.530   2.391   2.395
  839TIP3   OH2 2459   2.374   2.519   2.128
  839TIP3    H1 2460   2.419   2.485   2.207
  839TIP3    H2 2461   2.450   2.521   2.066
  840TIP3   OH2 2462   2.301   4.077   1.608
  840TIP3    H1 2463   2.223   4.046   1.559
  840TIP3    H2 2464   2.281   4.172   1.616
  841TIP3   OH2 2465   3.571   3.452   0.372
  841TIP3    H1 2466   3.540   3.543   0.351
  841TIP3    H2 2467   3.494   3.400   0.342
  842TIP3   OH2 2468   3.572   3.449   0.759
  842TIP3    H1 2469   3.604   3.425   0.848
  842TIP3    H2 2470   3.527   3.367   0.732
  843TIP3   OH2 2471   2.867   3.342   1.119
  843TIP3    H1 2472   2.895   3.272   1.182
  843TIP3    H2 2473   2.944   3.401   1.122
  844TIP3   OH2 2474   3.815   3.754   0.439
  844TIP3    H1 2475   3.795   3.686   0.505
  844TIP3    H2 2476   3.843   3.828   0.495
  845TIP3   OH2 2477   2.840   3.757   0.844
  845TIP3    H1 2478   2.832   3.659   0.846
  845TIP3    H2 2479   2.937   3.765   0.841
  846TIP3   OH2 2480   2.548   2.965   0.628
  846TIP3    H1 2481   2.497   3.046   0.645
  846TIP3    H2 2482   2.477   2.903   0.606
  847TIP3   OH2 2483   2.605   3.246   0.809
  847TIP3    H1 2484   2.653   3.166   0.842
  847TIP3    H2 2485   2.660   3.273   0.735
  848TIP3   OH2 2486   3.466   4.218   0.455
  848TIP3    H1 2487   3.509   4.144   0.406
  848TIP3    H2 2488   3.450   4.177   0.541
  849TIP3   OH2 2489   3.366   3.677   0.805
  849TIP3    H1 2490   3.405   3.600   0.760
  849TIP3    H2 2491   3.449   3.723   0.830
  850TIP3   OH2 2492   4.383   2.995   0.804
  850TIP3    H1 2493   4.412   3.079   0.847
  850TIP3    H2 2494   4.400   3.016   0.711
  851TIP3   OH2 2495   3.782   3.176   0.834
  851TIP3    H1 2496   3.822   3.089   0.856
  851TIP3    H2 2497   3.747   3.159   0.745
  852TIP3   OH2 2498   3.122   2.834   0.799
  852TIP3    H1 2499   3.098   2.907   0.738
  852TIP3    H2 2500   3.073   2.760   0.757
  853TIP3   OH2 2501   3.815   2.928   0.423
  853TIP3    H1 2502   3.886   2.912   0.488
  853TIP3    H2 2503   3.867   2.963   0.349
  854TIP3   OH2 2504   2.751   3.037   0.908
  854TIP3    H1 2505   2.833   3.017   0.956
  854TIP3    H2 2506   2.764   2.980   0.829
  855TIP3   OH2 2507   3.191   3.236   0.702
  855TIP3    H1 2508   3.284   3.210   0.717
  855TIP3    H2 2509   3.151   3.152   0.672
  856TIP3   OH2 2510   4.455   3.205   0.973
  856TIP3    H1 2511   4.370   3.250   0.954
  856TIP3    H2 2512   4.471   3.235   1.063
  857TIP3   OH2 2513   3.114   2.820   1.237
  857TIP3    H1 2514   3.054   2.856   1.170
  857TIP3    H2 2515   3.061   2.835   1.318
  858TIP3   OH2 2516   3.462   3.673   0.241
  858TIP3    H1 2517   3.415   3.655   0.158
  858TIP3    H2 2518   3.415   3.755   0.271
  859TIP3   OH2 2519   3.221   3.596   1.029
  859TIP3    H1 2520   3.160   3.663   1.067
  859TIP3    H2 2521   3.262   3.646   0.955
  860TIP3   OH2 2522   4.021   2.931   0.601
  860TIP3    H1 2523   3.995   2.892   0.686
  860TIP3    H2 2524   4.070   3.010   0.629
  861TIP3   OH2 2525   2.987   2.934   1.019
  861TIP3    H1 2526   3.048   3.006   1.044
  861TIP3    H2 2527   3.037   2.893   0.945
  862TIP3   OH2 2528   3.050   3.791   1.129
  862TIP3    H1 2529   3.024   3.879   1.093
  862TIP3    H2 2530   2.971   3.773   1.184
  863TIP3   OH2 2531   2.443   3.480   0.369
  863TIP3    H1 2532   2.401   3.502   0.284
  863TIP3    H2 2533   2.472   3.567   0.401
  864TIP3   OH2 2534   3.882   3.997   0.604
  864TIP3    H1 2535   3.793   3.987   0.645
  864TIP3    H2 2536   3.872   4.083   0.559
  865TIP3   OH2 2537   4.175   2.893   0.969
  865TIP3    H1 2538   4.087   2.921   0.938
  865TIP3    H2 2539   4.233   2.927   0.898
  866TIP3   OH2 2540   3.470   2.538   0.956
  866TIP3    H1 2541   3.451   2.443   0.970
  866TIP3    H2 2542   3.392   2.577   1.001
  867TIP3   OH2 2543   3.584   4.043   0.273
  867TIP3    H1 2544   3.632   3.959   0.257
  867TIP3    H2 2545   3.652   4.106   0.241
  868TIP3   OH2 2546   3.727   3.825   0.188
  868TIP3    H1 2547   3.678   3.748   0.157
  868TIP3    H2 2548   3.766   3.792   0.271
  869TIP3   OH2 2549   4.107   3.907   0.948
  869TIP3    H1 2550   4.094   3.829   0.890
  869TIP3    H2 2551   4.089   3.982   0.887
  870TIP3   OH2 2552   3.401   3.301   0.209
  870TIP3    H1 2553   3.320   3.353   0.190
  870TIP3    H2 2554   3.443   3.297   0.121
  871TIP3   OH2 2555   3.350   3.076  -0.062
  871TIP3    H1 2556   3.422   3.136  -0.036
  871TIP3    H2 2557   3.398   2.997  -0.088
  872TIP3   OH2 2558   4.302   3.546   0.795
  872TIP3    H1 2559   4.218   3.596   0.800
  872TIP3    H2 2560   4.332   3.571   0.705
  873TIP3   OH2 2561   3.747   3.381   0.176
  873TIP3    H1 2562   3.692   3.407   0.253
  873TIP3    H2 2563   3.831   3.358   0.220
  874TIP3   OH2 2564   3.981   3.422   1.093
  874TIP3    H1 2565   3.978   3.505   1.143
  874TIP3    H2 2566   3.894   3.425   1.048
  875TIP3   OH2 2567   2.979   3.380   0.594
  875TIP3    H1 2568   2.939   3.321   0.526
  875TIP3    H2 2569   3.055   3.326   0.625
  876TIP3   OH2 2570   3.111   3.797   0.741
  876TIP3    H1 2571   3.088   3.757   0.656
  876TIP3    H2 2572   3.199   3.758   0.759
  877TIP3   OH2 2573   3.120   3.350   0.951
  877TIP3    H1 2574   3.149   3.329   0.860
  877TIP3    H2 2575   3.160   3.438   0.967
  878TIP3   OH2 2576   3.643   3.990   0.727
  878TIP3    H1 2577   3.628   4.070   0.781
  878TIP3    H2 2578   3.625   3.917   0.790
  879TIP3   OH2 2579   3.254   3.909   1.274
  879TIP3    H1 2580   3.193   3.970   1.320
  879TIP3    H2 2581   3.190   3.855   1.223
  880TIP3   OH2 2582   3.586   3.241  -0.002
  880TIP3    H1 2583   3.643   3.301   0.052
  880TIP3    H2 2584   3.617   3.263  -0.093
  881TIP3   OH2 2585   3.008   3.464   1.376
  881TIP3    H1 2586   3.013   3.551   1.419
  881TIP3    H2 2587   2.914   3.442   1.392
  882TIP3   OH2 2588   3.334   3.916   0.283
  882TIP3    H1 2589   3.411   3.974   0.292
  882TIP3    H2 2590   3.269   3.971   0.236
  883TIP3   OH2 2591   3.048   4.074   1.362
  883TIP3    H1 2592   3.012   4.077   1.271
  883TIP3    H2 2593   2.968   4.053   1.415
  884TIP3   OH2 2594   4.109   2.486   0.055
  884TIP3    H1 2595   4.023   2.506   0.099
  884TIP3    H2 2596   4.121   2.565  -0.002
  885TIP3   OH2 2597   2.849   3.223   0.390
  885TIP3    H1 2598   2.778   3.269   0.341
  885TIP3    H2 2599   2.805   3.141   0.415
  886TIP3   OH2 2600   2.627   3.608   1.307
  886TIP3    H1 2601   2.558   3.588   1.241
  886TIP3    H2 2602   2.663   3.520   1.328
  887TIP3   OH2 2603   2.480   3.803   0.936
  887TIP3    H1 2604   2.577   3.797   0.932
  887TIP3    H2 2605   2.468   3.880   0.993
  888TIP3   OH2 2606   4.344   4.254   0.997
  888TIP3    H1 2607   4.343   4.158   1.013
  888TIP3    H2 2608   4.262   4.280   1.043
  889TIP3   OH2 2609   3.450   4.037   1.131
  889TIP3    H1 2610   3.447   4.130   1.163
  889TIP3    H2 2611   3.378   3.997   1.185
  890TIP3   OH2 2612   3.209   4.168   0.083
  890TIP3    H1 2613   3.160   4.148   0.001
  890TIP3    H2 2614   3.176   4.256   0.107
  891TIP3   OH2 2615   2.651   4.015   0.468
  891TIP3    H1 2616   2.696   4.006   0.554
  891TIP3    H2 2617   2.599   3.932   0.465
  892TIP3   OH2 2618   3.425   4.030  -0.231
  892TIP3    H1 2619   3.514   3.994  -0.241
  892TIP3    H2 2620   3.431   4.061  -0.138
  893TIP3   OH2 2621   3.465   4.115   0.023
  893TIP3    H1 2622   3.373   4.129   0.056
  893TIP3    H2 2623   3.508   4.079   0.103
  894TIP3   OH2 2624   4.234   3.382   1.271
  894TIP3    H1 2625   4.150   3.393   1.225
  894TIP3    H2 2626   4.249   3.286   1.262
  895TIP3   OH2 2627   2.831   3.791   1.292
  895TIP3    H1 2628   2.879   3.775   1.376
  895TIP3    H2 2629   2.756   3.728   1.300
  896TIP3   OH2 2630   3.231   2.615   1.081
  896TIP3    H1 2631   3.143   2.584   1.054
  896TIP3    H2 2632   3.204   2.695   1.131
  897TIP3   OH2 2633   3.765   2.728   1.276
  897TIP3    H1 2634   3.832   2.701   1.341
  897TIP3    H2 2635   3.681   2.710   1.322
  898TIP3   OH2 2636   4.004   3.160   1.196
  898TIP3    H1 2637   3.951   3.156   1.279
  898TIP3    H2 2638   3.977   3.247   1.158
  899TIP3   OH2 2639   3.674   3.304  -0.252
  899TIP3    H1 2640   3.660   3.267  -0.339
  899TIP3    H2 2641   3.707   3.393  -0.272
  900TIP3   OH2 2642   3.392   2.684   0.056
  900TIP3    H1 2643   3.354   2.672   0.145
  900TIP3    H2 2644   3.350   2.612   0.008
  901TIP3   OH2 2645   3.164   3.129   1.101
  901TIP3    H1 2646   3.112   3.149   1.181
  901TIP3    H2 2647   3.148   3.211   1.048
  902TIP3   OH2 2648   3.045   3.018   0.616
  902TIP3    H1 2649   2.952   2.990   0.634
  902TIP3    H2 2650   3.057   2.977   0.527
  903TIP3   OH2 2651   3.537   3.101   0.344
  903TIP3    H1 2652   3.486   3.173   0.300
  903TIP3    H2 2653   3.591   3.067   0.270
  904TIP3   OH2 2654   3.711   3.377   1.425
  904TIP3    H1 2655   3.688   3.305   1.488
  904TIP3    H2 2656   3.804   3.392   1.449
  905TIP3   OH2 2657   3.694   3.128   0.578
  905TIP3    H1 2658   3.630   3.156   0.510
  905TIP3    H2 2659   3.728   3.048   0.534
  906TIP3   OH2 2660   2.983   3.157   1.306
  906TIP3    H1 2661   3.003   3.221   1.376
  906TIP3    H2 2662   2.968   3.075   1.358
  907TIP3   OH2 2663   3.040   2.618   0.025
  907TIP3    H1 2664   3.039   2.628   0.122
  907TIP3    H2 2665   2.953   2.653   0.003
  908TIP3   OH2 2666   2.582   2.687   0.883
  908TIP3    H1 2667   2.651   2.717   0.945
  908TIP3    H2 2668   2.633   2.649   0.811
  909TIP3   OH2 2669   2.593   2.714   0.445
  909TIP3    H1 2670   2.639   2.733   0.361
  909TIP3    H2 2671   2.522   2.781   0.443
  910TIP3   OH2 2672   3.706   3.375   1.000
  910TIP3    H1 2673   3.739   3.303   0.941
  910TIP3    H2 2674   3.674   3.321   1.076
  911TIP3   OH2 2675   3.378   2.835   0.673
  911TIP3    H1 2676   3.294   2.835   0.723
  911TIP3    H2 2677   3.443   2.835   0.744
  912TIP3   OH2 2678   2.808   2.895   0.677
  912TIP3    H1 2679   2.714   2.906   0.649
  912TIP3    H2 2680   2.827   2.802   0.654
  913TIP3   OH2 2681   3.079   2.894   0.377
  913TIP3    H1 2682   3.173   2.908   0.354
  913TIP3    H2 2683   3.031   2.912   0.293
  914TIP3   OH2 2684   3.865   2.912   0.873
  914TIP3    H1 2685   3.837   2.926   0.966
  914TIP3    H2 2686   3.794   2.852   0.842
  915TIP3   OH2 2687   2.923   2.918   0.159
  915TIP3    H1 2688   2.828   2.899   0.149
  915TIP3    H2 2689   2.951   2.956   0.074
  916TIP3   OH2 2690   4.040   4.602   1.097
  916TIP3    H1 2691   4.038   4.630   1.004
  916TIP3    H2 2692   4.119   4.649   1.130
  917TIP3   OH2 2693   2.994   3.714   1.514
  917TIP3    H1 2694   3.073   3.743   1.564
  917TIP3    H2 2695   2.928   3.709   1.587
  918TIP3   OH2 2696   3.455   3.168   0.773
  918TIP3    H1 2697   3.528   3.126   0.727
  918TIP3    H2 2698   3.458   3.125   0.861
  919TIP3   OH2 2699   2.979   2.650   0.650
  919TIP3    H1 2700   2.938   2.575   0.699
  919TIP3    H2 2701   3.009   2.605   0.570
  920TIP3   OH2 2702   3.433   3.069   1.055
  920TIP3    H1 2703   3.342   3.101   1.073
  920TIP3    H2 2704   3.488   3.130   1.109
  921TIP3   OH2 2705   3.172   3.452   0.156
  921TIP3    H1 2706   3.098   3.389   0.145
  921TIP3    H2 2707   3.151   3.488   0.246
  922TIP3   OH2 2708   4.068   3.690   0.783
  922TIP3    H1 2709   4.091   3.741   0.702
  922TIP3    H2 2710   3.984   3.647   0.757
  923TIP3   OH2 2711   3.651   2.762   0.016
  923TIP3    H1 2712   3.556   2.736   0.017
  923TIP3    H2 2713   3.648   2.857   0.038
  924TIP3   OH2 2714   3.572   3.776   1.152
  924TIP3    H1 2715   3.594   3.753   1.243
  924TIP3    H2 2716   3.529   3.862   1.161
  925TIP3   OH2 2717   3.694   3.016   0.126
  925TIP3    H1 2718   3.790   3.019   0.139
  925TIP3    H2 2719   3.676   3.095   0.072
  926TIP3   OH2 2720   2.867   3.482   0.831
  926TIP3    H1 2721   2.902   3.448   0.746
  926TIP3    H2 2722   2.899   3.417   0.895
  927TIP3   OH2 2723   3.313   3.604  -0.025
  927TIP3    H1 2724   3.267   3.691  -0.016
  927TIP3    H2 2725   3.260   3.549   0.037
  928TIP3   OH2 2726   2.746   3.393   1.443
  928TIP3    H1 2727   2.758   3.379   1.539
  928TIP3    H2 2728   2.674   3.330   1.425
  929TIP3   OH2 2729   3.469   3.513   1.463
  929TIP3    H1 2730   3.406   3.452   1.423
  929TIP3    H2 2731   3.555   3.475   1.433
  930TIP3   OH2 2732   3.728   4.036   1.047
  930TIP3    H1 2733   3.632   4.031   1.063
  930TIP3    H2 2734   3.756   4.085   1.127
  931TIP3   OH2 2735   4.131   3.106  -0.044
  931TIP3    H1 2736   4.071   3.064  -0.109
  931TIP3    H2 2737   4.128   3.197  -0.081
  932TIP3   OH2 2738   4.357   3.964   1.038
  932TIP3    H1 2739   4.260   3.958   1.030
  932TIP3    H2 2740   4.383   3.933   0.948
  933TIP3   OH2 2741   3.864   3.915  -0.146
  933TIP3    H1 2742   3.829   3.864  -0.071
  933TIP3    H2 2743   3.815   3.879  -0.220
  934TIP3   OH2 2744   3.835   3.553   0.699
  934TIP3    H1 2745   3.742   3.529   0.714
  934TIP3    H2 2746   3.867   3.472   0.655
  935TIP3   OH2 2747   2.964   3.781   0.456
  935TIP3    H1 2748   2.958   3.863   0.402
  935TIP3    H2 2749   2.871   3.762   0.470
  936TIP3   OH2 2750   2.533   3.083   0.177
  936TIP3    H1 2751   2.571   3.173   0.191
  936TIP3    H2 2752   2.445   3.092   0.220
  937TIP3   OH2 2753   3.098   3.545   0.398
  937TIP3    H1 2754   3.063   3.635   0.418
  937TIP3    H2 2755   3.062   3.494   0.473
  938TIP3   OH2 2756   3.233   4.124   0.925
  938TIP3    H1 2757   3.276   4.196   0.875
  938TIP3    H2 2758   3.309   4.087   0.973
  939TIP3   OH2 2759   2.881   4.019   0.310
  939TIP3    H1 2760   2.796   4.028   0.356
  939TIP3    H2 2761   2.913   4.112   0.311
  940TIP3   OH2 2762   3.618   3.757   0.885
  940TIP3    H1 2763   3.607   3.758   0.983
  940TIP3    H2 2764   3.698   3.703   0.875
  941TIP3   OH2 2765   3.581   3.618  -0.229
  941TIP3    H1 2766   3.640   3.611  -0.152
  941TIP3    H2 2767   3.494   3.625  -0.186
  942TIP3   OH2 2768   3.868   4.289   0.934
  942TIP3    H1 2769   3.789   4.231   0.931
  942TIP3    H2 2770   3.849   4.353   0.862
  943TIP3   OH2 2771   2.951   2.901   1.450
  943TIP3    H1 2772   2.854   2.907   1.464
  943TIP3    H2 2773   2.978   2.846   1.525
  944TIP3   OH2 2774   3.755   3.582  -0.017
  944TIP3    H1 2775   3.746   3.517   0.055
  944TIP3    H2 2776   3.852   3.582  -0.028
  945TIP3   OH2 2777   2.672   3.984   1.083
  945TIP3    H1 2778   2.725   3.911   1.119
  945TIP3    H2 2779   2.695   4.056   1.143
  946TIP3   OH2 2780   2.973   3.638  -0.223
  946TIP3    H1 2781   2.948   3.558  -0.269
  946TIP3    H2 2782   2.937   3.625  -0.133
  947TIP3   OH2 2783   2.902   3.640   0.046
  947TIP3    H1 2784   2.975   3.615   0.104
  947TIP3    H2 2785   2.908   3.738   0.048
  948TIP3   OH2 2786   2.641   3.334   0.246
  948TIP3    H1 2787   2.574   3.378   0.302
  948TIP3    H2 2788   2.652   3.402   0.176
  949TIP3   OH2 2789   3.798   2.962   1.133
  949TIP3    H1 2790   3.873   3.003   1.179
  949TIP3    H2 2791   3.780   2.883   1.188
  950TIP3   OH2 2792   3.671   2.715   0.301
  950TIP3    H1 2793   3.660   2.734   0.206
  950TIP3    H2 2794   3.710   2.799   0.334
  951TIP3   OH2 2795   3.178   3.835  -0.006
  951TIP3    H1 2796   3.090   3.864   0.027
  951TIP3    H2 2797   3.180   3.878  -0.092
  952TIP3   OH2 2798   3.360   2.897   0.403
  952TIP3    H1 2799   3.424   2.971   0.387
  952TIP3    H2 2800   3.364   2.890   0.501
  953TIP3   OH2 2801   3.632   3.215   1.207
  953TIP3    H1 2802   3.651   3.269   1.287
  953TIP3    H2 2803   3.682   3.134   1.225
  954TIP3   OH2 2804   3.504   2.622   0.505
  954TIP3    H1 2805   3.491   2.702   0.560
  954TIP3    H2 2806   3.565   2.656   0.436
  955TIP3   OH2 2807   2.922   3.910   0.059
  955TIP3    H1 2808   2.891   3.981  -0.002
  955TIP3    H2 2809   2.903   3.952   0.146
  956TIP3   OH2 2810   3.030   2.635   0.306
  956TIP3    H1 2811   3.028   2.725   0.343
  956TIP3    H2 2812   3.126   2.617   0.312
  957TIP3   OH2 2813   4.269   3.114   1.191
  957TIP3    H1 2814   4.171   3.114   1.201
  957TIP3    H2 2815   4.277   3.071   1.105
  958TIP3   OH2 2816   3.921   3.308   0.578
  958TIP3    H1 2817   3.843   3.251   0.591
  958TIP3    H2 2818   3.990   3.261   0.627
  959TIP3   OH2 2819   2.634   3.542   0.053
  959TIP3    H1 2820   2.707   3.605   0.064
  959TIP3    H2 2821   2.677   3.481  -0.011
  960TIP3   OH2 2822   2.629   2.832   0.165
  960TIP3    H1 2823   2.593   2.924   0.169
  960TIP3    H2 2824   2.557   2.786   0.120
  961TIP3   OH2 2825   3.892   4.269   0.527
  961TIP3    H1 2826   3.843   4.319   0.458
  961TIP3    H2 2827   3.984   4.294   0.504
  962TIP3   OH2 2828   2.968   2.535   1.056
  962TIP3    H1 2829   2.934   2.502   0.970
  962TIP3    H2 2830   2.956   2.457   1.113
  963TIP3   OH2 2831   2.504   3.756   0.433
  963TIP3    H1 2832   2.437   3.782   0.498
  963TIP3    H2 2833   2.468   3.797   0.351
  964TIP3   OH2 2834   2.663   4.300   1.506
  964TIP3    H1 2835   2.749   4.299   1.553
  964TIP3    H2 2836   2.642   4.205   1.506
  965TIP3   OH2 2837   3.141   4.257   1.551
  965TIP3    H1 2838   3.235   4.237   1.557
  965TIP3    H2 2839   3.114   4.195   1.480
  966TIP3   OH2 2840   3.143   3.832  -0.302
  966TIP3    H1 2841   3.065   3.777  -0.279
  966TIP3    H2 2842   3.204   3.762  -0.326
  967TIP3   OH2 2843   3.783   4.165   1.284
  967TIP3    H1 2844   3.774   4.096   1.354
  967TIP3    H2 2845   3.859   4.218   1.316
  968TIP3   OH2 2846   2.792   3.703   1.706
  968TIP3    H1 2847   2.807   3.607   1.714
  968TIP3    H2 2848   2.704   3.705   1.662
  969TIP3   OH2 2849   2.784   3.366  -0.084
  969TIP3    H1 2850   2.849   3.329  -0.021
  969TIP3    H2 2851   2.806   3.324  -0.167
  970TIP3   OH2 2852   3.400   3.789   1.480
  970TIP3    H1 2853   3.355   3.808   1.395
  970TIP3    H2 2854   3.428   3.696   1.470
  971TIP3   OH2 2855   3.272   3.549  -0.293
  971TIP3    H1 2856   3.278   3.575  -0.199
  971TIP3    H2 2857   3.272   3.453  -0.285
  972TIP3   OH2 2858   3.892   3.798   1.089
  972TIP3    H1 2859   3.966   3.843   1.045
  972TIP3    H2 2860   3.820   3.862   1.074
  973TIP3   OH2 2861   2.913   3.442   1.690
  973TIP3    H1 2862   2.983   3.379   1.670
  973TIP3    H2 2863   2.940   3.473   1.779
  974TIP3   OH2 2864   2.976   3.257   0.120
  974TIP3    H1 2865   2.946   3.225   0.207
  974TIP3    H2 2866   3.012   3.176   0.079
  975TIP3   OH2 2867   3.249   3.324   1.354
  975TIP3    H1 2868   3.168   3.379   1.353
  975TIP3    H2 2869   3.297   3.357   1.275
  976TIP3   OH2 2870   3.075   3.045  -0.042
  976TIP3    H1 2871   3.075   3.009  -0.132
  976TIP3    H2 2872   3.171   3.061  -0.031
  977TIP3   OH2 2873   3.764   3.723   1.485
  977TIP3    H1 2874   3.841   3.691   1.437
  977TIP3    H2 2875   3.756   3.658   1.557
  978TIP3   OH2 2876   3.373   3.111   1.473
  978TIP3    H1 2877   3.369   3.031   1.417
  978TIP3    H2 2878   3.327   3.178   1.418
  979TIP3   OH2 2879   3.373   2.896   1.283
  979TIP3    H1 2880   3.399   2.937   1.198
  979TIP3    H2 2881   3.279   2.873   1.267
  980TIP3   OH2 2882   3.397   3.430   1.157
  980TIP3    H1 2883   3.481   3.444   1.112
  980TIP3    H2 2884   3.339   3.495   1.112
  981TIP3   OH2 2885   3.978   3.396   1.536
  981TIP3    H1 2886   4.027   3.313   1.550
  981TIP3    H2 2887   4.046   3.455   1.501
  982TIP3   OH2 2888   4.021   3.650   1.274
  982TIP3    H1 2889   3.963   3.705   1.216
  982TIP3    H2 2890   4.109   3.672   1.234
  983TIP3   OH2 2891   3.251   3.215   1.709
  983TIP3    H1 2892   3.182   3.149   1.726
  983TIP3    H2 2893   3.281   3.190   1.620
  984TIP3   OH2 2894   3.503   2.657   1.352
  984TIP3    H1 2895   3.453   2.738   1.330
  984TIP3    H2 2896   3.434   2.589   1.343
  985TIP3   OH2 2897   3.630   3.160   1.568
  985TIP3    H1 2898   3.613   3.145   1.663
  985TIP3    H2 2899   3.541   3.137   1.533
  986TIP3   OH2 2900   3.867   3.109   1.423
  986TIP3    H1 2901   3.792   3.113   1.486
  986TIP3    H2 2902   3.941   3.080   1.480
  987TIP3   OH2 2903   4.102   3.055   1.572
  987TIP3    H1 2904   4.112   2.958   1.589
  987TIP3    H2 2905   4.095   3.091   1.663
  988TIP3   OH2 2906   3.089   2.997   1.761
  988TIP3    H1 2907   3.089   2.904   1.730
  988TIP3    H2 2908   3.123   2.986   1.852
  989TIP3   OH2 2909   3.600   2.669   1.610
  989TIP3    H1 2910   3.664   2.595   1.604
  989TIP3    H2 2911   3.557   2.663   1.522
  990TIP3   OH2 2912   3.666   2.884   1.769
  990TIP3    H1 2913   3.643   2.812   1.705
  990TIP3    H2 2914   3.587   2.941   1.764
  991TIP3   OH2 2915   2.877   4.109  -0.125
  991TIP3    H1 2916   2.968   4.113  -0.160
  991TIP3    H2 2917   2.825   4.142  -0.199
  992TIP3   OH2 2918   2.363   3.498   0.102
  992TIP3    H1 2919   2.453   3.527   0.075
  992TIP3    H2 2920   2.354   3.415   0.054
  993TIP3   OH2 2921   2.282   4.106   0.499
  993TIP3    H1 2922   2.215   4.044   0.462
  993TIP3    H2 2923   2.326   4.047   0.565
  994TIP3   OH2 2924   2.415   3.954   0.687
  994TIP3    H1 2925   2.402   3.882   0.752
  994TIP3    H2 2926   2.467   4.016   0.741
  995TIP3   OH2 2927   4.142   4.383   0.484
  995TIP3    H1 2928   4.174   4.382   0.576
  995TIP3    H2 2929   4.224   4.384   0.431
  996TIP3   OH2 2930   4.176   4.373   0.763
  996TIP3    H1 2931   4.128   4.287   0.767
  996TIP3    H2 2932   4.249   4.352   0.824
  997TIP3   OH2 2933   4.219   4.053   1.342
  997TIP3    H1 2934   4.147   4.063   1.407
  997TIP3    H2 2935   4.261   4.141   1.346
  998TIP3   OH2 2936   4.034   3.561  -0.033
  998TIP3    H1 2937   4.104   3.624  -0.057
  998TIP3    H2 2938   4.075   3.518   0.045
  999TIP3   OH2 2939   4.164   3.429   0.167
  999TIP3    H1 2940   4.097   3.389   0.226
  999TIP3    H2 2941   4.228   3.468   0.230
 1000TIP3   OH2 2942   4.221   3.829   0.596
 1000TIP3    H1 2943   4.272   3.761   0.549
 1000TIP3    H2 2944   4.211   3.899   0.529
 1001TIP3   OH2 2945   4.046   4.128   0.789
 1001TIP3    H1 2946   3.975   4.168   0.842
 1001TIP3    H2 2947   3.996   4.081   0.719
 1002TIP3   OH2 2948   4.093   3.345  -0.194
 1002TIP3    H1 2949   4.018   3.334  -0.255
 1002TIP3    H2 2950   4.063   3.422  -0.141
 1003TIP3   OH2 2951   3.977   3.022  -0.252
 1003TIP3    H1 2952   3.969   3.043  -0.347
 1003TIP3    H2 2953   3.943   2.930  -0.249
 1004TIP3   OH2 2954   3.976   3.291   0.310
 1004TIP3    H1 2955   3.980   3.194   0.301
 1004TIP3    H2 2956   3.961   3.303   0.406
 1005TIP3   OH2 2957   2.601   3.364   1.059
 1005TIP3    H1 2958   2.598   3.330   0.967
 1005TIP3    H2 2959   2.698   3.364   1.074
 1006TIP3   OH2 2960   4.267   3.717   1.168
 1006TIP3    H1 2961   4.338   3.650   1.156
 1006TIP3    H2 2962   4.292   3.786   1.105
 1007TIP3   OH2 2963   4.449   3.517   1.175
 1007TIP3    H1 2964   4.374   3.468   1.217
 1007TIP3    H2 2965   4.522   3.454   1.193
 1008TIP3   OH2 2966   3.913   2.757  -0.227
 1008TIP3    H1 2967   3.997   2.718  -0.196
 1008TIP3    H2 2968   3.846   2.711  -0.175
 1009TIP3   OH2 2969   3.974   3.008   0.203
 1009TIP3    H1 2970   4.014   2.919   0.217
 1009TIP3    H2 2971   4.029   3.040   0.129
 1010TIP3   OH2 2972   4.133   3.176   0.700
 1010TIP3    H1 2973   4.218   3.202   0.659
 1010TIP3    H2 2974   4.146   3.215   0.789
 1011TIP3   OH2 2975   4.204   3.324   0.929
 1011TIP3    H1 2976   4.127   3.357   0.979
 1011TIP3    H2 2977   4.236   3.406   0.886
 1012TIP3   OH2 2978   2.822   3.051   1.733
 1012TIP3    H1 2979   2.920   3.043   1.738
 1012TIP3    H2 2980   2.796   2.965   1.773
 1013TIP3   OH2 2981   4.657   2.920   1.486
 1013TIP3    H1 2982   4.715   2.855   1.441
 1013TIP3    H2 2983   4.623   2.972   1.410
 1014TIP3   OH2 2984   4.082   2.758   0.240
 1014TIP3    H1 2985   4.128   2.743   0.326
 1014TIP3    H2 2986   4.019   2.683   0.240
 1015TIP3   OH2 2987   2.782   2.743   1.060
 1015TIP3    H1 2988   2.844   2.667   1.071
 1015TIP3    H2 2989   2.845   2.817   1.054
 1016TIP3   OH2 2990   2.583   3.014   1.134
 1016TIP3    H1 2991   2.632   3.013   1.049
 1016TIP3    H2 2992   2.609   3.099   1.171
 1017TIP3   OH2 2993   4.523   3.053   1.292
 1017TIP3    H1 2994   4.439   3.098   1.314
 1017TIP3    H2 2995   4.489   2.982   1.234
 1018TIP3   OH2 2996   4.174   2.682  -0.141
 1018TIP3    H1 2997   4.216   2.646  -0.221
 1018TIP3    H2 2998   4.226   2.764  -0.129
 1019TIP3   OH2 2999   2.561   2.524   0.636
 1019TIP3    H1 3000   2.476   2.542   0.680
 1019TIP3    H2 3001   2.570   2.600   0.575
 1020TIP3   OH2 3002   3.746   4.223   0.150
 1020TIP3    H1 3003   3.773   4.204   0.058
 1020TIP3    H2 3004   3.790   4.308   0.164
 1021TIP3   OH2 3005   2.788   2.595   1.447
 1021TIP3    H1 3006   2.739   2.593   1.531
 1021TIP3    H2 3007   2.722   2.638   1.388
 1022TIP3   OH2 3008   2.827   4.030   1.526
 1022TIP3    H1 3009   2.734   4.004   1.510
 1022TIP3    H2 3010   2.837   4.008   1.620
 1023TIP3   OH2 3011   3.007   4.062   1.075
 1023TIP3    H1 3012   2.958   4.137   1.036
 1023TIP3    H2 3013   3.093   4.077   1.029
 1024TIP3   OH2 3014   3.448   4.304   1.211
 1024TIP3    H1 3015   3.489   4.303   1.300
 1024TIP3    H2 3016   3.514   4.357   1.161
 1025TIP3   OH2 3017   3.628   4.459   1.073
 1025TIP3    H1 3018   3.699   4.405   1.035
 1025TIP3    H2 3019   3.679   4.516   1.134
 1026TIP3   OH2 3020   4.424   2.817   1.170
 1026TIP3    H1 3021   4.333   2.810   1.136
 1026TIP3    H2 3022   4.455   2.724   1.161
 1027TIP3   OH2 3023   2.682   4.319   1.098
 1027TIP3    H1 3024   2.592   4.350   1.076
 1027TIP3    H2 3025   2.693   4.359   1.185
 1028TIP3   OH2 3026   2.919   4.297   0.958
 1028TIP3    H1 3027   2.831   4.309   1.002
 1028TIP3    H2 3028   2.899   4.328   0.867
 1029TIP3   OH2 3029   3.344   4.323   0.754
 1029TIP3    H1 3030   3.272   4.341   0.691
 1029TIP3    H2 3031   3.354   4.410   0.797
 1030TIP3   OH2 3032   3.613   4.262   0.806
 1030TIP3    H1 3033   3.518   4.278   0.788
 1030TIP3    H2 3034   3.653   4.340   0.764
 1031TIP3   OH2 3035   3.825   4.459   0.719
 1031TIP3    H1 3036   3.806   4.539   0.666
 1031TIP3    H2 3037   3.847   4.394   0.649
 1032TIP3   OH2 3038   2.594   4.111   0.843
 1032TIP3    H1 3039   2.620   4.083   0.933
 1032TIP3    H2 3040   2.665   4.067   0.792
 1033TIP3   OH2 3041   2.788   3.983   0.702
 1033TIP3    H1 3042   2.802   3.899   0.752
 1033TIP3    H2 3043   2.880   4.018   0.698
 1034TIP3   OH2 3044   3.057   4.076   0.706
 1034TIP3    H1 3045   3.085   3.983   0.696
 1034TIP3    H2 3046   3.103   4.097   0.789
 1035TIP3   OH2 3047   3.632   2.734   0.797
 1035TIP3    H1 3048   3.586   2.665   0.848
 1035TIP3    H2 3049   3.701   2.683   0.750
 1036TIP3   OH2 3050   4.150   2.610   0.691
 1036TIP3    H1 3051   4.185   2.667   0.619
 1036TIP3    H2 3052   4.055   2.632   0.689
 1037TIP3   OH2 3053   4.247   2.713   0.457
 1037TIP3    H1 3054   4.322   2.664   0.419
 1037TIP3    H2 3055   4.278   2.806   0.444
 1038TIP3   OH2 3056   2.875   2.446   0.813
 1038TIP3    H1 3057   2.786   2.408   0.798
 1038TIP3    H2 3058   2.929   2.365   0.802
 1039TIP3   OH2 3059   2.784   2.382   0.536
 1039TIP3    H1 3060   2.748   2.377   0.447
 1039TIP3    H2 3061   2.711   2.425   0.583
 1040TIP3   OH2 3062   3.329   2.468   0.685
 1040TIP3    H1 3063   3.385   2.522   0.627
 1040TIP3    H2 3064   3.338   2.514   0.770
 1041TIP3   OH2 3065   3.870   2.621   0.669
 1041TIP3    H1 3066   3.856   2.584   0.581
 1041TIP3    H2 3067   3.856   2.541   0.726
 1042TIP3   OH2 3068   3.901   2.544   0.237
 1042TIP3    H1 3069   3.813   2.585   0.242
 1042TIP3    H2 3070   3.883   2.458   0.280
 1043TIP3   OH2 3071   2.381   3.886   0.231
 1043TIP3    H1 3072   2.300   3.845   0.197
 1043TIP3    H2 3073   2.363   3.979   0.213
 1044TIP3   OH2 3074   2.792   2.503   0.262
 1044TIP3    H1 3075   2.844   2.428   0.230
 1044TIP3    H2 3076   2.862   2.564   0.291
 1045TIP3   OH2 3077   3.302   2.646   0.316
 1045TIP3    H1 3078   3.359   2.600   0.379
 1045TIP3    H2 3079   3.321   2.739   0.341
 1046TIP3   OH2 3080   3.147   4.082  -0.193
 1046TIP3    H1 3081   3.242   4.091  -0.214
 1046TIP3    H2 3082   3.128   4.001  -0.246
 1047TIP3   OH2 3083   3.869   4.185  -0.097
 1047TIP3    H1 3084   3.864   4.089  -0.118
 1047TIP3    H2 3085   3.866   4.225  -0.186
 1048TIP3   OH2 3086   3.086   2.723   1.696
 1048TIP3    H1 3087   3.046   2.655   1.752
 1048TIP3    H2 3088   3.179   2.721   1.727
 1049TIP3   OH2 3089   3.335   2.719   1.818
 1049TIP3    H1 3090   3.420   2.689   1.781
 1049TIP3    H2 3091   3.319   2.650   1.885
 1050TIP3   OH2 3092   2.458   3.926  -0.106
 1050TIP3    H1 3093   2.446   3.951  -0.014
 1050TIP3    H2 3094   2.539   3.876  -0.106
 1051TIP3   OH2 3095   4.161   2.782   1.604
 1051TIP3    H1 3096   4.178   2.752   1.696
 1051TIP3    H2 3097   4.251   2.776   1.565
 1052TIP3   OH2 3098   4.097   4.333   1.095
 1052TIP3    H1 3099   4.017   4.303   1.047
 1052TIP3    H2 3100   4.078   4.429   1.103
 1053TIP3   OH2 3101   5.357   3.701   0.246
 1053TIP3    H1 3102   5.397   3.690   0.334
 1053TIP3    H2 3103   5.313   3.616   0.232
 1054TIP3   OH2 3104   4.663   3.600   0.609
 1054TIP3    H1 3105   4.692   3.530   0.670
 1054TIP3    H2 3106   4.739   3.660   0.612
 1055TIP3   OH2 3107   4.633   4.007   0.335
 1055TIP3    H1 3108   4.626   3.909   0.337
 1055TIP3    H2 3109   4.731   4.016   0.329
 1056TIP3   OH2 3110   4.343   3.216   0.108
 1056TIP3    H1 3111   4.293   3.296   0.132
 1056TIP3    H2 3112   4.272   3.160   0.074
 1057TIP3   OH2 3113   4.400   3.501   0.294
 1057TIP3    H1 3114   4.448   3.422   0.329
 1057TIP3    H2 3115   4.469   3.546   0.244
 1058TIP3   OH2 3116   5.167   3.929   0.287
 1058TIP3    H1 3117   5.212   3.851   0.250
 1058TIP3    H2 3118   5.247   3.978   0.317
 1059TIP3   OH2 3119   6.181   3.252   0.295
 1059TIP3    H1 3120   6.201   3.329   0.352
 1059TIP3    H2 3121   6.252   3.257   0.230
 1060TIP3   OH2 3122   5.583   3.432   0.351
 1060TIP3    H1 3123   5.623   3.345   0.371
 1060TIP3    H2 3124   5.543   3.415   0.264
 1061TIP3   OH2 3125   4.920   3.091   0.290
 1061TIP3    H1 3126   4.891   3.169   0.239
 1061TIP3    H2 3127   4.867   3.021   0.245
 1062TIP3   OH2 3128   5.591   3.167  -0.036
 1062TIP3    H1 3129   5.673   3.157   0.017
 1062TIP3    H2 3130   5.631   3.175  -0.125
 1063TIP3   OH2 3131   4.547   3.295   0.396
 1063TIP3    H1 3132   4.629   3.276   0.444
 1063TIP3    H2 3133   4.558   3.235   0.319
 1064TIP3   OH2 3134   4.994   3.502   0.195
 1064TIP3    H1 3135   5.087   3.474   0.206
 1064TIP3    H2 3136   4.950   3.417   0.175
 1065TIP3   OH2 3137   6.246   3.458   0.464
 1065TIP3    H1 3138   6.162   3.507   0.450
 1065TIP3    H2 3139   6.275   3.498   0.548
 1066TIP3   OH2 3140   4.910   3.076   0.724
 1066TIP3    H1 3141   4.850   3.114   0.657
 1066TIP3    H2 3142   4.858   3.093   0.805
 1067TIP3   OH2 3143   5.016   3.853   0.516
 1067TIP3    H1 3144   4.956   3.921   0.553
 1067TIP3    H2 3145   5.057   3.902   0.442
 1068TIP3   OH2 3146   5.830   3.188   0.093
 1068TIP3    H1 3147   5.830   3.129   0.169
 1068TIP3    H2 3148   5.870   3.269   0.130
 1069TIP3   OH2 3149   4.782   3.191   0.506
 1069TIP3    H1 3150   4.843   3.265   0.531
 1069TIP3    H2 3151   4.835   3.149   0.435
 1070TIP3   OH2 3152   4.845   4.048   0.616
 1070TIP3    H1 3153   4.822   4.134   0.577
 1070TIP3    H2 3154   4.766   4.033   0.671
 1071TIP3   OH2 3155   4.231   3.737  -0.128
 1071TIP3    H1 3156   4.166   3.761  -0.195
 1071TIP3    H2 3157   4.235   3.817  -0.071
 1072TIP3   OH2 3158   5.968   3.151   0.459
 1072TIP3    H1 3159   5.880   3.178   0.428
 1072TIP3    H2 3160   6.026   3.181   0.387
 1073TIP3   OH2 3161   5.262   2.792   0.438
 1073TIP3    H1 3162   5.248   2.698   0.459
 1073TIP3    H2 3163   5.187   2.832   0.486
 1074TIP3   OH2 3164   5.900   4.170   0.449
 1074TIP3    H1 3165   5.898   4.095   0.385
 1074TIP3    H2 3166   5.877   4.246   0.390
 1075TIP3   OH2 3167   6.094   3.796   0.321
 1075TIP3    H1 3168   6.023   3.861   0.303
 1075TIP3    H2 3169   6.132   3.781   0.232
 1076TIP3   OH2 3170   5.775   3.677   0.582
 1076TIP3    H1 3171   5.777   3.760   0.634
 1076TIP3    H2 3172   5.690   3.689   0.534
 1077TIP3   OH2 3173   4.770   3.618   0.090
 1077TIP3    H1 3174   4.736   3.547   0.033
 1077TIP3    H2 3175   4.852   3.578   0.126
 1078TIP3   OH2 3176   4.898   4.021   0.256
 1078TIP3    H1 3177   4.877   4.013   0.162
 1078TIP3    H2 3178   4.993   3.999   0.259
 1079TIP3   OH2 3179   4.912   3.612   0.437
 1079TIP3    H1 3180   4.950   3.591   0.349
 1079TIP3    H2 3181   4.954   3.698   0.458
 1080TIP3   OH2 3182   5.432   4.226   0.206
 1080TIP3    H1 3183   5.430   4.310   0.255
 1080TIP3    H2 3184   5.415   4.160   0.276
 1081TIP3   OH2 3185   5.051   4.164   0.763
 1081TIP3    H1 3186   4.989   4.227   0.808
 1081TIP3    H2 3187   4.987   4.111   0.711
 1082TIP3   OH2 3188   4.805   3.719   0.864
 1082TIP3    H1 3189   4.811   3.808   0.904
 1082TIP3    H2 3190   4.710   3.700   0.880
 1083TIP3   OH2 3191   4.844   4.331   0.847
 1083TIP3    H1 3192   4.809   4.336   0.756
 1083TIP3    H2 3193   4.763   4.310   0.899
 1084TIP3   OH2 3194   4.599   3.466  -0.089
 1084TIP3    H1 3195   4.515   3.510  -0.069
 1084TIP3    H2 3196   4.577   3.374  -0.070
 1085TIP3   OH2 3197   4.422   3.865   0.795
 1085TIP3    H1 3198   4.354   3.844   0.728
 1085TIP3    H2 3199   4.459   3.777   0.816
 1086TIP3   OH2 3200   4.279   4.064   0.421
 1086TIP3    H1 3201   4.374   4.046   0.411
 1086TIP3    H2 3202   4.280   4.131   0.490
 1087TIP3   OH2 3203   6.146   4.503   0.502
 1087TIP3    H1 3204   6.149   4.407   0.519
 1087TIP3    H2 3205   6.065   4.527   0.552
 1088TIP3   OH2 3206   5.246   4.292   0.617
 1088TIP3    H1 3207   5.245   4.385   0.649
 1088TIP3    H2 3208   5.176   4.253   0.674
 1089TIP3   OH2 3209   4.432   4.252  -0.031
 1089TIP3    H1 3210   4.504   4.258   0.035
 1089TIP3    H2 3211   4.358   4.227   0.028
 1090TIP3   OH2 3212   6.026   3.635   0.765
 1090TIP3    H1 3213   5.946   3.649   0.714
 1090TIP3    H2 3214   6.043   3.539   0.751
 1091TIP3   OH2 3215   4.626   4.048   0.779
 1091TIP3    H1 3216   4.676   4.033   0.862
 1091TIP3    H2 3217   4.552   3.984   0.788
 1092TIP3   OH2 3218   5.027   2.871   0.569
 1092TIP3    H1 3219   4.938   2.841   0.540
 1092TIP3    H2 3220   5.000   2.952   0.618
 1093TIP3   OH2 3221   5.561   2.983   0.763
 1093TIP3    H1 3222   5.630   2.957   0.827
 1093TIP3    H2 3223   5.478   2.966   0.811
 1094TIP3   OH2 3224   5.793   3.414   0.678
 1094TIP3    H1 3225   5.745   3.412   0.764
 1094TIP3    H2 3226   5.772   3.503   0.644
 1095TIP3   OH2 3227   4.957   3.388   0.584
 1095TIP3    H1 3228   4.909   3.409   0.667
 1095TIP3    H2 3229   4.942   3.471   0.533
 1096TIP3   OH2 3230   4.829   3.291   0.130
 1096TIP3    H1 3231   4.737   3.262   0.148
 1096TIP3    H2 3232   4.848   3.233   0.052
 1097TIP3   OH2 3233   5.507   3.633   0.910
 1097TIP3    H1 3234   5.486   3.562   0.974
 1097TIP3    H2 3235   5.600   3.651   0.933
 1098TIP3   OH2 3236   5.493   3.387   0.100
 1098TIP3    H1 3237   5.459   3.423   0.016
 1098TIP3    H2 3238   5.530   3.302   0.068
 1099TIP3   OH2 3239   4.778   3.415   0.793
 1099TIP3    H1 3240   4.804   3.480   0.859
 1099TIP3    H2 3241   4.766   3.334   0.847
 1100TIP3   OH2 3242   4.370   2.938   0.374
 1100TIP3    H1 3243   4.446   2.968   0.428
 1100TIP3    H2 3244   4.410   2.902   0.294
 1101TIP3   OH2 3245   4.335   2.919  -0.096
 1101TIP3    H1 3246   4.381   2.949  -0.177
 1101TIP3    H2 3247   4.273   2.993  -0.082
 1102TIP3   OH2 3248   5.485   3.637   0.492
 1102TIP3    H1 3249   5.529   3.567   0.439
 1102TIP3    H2 3250   5.459   3.584   0.570
 1103TIP3   OH2 3251   5.173   3.094   0.163
 1103TIP3    H1 3252   5.091   3.092   0.217
 1103TIP3    H2 3253   5.241   3.094   0.232
 1104TIP3   OH2 3254   4.601   3.149   0.170
 1104TIP3    H1 3255   4.507   3.155   0.139
 1104TIP3    H2 3256   4.626   3.058   0.146
 1105TIP3   OH2 3257   4.882   3.117  -0.073
 1105TIP3    H1 3258   4.978   3.100  -0.067
 1105TIP3    H2 3259   4.879   3.156  -0.163
 1106TIP3   OH2 3260   5.663   3.166   0.361
 1106TIP3    H1 3261   5.634   3.176   0.454
 1106TIP3    H2 3262   5.595   3.107   0.326
 1107TIP3   OH2 3263   5.839   4.850   0.594
 1107TIP3    H1 3264   5.822   4.876   0.501
 1107TIP3    H2 3265   5.910   4.914   0.615
 1108TIP3   OH2 3266   4.790   3.968   1.001
 1108TIP3    H1 3267   4.869   3.999   1.049
 1108TIP3    H2 3268   4.725   3.969   1.075
 1109TIP3   OH2 3269   5.252   3.423   0.262
 1109TIP3    H1 3270   5.333   3.392   0.219
 1109TIP3    H2 3271   5.256   3.381   0.350
 1110TIP3   OH2 3272   4.770   2.911   0.147
 1110TIP3    H1 3273   4.734   2.831   0.191
 1110TIP3    H2 3274   4.826   2.873   0.078
 1111TIP3   OH2 3275   5.229   3.325   0.545
 1111TIP3    H1 3276   5.139   3.361   0.562
 1111TIP3    H2 3277   5.286   3.385   0.597
 1112TIP3   OH2 3278   5.864   3.955   0.282
 1112TIP3    H1 3279   5.834   4.001   0.201
 1112TIP3    H2 3280   5.784   3.901   0.299
 1113TIP3   OH2 3281   5.356   4.025   0.645
 1113TIP3    H1 3282   5.397   4.018   0.732
 1113TIP3    H2 3283   5.328   4.118   0.642
 1114TIP3   OH2 3284   4.651   3.725   0.320
 1114TIP3    H1 3285   4.695   3.697   0.237
 1114TIP3    H2 3286   4.700   3.676   0.387
 1115TIP3   OH2 3287   4.541   3.651   0.932
 1115TIP3    H1 3288   4.558   3.638   1.027
 1115TIP3    H2 3289   4.470   3.586   0.916
 1116TIP3   OH2 3290   5.267   3.768   0.952
 1116TIP3    H1 3291   5.206   3.708   0.905
 1116TIP3    H2 3292   5.354   3.734   0.922
 1117TIP3   OH2 3293   5.523   4.275   0.544
 1117TIP3    H1 3294   5.427   4.289   0.549
 1117TIP3    H2 3295   5.554   4.335   0.616
 1118TIP3   OH2 3296   6.154   4.217   0.531
 1118TIP3    H1 3297   6.055   4.220   0.531
 1118TIP3    H2 3298   6.169   4.183   0.441
 1119TIP3   OH2 3299   5.634   3.799   0.240
 1119TIP3    H1 3300   5.539   3.801   0.220
 1119TIP3    H2 3301   5.659   3.715   0.197
 1120TIP3   OH2 3302   4.749   4.021  -0.000
 1120TIP3    H1 3303   4.797   4.104  -0.025
 1120TIP3    H2 3304   4.665   4.057   0.030
 1121TIP3   OH2 3305   4.340   3.326  -0.308
 1121TIP3    H1 3306   4.342   3.410  -0.357
 1121TIP3    H2 3307   4.254   3.332  -0.261
 1122TIP3   OH2 3308   4.876   3.800  -0.090
 1122TIP3    H1 3309   4.827   3.874  -0.049
 1122TIP3    H2 3310   4.856   3.728  -0.028
 1123TIP3   OH2 3311   5.033   4.371   0.413
 1123TIP3    H1 3312   5.071   4.448   0.365
 1123TIP3    H2 3313   5.112   4.341   0.462
 1124TIP3   OH2 3314   5.417   4.002   0.378
 1124TIP3    H1 3315   5.403   4.005   0.475
 1124TIP3    H2 3316   5.507   3.965   0.374
 1125TIP3   OH2 3317   5.660   4.553   0.422
 1125TIP3    H1 3318   5.576   4.503   0.412
 1125TIP3    H2 3319   5.649   4.621   0.354
 1126TIP3   OH2 3320   4.748   3.157   0.937
 1126TIP3    H1 3321   4.651   3.162   0.951
 1126TIP3    H2 3322   4.775   3.102   1.012
 1127TIP3   OH2 3323   4.464   4.241   0.574
 1127TIP3    H1 3324   4.521   4.171   0.609
 1127TIP3    H2 3325   4.494   4.317   0.625
 1128TIP3   OH2 3326   5.594   3.215   0.617
 1128TIP3    H1 3327   5.669   3.262   0.659
 1128TIP3    H2 3328   5.581   3.138   0.677
 1129TIP3   OH2 3329   5.157   3.137  -0.105
 1129TIP3    H1 3330   5.189   3.224  -0.131
 1129TIP3    H2 3331   5.173   3.136  -0.008
 1130TIP3   OH2 3332   5.425   3.469   0.698
 1130TIP3    H1 3333   5.448   3.526   0.775
 1130TIP3    H2 3334   5.482   3.392   0.713
 1131TIP3   OH2 3335   5.312   2.883   0.005
 1131TIP3    H1 3336   5.296   2.948   0.076
 1131TIP3    H2 3337   5.377   2.932  -0.047
 1132TIP3   OH2 3338   4.808   2.876  -0.222
 1132TIP3    H1 3339   4.796   2.953  -0.164
 1132TIP3    H2 3340   4.901   2.853  -0.197
 1133TIP3   OH2 3341   6.061   3.370   0.683
 1133TIP3    H1 3342   5.963   3.368   0.686
 1133TIP3    H2 3343   6.076   3.330   0.597
 1134TIP3   OH2 3344   5.714   3.567   0.109
 1134TIP3    H1 3345   5.638   3.507   0.121
 1134TIP3    H2 3346   5.786   3.515   0.150
 1135TIP3   OH2 3347   4.386   3.058  -0.330
 1135TIP3    H1 3348   4.369   3.155  -0.318
 1135TIP3    H2 3349   4.311   3.034  -0.388
 1136TIP3   OH2 3350   4.763   2.791   0.540
 1136TIP3    H1 3351   4.732   2.757   0.453
 1136TIP3    H2 3352   4.752   2.713   0.598
 1137TIP3   OH2 3353   4.263   3.988  -0.025
 1137TIP3    H1 3354   4.224   4.053   0.036
 1137TIP3    H2 3355   4.309   4.046  -0.087
 1138TIP3   OH2 3356   4.460   4.557   0.994
 1138TIP3    H1 3357   4.546   4.559   1.041
 1138TIP3    H2 3358   4.442   4.461   0.993
 1139TIP3   OH2 3359   4.934   4.511   1.041
 1139TIP3    H1 3360   5.030   4.501   1.045
 1139TIP3    H2 3361   4.912   4.451   0.968
 1140TIP3   OH2 3362   5.576   4.422   0.773
 1140TIP3    H1 3363   5.571   4.353   0.843
 1140TIP3    H2 3364   5.653   4.475   0.802
 1141TIP3   OH2 3365   4.588   3.959   1.194
 1141TIP3    H1 3366   4.603   3.863   1.201
 1141TIP3    H2 3367   4.500   3.962   1.149
 1142TIP3   OH2 3368   5.194   4.045   0.969
 1142TIP3    H1 3369   5.155   4.067   0.882
 1142TIP3    H2 3370   5.226   3.953   0.956
 1143TIP3   OH2 3371   5.685   4.052   0.572
 1143TIP3    H1 3372   5.763   4.098   0.535
 1143TIP3    H2 3373   5.618   4.123   0.561
 1144TIP3   OH2 3374   4.708   3.694   1.178
 1144TIP3    H1 3375   4.786   3.644   1.152
 1144TIP3    H2 3376   4.735   3.728   1.266
 1145TIP3   OH2 3377   5.043   3.575   0.836
 1145TIP3    H1 3378   4.965   3.635   0.837
 1145TIP3    H2 3379   5.094   3.611   0.759
 1146TIP3   OH2 3380   5.557   3.977   0.971
 1146TIP3    H1 3381   5.638   3.954   0.925
 1146TIP3    H2 3382   5.555   3.913   1.044
 1147TIP3   OH2 3383   5.167   3.367   0.962
 1147TIP3    H1 3384   5.167   3.288   0.903
 1147TIP3    H2 3385   5.123   3.434   0.905
 1148TIP3   OH2 3386   5.169   3.152   0.770
 1148TIP3    H1 3387   5.196   3.195   0.687
 1148TIP3    H2 3388   5.075   3.131   0.752
 1149TIP3   OH2 3389   5.193   3.685   0.641
 1149TIP3    H1 3390   5.279   3.705   0.604
 1149TIP3    H2 3391   5.136   3.753   0.598
 1150TIP3   OH2 3392   5.775   3.653   1.022
 1150TIP3    H1 3393   5.828   3.573   1.034
 1150TIP3    H2 3394   5.841   3.716   0.987
 1151TIP3   OH2 3395   5.816   3.905   0.756
 1151TIP3    H1 3396   5.758   3.960   0.699
 1151TIP3    H2 3397   5.904   3.929   0.719
 1152TIP3   OH2 3398   5.045   3.472   1.197
 1152TIP3    H1 3399   4.976   3.405   1.212
 1152TIP3    H2 3400   5.078   3.448   1.108
 1153TIP3   OH2 3401   5.299   2.914   0.841
 1153TIP3    H1 3402   5.250   2.996   0.817
 1153TIP3    H2 3403   5.230   2.845   0.830
 1154TIP3   OH2 3404   5.427   3.416   1.055
 1154TIP3    H1 3405   5.413   3.404   1.151
 1154TIP3    H2 3406   5.337   3.394   1.023
 1155TIP3   OH2 3407   5.662   3.364   0.908
 1155TIP3    H1 3408   5.589   3.369   0.972
 1155TIP3    H2 3409   5.737   3.338   0.964
 1156TIP3   OH2 3410   5.890   3.309   1.059
 1156TIP3    H1 3411   5.904   3.214   1.077
 1156TIP3    H2 3412   5.888   3.348   1.149
 1157TIP3   OH2 3413   4.882   3.253   1.250
 1157TIP3    H1 3414   4.887   3.162   1.217
 1157TIP3    H2 3415   4.919   3.243   1.340
 1158TIP3   OH2 3416   5.391   2.923   1.099
 1158TIP3    H1 3417   5.458   2.852   1.092
 1158TIP3    H2 3418   5.352   2.920   1.010
 1159TIP3   OH2 3419   5.460   3.139   1.257
 1159TIP3    H1 3420   5.438   3.068   1.192
 1159TIP3    H2 3421   5.382   3.198   1.250
 1160TIP3   OH2 3422   4.065   4.354  -0.005
 1160TIP3    H1 3423   4.003   4.294  -0.053
 1160TIP3    H2 3424   4.110   4.291   0.054
 1161TIP3   OH2 3425   4.225   4.202   0.165
 1161TIP3    H1 3426   4.205   4.138   0.236
 1161TIP3    H2 3427   4.265   4.273   0.219
 1162TIP3   OH2 3428   5.974   4.627   0.312
 1162TIP3    H1 3429   5.938   4.538   0.329
 1162TIP3    H2 3430   6.051   4.626   0.371
 1163TIP3   OH2 3431   6.015   4.308   0.830
 1163TIP3    H1 3432   5.943   4.320   0.895
 1163TIP3    H2 3433   6.058   4.396   0.832
 1164TIP3   OH2 3434   5.831   4.384   0.292
 1164TIP3    H1 3435   5.761   4.432   0.341
 1164TIP3    H2 3436   5.795   4.388   0.202
 1165TIP3   OH2 3437   4.398   3.620   0.546
 1165TIP3    H1 3438   4.394   3.588   0.454
 1165TIP3    H2 3439   4.495   3.621   0.561
 1166TIP3   OH2 3440   6.061   3.973   0.656
 1166TIP3    H1 3441   6.132   3.906   0.644
 1166TIP3    H2 3442   6.088   4.043   0.594
 1167TIP3   OH2 3443   6.240   3.771   0.669
 1167TIP3    H1 3444   6.168   3.720   0.712
 1167TIP3    H2 3445   6.315   3.710   0.683
 1168TIP3   OH2 3446   5.934   3.428   0.193
 1168TIP3    H1 3447   6.012   3.453   0.140
 1168TIP3    H2 3448   5.956   3.468   0.280
 1169TIP3   OH2 3449   5.991   3.570   0.423
 1169TIP3    H1 3450   5.913   3.601   0.473
 1169TIP3    H2 3451   6.028   3.656   0.392
 1170TIP3   OH2 3452   4.616   3.305   1.216
 1170TIP3    H1 3453   4.713   3.300   1.222
 1170TIP3    H2 3454   4.592   3.219   1.257
 1171TIP3   OH2 3455   6.450   3.170   0.974
 1171TIP3    H1 3456   6.512   3.108   0.930
 1171TIP3    H2 3457   6.417   3.223   0.899
 1172TIP3   OH2 3458   4.578   2.999   0.545
 1172TIP3    H1 3459   4.640   2.924   0.556
 1172TIP3    H2 3460   4.640   3.074   0.540
 1173TIP3   OH2 3461   4.379   3.271   0.622
 1173TIP3    H1 3462   4.429   3.270   0.538
 1173TIP3    H2 3463   4.404   3.356   0.659
 1174TIP3   OH2 3464   6.319   3.308   0.780
 1174TIP3    H1 3465   6.235   3.353   0.803
 1174TIP3    H2 3466   6.284   3.235   0.726
 1175TIP3   OH2 3467   4.365   2.774   0.130
 1175TIP3    H1 3468   4.271   2.769   0.155
 1175TIP3    H2 3469   4.361   2.832   0.051
 1176TIP3   OH2 3470   4.584   2.853   0.935
 1176TIP3    H1 3471   4.534   2.851   1.018
 1176TIP3    H2 3472   4.518   2.894   0.875
 1177TIP3   OH2 3473   4.622   4.285   1.011
 1177TIP3    H1 3474   4.529   4.259   0.998
 1177TIP3    H2 3475   4.634   4.269   1.105
 1178TIP3   OH2 3476   4.803   4.320   0.560
 1178TIP3    H1 3477   4.759   4.397   0.519
 1178TIP3    H2 3478   4.891   4.331   0.517
 1179TIP3   OH2 3479   5.241   4.558   0.701
 1179TIP3    H1 3480   5.284   4.559   0.789
 1179TIP3    H2 3481   5.302   4.616   0.650
 1180TIP3   OH2 3482   5.412   4.726   0.571
 1180TIP3    H1 3483   5.474   4.674   0.518
 1180TIP3    H2 3484   5.474   4.778   0.627
 1181TIP3   OH2 3485   6.219   3.072   0.663
 1181TIP3    H1 3486   6.128   3.063   0.629
 1181TIP3    H2 3487   6.252   2.979   0.654
 1182TIP3   OH2 3488   4.469   4.574   0.589
 1182TIP3    H1 3489   4.387   4.621   0.567
 1182TIP3    H2 3490   4.495   4.619   0.671
 1183TIP3   OH2 3491   4.710   4.552   0.448
 1183TIP3    H1 3492   4.623   4.566   0.490
 1183TIP3    H2 3493   4.694   4.588   0.358
 1184TIP3   OH2 3494   5.136   4.573   0.259
 1184TIP3    H1 3495   5.057   4.588   0.204
 1184TIP3    H2 3496   5.155   4.664   0.291
 1185TIP3   OH2 3497   5.398   4.524   0.336
 1185TIP3    H1 3498   5.303   4.529   0.311
 1185TIP3    H2 3499   5.436   4.583   0.271
 1186TIP3   OH2 3500   4.385   4.360   0.336
 1186TIP3    H1 3501   4.419   4.334   0.425
 1186TIP3    H2 3502   4.457   4.321   0.282
 1187TIP3   OH2 3503   4.583   4.234   0.196
 1187TIP3    H1 3504   4.598   4.153   0.250
 1187TIP3    H2 3505   4.671   4.278   0.205
 1188TIP3   OH2 3506   4.833   4.339   0.214
 1188TIP3    H1 3507   4.877   4.302   0.135
 1188TIP3    H2 3508   4.901   4.330   0.284
 1189TIP3   OH2 3509   5.422   2.984   0.271
 1189TIP3    H1 3510   5.383   2.914   0.328
 1189TIP3    H2 3511   5.500   2.939   0.233
 1190TIP3   OH2 3512   5.942   2.889   0.190
 1190TIP3    H1 3513   5.975   2.897   0.098
 1190TIP3    H2 3514   5.846   2.892   0.177
 1191TIP3   OH2 3515   4.673   2.696   0.293
 1191TIP3    H1 3516   4.581   2.665   0.295
 1191TIP3    H2 3517   4.721   2.611   0.288
 1192TIP3   OH2 3518   4.466   2.559  -0.049
 1192TIP3    H1 3519   4.502   2.613  -0.123
 1192TIP3    H2 3520   4.432   2.629   0.009
 1193TIP3   OH2 3521   5.118   2.727   0.181
 1193TIP3    H1 3522   5.178   2.776   0.123
 1193TIP3    H2 3523   5.141   2.763   0.268
 1194TIP3   OH2 3524   5.660   2.873   0.154
 1194TIP3    H1 3525   5.671   2.827   0.069
 1194TIP3    H2 3526   5.650   2.797   0.216
 1195TIP3   OH2 3527   4.583   2.704  -0.246
 1195TIP3    H1 3528   4.579   2.674  -0.338
 1195TIP3    H2 3529   4.660   2.764  -0.246
 1196TIP3   OH2 3530   5.066   2.874  -0.136
 1196TIP3    H1 3531   5.137   2.826  -0.092
 1196TIP3    H2 3532   5.109   2.962  -0.143
 1197TIP3   OH2 3533   4.881   2.978   1.182
 1197TIP3    H1 3534   4.844   2.909   1.240
 1197TIP3    H2 3535   4.975   2.977   1.212
 1198TIP3   OH2 3536   5.130   2.973   1.305
 1198TIP3    H1 3537   5.216   2.953   1.263
 1198TIP3    H2 3538   5.122   2.900   1.368
 1199TIP3   OH2 3539   5.957   3.038   1.098
 1199TIP3    H1 3540   5.986   3.007   1.187
 1199TIP3    H2 3541   6.043   3.041   1.050
 1200TIP3   OH2 3542   5.891   4.582   0.596
 1200TIP3    H1 3543   5.811   4.561   0.543
 1200TIP3    H2 3544   5.885   4.680   0.597
 1201TIP3   OH2 3545   6.723   3.294   0.256
 1201TIP3    H1 3546   6.674   3.306   0.172
 1201TIP3    H2 3547   6.662   3.337   0.319
 1202TIP3   OH2 3548   6.614   3.964   0.388
 1202TIP3    H1 3549   6.618   4.053   0.428
 1202TIP3    H2 3550   6.521   3.963   0.359
 1203TIP3   OH2 3551   6.213   4.105   0.287
 1203TIP3    H1 3552   6.265   4.150   0.216
 1203TIP3    H2 3553   6.272   4.033   0.313
 1204TIP3   OH2 3554   6.450   4.272   0.299
 1204TIP3    H1 3555   6.523   4.291   0.360
 1204TIP3    H2 3556   6.380   4.249   0.361
 1205TIP3   OH2 3557   7.330   3.253   0.259
 1205TIP3    H1 3558   7.400   3.195   0.290
 1205TIP3    H2 3559   7.250   3.211   0.297
 1206TIP3   OH2 3560   7.299   3.907   0.397
 1206TIP3    H1 3561   7.274   3.822   0.440
 1206TIP3    H2 3562   7.396   3.896   0.400
 1207TIP3   OH2 3563   6.567   3.673   0.297
 1207TIP3    H1 3564   6.576   3.749   0.356
 1207TIP3    H2 3565   6.559   3.598   0.359
 1208TIP3   OH2 3566   6.605   4.204   0.527
 1208TIP3    H1 3567   6.680   4.251   0.569
 1208TIP3    H2 3568   6.532   4.232   0.585
 1209TIP3   OH2 3569   6.339   3.905   0.433
 1209TIP3    H1 3570   6.364   3.893   0.527
 1209TIP3    H2 3571   6.260   3.849   0.427
 1210TIP3   OH2 3572   7.057   4.025   0.453
 1210TIP3    H1 3573   6.993   3.957   0.425
 1210TIP3    H2 3574   7.142   3.983   0.429
 1211TIP3   OH2 3575   6.541   3.422   0.436
 1211TIP3    H1 3576   6.445   3.424   0.449
 1211TIP3    H2 3577   6.571   3.365   0.508
 1212TIP3   OH2 3578   6.230   4.778   0.509
 1212TIP3    H1 3579   6.323   4.800   0.531
 1212TIP3    H2 3580   6.234   4.684   0.490
 1213TIP3   OH2 3581   6.725   4.759   0.559
 1213TIP3    H1 3582   6.810   4.737   0.599
 1213TIP3    H2 3583   6.716   4.688   0.493
 1214TIP3   OH2 3584   6.379   4.206   0.697
 1214TIP3    H1 3585   6.391   4.110   0.687
 1214TIP3    H2 3586   6.297   4.221   0.646
 1215TIP3   OH2 3587   6.987   4.304   0.451
 1215TIP3    H1 3588   6.955   4.307   0.360
 1215TIP3    H2 3589   7.024   4.213   0.456
 1216TIP3   OH2 3590   6.501   3.932   0.675
 1216TIP3    H1 3591   6.587   3.912   0.634
 1216TIP3    H2 3592   6.529   3.978   0.757
 1217TIP3   OH2 3593   6.862   3.863   0.348
 1217TIP3    H1 3594   6.774   3.896   0.378
 1217TIP3    H2 3595   6.866   3.906   0.261
 1218TIP3   OH2 3596   7.293   4.220   0.483
 1218TIP3    H1 3597   7.368   4.281   0.481
 1218TIP3    H2 3598   7.313   4.163   0.560
 1219TIP3   OH2 3599   6.953   3.619   0.462
 1219TIP3    H1 3600   6.963   3.538   0.407
 1219TIP3    H2 3601   6.931   3.688   0.396
 1220TIP3   OH2 3602   6.973   3.400   0.293
 1220TIP3    H1 3603   7.008   3.443   0.212
 1220TIP3    H2 3604   6.885   3.368   0.265
 1221TIP3   OH2 3605   7.566   3.891   0.556
 1221TIP3    H1 3606   7.584   3.821   0.491
 1221TIP3    H2 3607   7.641   3.952   0.537
 1222TIP3   OH2 3608   6.837   3.731   0.686
 1222TIP3    H1 3609   6.768   3.665   0.702
 1222TIP3    H2 3610   6.873   3.701   0.600
 1223TIP3   OH2 3611   7.085   3.153   0.343
 1223TIP3    H1 3612   7.040   3.238   0.325
 1223TIP3    H2 3613   7.018   3.088   0.317
 1224TIP3   OH2 3614   7.212   3.687   0.540
 1224TIP3    H1 3615   7.213   3.672   0.636
 1224TIP3    H2 3616   7.123   3.652   0.518
 1225TIP3   OH2 3617   7.463   3.654   0.407
 1225TIP3    H1 3618   7.383   3.630   0.455
 1225TIP3    H2 3619   7.531   3.598   0.449
 1226TIP3   OH2 3620   7.655   3.529   0.563
 1226TIP3    H1 3621   7.715   3.456   0.584
 1226TIP3    H2 3622   7.672   3.590   0.636
 1227TIP3   OH2 3623   6.675   3.511   0.740
 1227TIP3    H1 3624   6.686   3.422   0.703
 1227TIP3    H2 3625   6.715   3.499   0.829
 1228TIP3   OH2 3626   7.183   3.175   0.597
 1228TIP3    H1 3627   7.252   3.107   0.586
 1228TIP3    H2 3628   7.143   3.171   0.507
 1229TIP3   OH2 3629   7.256   3.396   0.746
 1229TIP3    H1 3630   7.235   3.325   0.681
 1229TIP3    H2 3631   7.179   3.456   0.737
 1230TIP3   OH2 3632   6.408   3.556   0.694
 1230TIP3    H1 3633   6.506   3.557   0.703
 1230TIP3    H2 3634   6.387   3.472   0.740
 1231TIP3   OH2 3635   6.380   3.114   0.435
 1231TIP3    H1 3636   6.335   3.108   0.521
 1231TIP3    H2 3637   6.306   3.138   0.377
 1232TIP3   OH2 3638   6.422   4.476   0.545
 1232TIP3    H1 3639   6.336   4.487   0.502
 1232TIP3    H2 3640   6.430   4.557   0.597
 1233TIP3   OH2 3641   6.677   3.232   0.668
 1233TIP3    H1 3642   6.643   3.165   0.730
 1233TIP3    H2 3643   6.771   3.233   0.695
 1234TIP3   OH2 3644   6.927   3.232   0.788
 1234TIP3    H1 3645   7.013   3.215   0.745
 1234TIP3    H2 3646   6.923   3.159   0.853
 1235TIP3   OH2 3647   0.427   4.294   1.471
 1235TIP3    H1 3648   0.455   4.377   1.515
 1235TIP3    H2 3649   0.446   4.314   1.378
 1236TIP3   OH2 3650  -0.116   4.485   1.495
 1236TIP3    H1 3651  -0.093   4.391   1.512
 1236TIP3    H2 3652  -0.046   4.510   1.434
 1237TIP3   OH2 3653   0.498   4.501   1.645
 1237TIP3    H1 3654   0.418   4.552   1.621
 1237TIP3    H2 3655   0.530   4.549   1.723
 1238TIP3   OH2 3656   0.061   4.230   1.258
 1238TIP3    H1 3657   0.092   4.185   1.338
 1238TIP3    H2 3658   0.095   4.320   1.274
 1239TIP3   OH2 3659   0.217   4.191   1.624
 1239TIP3    H1 3660   0.138   4.239   1.597
 1239TIP3    H2 3661   0.285   4.226   1.562
 1240TIP3   OH2 3662   0.135   5.222   1.599
 1240TIP3    H1 3663   0.198   5.167   1.551
 1240TIP3    H2 3664   0.177   5.311   1.587
 1241TIP3   OH2 3665   0.357   4.833   1.472
 1241TIP3    H1 3666   0.277   4.890   1.471
 1241TIP3    H2 3667   0.392   4.854   1.383
 1242TIP3   OH2 3668   0.050   4.725   1.770
 1242TIP3    H1 3669   0.047   4.816   1.806
 1242TIP3    H2 3670  -0.041   4.721   1.732
 1243TIP3   OH2 3671   0.294   5.434   1.581
 1243TIP3    H1 3672   0.383   5.470   1.600
 1243TIP3    H2 3673   0.245   5.477   1.655
 1244TIP3   OH2 3674   0.279   4.681   1.940
 1244TIP3    H1 3675   0.199   4.695   1.886
 1244TIP3    H2 3676   0.293   4.585   1.930
 1245TIP3   OH2 3677  -0.182   4.031   1.936
 1245TIP3    H1 3678  -0.122   4.000   2.006
 1245TIP3    H2 3679  -0.269   3.997   1.965
 1246TIP3   OH2 3680   0.045   4.456   1.852
 1246TIP3    H1 3681  -0.000   4.456   1.939
 1246TIP3    H2 3682   0.033   4.549   1.824
 1247TIP3   OH2 3683  -0.218   4.685   2.100
 1247TIP3    H1 3684  -0.246   4.611   2.157
 1247TIP3    H2 3685  -0.122   4.691   2.122
 1248TIP3   OH2 3686  -0.201   4.675   1.677
 1248TIP3    H1 3687  -0.180   4.593   1.628
 1248TIP3    H2 3688  -0.257   4.640   1.750
 1249TIP3   OH2 3689  -0.100   4.212   1.540
 1249TIP3    H1 3690  -0.121   4.236   1.633
 1249TIP3    H2 3691  -0.166   4.144   1.525
 1250TIP3   OH2 3692  -0.473   4.346   1.799
 1250TIP3    H1 3693  -0.492   4.420   1.736
 1250TIP3    H2 3694  -0.387   4.377   1.831
 1251TIP3   OH2 3695   0.139   4.995   1.445
 1251TIP3    H1 3696   0.137   5.071   1.384
 1251TIP3    H2 3697   0.072   5.019   1.511
 1252TIP3   OH2 3698  -0.448   4.790   2.197
 1252TIP3    H1 3699  -0.502   4.754   2.126
 1252TIP3    H2 3700  -0.358   4.778   2.159
 1253TIP3   OH2 3701   0.409   5.217   1.720
 1253TIP3    H1 3702   0.337   5.282   1.724
 1253TIP3    H2 3703   0.424   5.211   1.623
 1254TIP3   OH2 3704  -0.157   4.264   1.796
 1254TIP3    H1 3705  -0.082   4.309   1.838
 1254TIP3    H2 3706  -0.170   4.185   1.853
 1255TIP3   OH2 3707  -0.284   4.527   1.892
 1255TIP3    H1 3708  -0.275   4.597   1.960
 1255TIP3    H2 3709  -0.228   4.458   1.930
 1256TIP3   OH2 3710   0.312   4.416   1.862
 1256TIP3    H1 3711   0.215   4.408   1.857
 1256TIP3    H2 3712   0.337   4.401   1.769
 1257TIP3   OH2 3713  -0.183   5.545   2.082
 1257TIP3    H1 3714  -0.157   5.452   2.092
 1257TIP3    H2 3715  -0.101   5.586   2.049
 1258TIP3   OH2 3716  -0.024   5.049   1.730
 1258TIP3    H1 3717   0.030   5.126   1.703
 1258TIP3    H2 3718  -0.114   5.084   1.716
 1259TIP3   OH2 3719  -0.190   5.009   2.162
 1259TIP3    H1 3720  -0.118   4.981   2.103
 1259TIP3    H2 3721  -0.186   4.941   2.233
 1260TIP3   OH2 3722  -0.611   4.139   1.894
 1260TIP3    H1 3723  -0.552   4.209   1.865
 1260TIP3    H2 3724  -0.679   4.187   1.943
 1261TIP3   OH2 3725   0.036   4.695   2.201
 1261TIP3    H1 3726   0.090   4.616   2.217
 1261TIP3    H2 3727   0.099   4.754   2.157
 1262TIP3   OH2 3728   0.070   4.946   1.959
 1262TIP3    H1 3729   0.019   4.993   1.889
 1262TIP3    H2 3730   0.160   4.959   1.921
 1263TIP3   OH2 3731  -0.443   3.951   2.014
 1263TIP3    H1 3732  -0.496   4.024   1.975
 1263TIP3    H2 3733  -0.513   3.883   2.019
 1264TIP3   OH2 3734  -0.314   4.466   2.238
 1264TIP3    H1 3735  -0.287   4.461   2.332
 1264TIP3    H2 3736  -0.401   4.424   2.241
 1265TIP3   OH2 3737  -0.088   4.407   2.083
 1265TIP3    H1 3738  -0.159   4.410   2.149
 1265TIP3    H2 3739  -0.010   4.381   2.138
 1266TIP3   OH2 3740   0.138   4.354   2.236
 1266TIP3    H1 3741   0.153   4.258   2.254
 1266TIP3    H2 3742   0.135   4.392   2.326
 1267TIP3   OH2 3743  -0.351   3.970   2.273
 1267TIP3    H1 3744  -0.283   3.901   2.261
 1267TIP3    H2 3745  -0.396   3.968   2.186
 1268TIP3   OH2 3746  -0.275   4.182   2.422
 1268TIP3    H1 3747  -0.296   4.103   2.367
 1268TIP3    H2 3748  -0.363   4.227   2.423
 1269TIP3   OH2 3749   0.271   5.349   2.004
 1269TIP3    H1 3750   0.197   5.363   2.067
 1269TIP3    H2 3751   0.312   5.437   2.004
 1270TIP3   OH2 3752   0.304   5.001   1.836
 1270TIP3    H1 3753   0.379   4.939   1.823
 1270TIP3    H2 3754   0.334   5.078   1.785
 1271TIP3   OH2 3755   0.495   4.814   1.841
 1271TIP3    H1 3756   0.422   4.765   1.885
 1271TIP3    H2 3757   0.569   4.752   1.857
 1272TIP3   OH2 3758   0.173   4.462   1.373
 1272TIP3    H1 3759   0.251   4.492   1.322
 1272TIP3    H2 3760   0.192   4.511   1.456
 1273TIP3   OH2 3761   0.247   4.617   1.595
 1273TIP3    H1 3762   0.178   4.659   1.649
 1273TIP3    H2 3763   0.286   4.695   1.550
 1274TIP3   OH2 3764   0.697   4.216   2.151
 1274TIP3    H1 3765   0.760   4.153   2.109
 1274TIP3    H2 3766   0.669   4.270   2.074
 1275TIP3   OH2 3767   0.569   4.356   1.957
 1275TIP3    H1 3768   0.484   4.399   1.979
 1275TIP3    H2 3769   0.536   4.284   1.899
 1276TIP3   OH2 3770   0.473   4.123   1.836
 1276TIP3    H1 3771   0.382   4.113   1.803
 1276TIP3    H2 3772   0.508   4.032   1.825
 1277TIP3   OH2 3773   0.338   4.018   1.163
 1277TIP3    H1 3774   0.310   3.999   1.072
 1277TIP3    H2 3775   0.361   4.112   1.153
 1278TIP3   OH2 3776   0.205   4.083   2.267
 1278TIP3    H1 3777   0.223   4.053   2.358
 1278TIP3    H2 3778   0.295   4.080   2.227
 1279TIP3   OH2 3779   0.119   5.548   1.753
 1279TIP3    H1 3780   0.025   5.574   1.747
 1279TIP3    H2 3781   0.164   5.634   1.760
 1280TIP3   OH2 3782   1.409   4.992   0.533
 1280TIP3    H1 3783   1.385   5.084   0.509
 1280TIP3    H2 3784   1.331   4.946   0.499
 1281TIP3   OH2 3785   1.412   5.007   0.911
 1281TIP3    H1 3786   1.446   4.982   0.999
 1281TIP3    H2 3787   1.368   4.924   0.883
 1282TIP3   OH2 3788   0.717   4.904   1.274
 1282TIP3    H1 3789   0.749   4.836   1.336
 1282TIP3    H2 3790   0.796   4.959   1.262
 1283TIP3   OH2 3791   1.653   5.310   0.594
 1283TIP3    H1 3792   1.641   5.241   0.661
 1283TIP3    H2 3793   1.683   5.386   0.648
 1284TIP3   OH2 3794   0.696   5.295   1.070
 1284TIP3    H1 3795   0.691   5.198   1.058
 1284TIP3    H2 3796   0.790   5.307   1.050
 1285TIP3   OH2 3797   0.555   4.802   0.934
 1285TIP3    H1 3798   0.563   4.726   0.994
 1285TIP3    H2 3799   0.518   4.762   0.855
 1286TIP3   OH2 3800   1.349   5.742   0.667
 1286TIP3    H1 3801   1.423   5.706   0.614
 1286TIP3    H2 3802   1.362   5.694   0.750
 1287TIP3   OH2 3803   1.220   5.229   0.957
 1287TIP3    H1 3804   1.263   5.151   0.918
 1287TIP3    H2 3805   1.300   5.279   0.981
 1288TIP3   OH2 3806   2.224   4.553   0.954
 1288TIP3    H1 3807   2.253   4.637   0.996
 1288TIP3    H2 3808   2.244   4.570   0.860
 1289TIP3   OH2 3809   1.622   4.734   0.985
 1289TIP3    H1 3810   1.663   4.648   1.006
 1289TIP3    H2 3811   1.588   4.716   0.895
 1290TIP3   OH2 3812   0.972   4.396   0.957
 1290TIP3    H1 3813   0.947   4.469   0.896
 1290TIP3    H2 3814   0.927   4.321   0.913
 1291TIP3   OH2 3815   1.654   4.488   0.572
 1291TIP3    H1 3816   1.725   4.471   0.638
 1291TIP3    H2 3817   1.708   4.520   0.498
 1292TIP3   OH2 3818   0.591   4.577   1.082
 1292TIP3    H1 3819   0.679   4.569   1.125
 1292TIP3    H2 3820   0.605   4.518   1.005
 1293TIP3   OH2 3821   1.036   4.802   0.848
 1293TIP3    H1 3822   1.129   4.775   0.866
 1293TIP3    H2 3823   0.995   4.716   0.824
 1294TIP3   OH2 3824   2.297   4.764   1.122
 1294TIP3    H1 3825   2.212   4.808   1.103
 1294TIP3    H2 3826   2.309   4.787   1.215
 1295TIP3   OH2 3827   0.956   4.374   1.391
 1295TIP3    H1 3828   0.899   4.413   1.321
 1295TIP3    H2 3829   0.902   4.395   1.470
 1296TIP3   OH2 3830   1.315   5.206   0.394
 1296TIP3    H1 3831   1.286   5.187   0.305
 1296TIP3    H2 3832   1.311   5.303   0.399
 1297TIP3   OH2 3833   1.066   5.152   1.182
 1297TIP3    H1 3834   1.004   5.219   1.220
 1297TIP3    H2 3835   1.098   5.198   1.103
 1298TIP3   OH2 3836   1.860   4.491   0.749
 1298TIP3    H1 3837   1.845   4.444   0.832
 1298TIP3    H2 3838   1.911   4.568   0.778
 1299TIP3   OH2 3839   0.833   4.488   1.175
 1299TIP3    H1 3840   0.894   4.562   1.198
 1299TIP3    H2 3841   0.883   4.450   1.098
 1300TIP3   OH2 3842   0.900   5.343   1.290
 1300TIP3    H1 3843   0.872   5.428   1.250
 1300TIP3    H2 3844   0.818   5.322   1.340
 1301TIP3   OH2 3845   1.718   5.549   0.756
 1301TIP3    H1 3846   1.628   5.543   0.795
 1301TIP3    H2 3847   1.712   5.636   0.711
 1302TIP3   OH2 3848   2.015   4.454   1.120
 1302TIP3    H1 3849   1.928   4.479   1.087
 1302TIP3    H2 3850   2.075   4.485   1.049
 1303TIP3   OH2 3851   1.307   4.093   1.100
 1303TIP3    H1 3852   1.292   3.999   1.121
 1303TIP3    H2 3853   1.231   4.133   1.148
 1304TIP3   OH2 3854   1.517   5.630   0.480
 1304TIP3    H1 3855   1.558   5.551   0.440
 1304TIP3    H2 3856   1.532   5.698   0.413
 1305TIP3   OH2 3857   1.563   5.395   0.348
 1305TIP3    H1 3858   1.575   5.324   0.281
 1305TIP3    H2 3859   1.591   5.347   0.429
 1306TIP3   OH2 3860   1.949   5.465   1.099
 1306TIP3    H1 3861   1.935   5.387   1.041
 1306TIP3    H2 3862   1.930   5.539   1.038
 1307TIP3   OH2 3863   1.238   4.853   0.339
 1307TIP3    H1 3864   1.157   4.899   0.310
 1307TIP3    H2 3865   1.295   4.877   0.264
 1308TIP3   OH2 3866   1.146   4.590   0.193
 1308TIP3    H1 3867   1.203   4.647   0.247
 1308TIP3    H2 3868   1.211   4.551   0.131
 1309TIP3   OH2 3869   2.144   5.106   0.946
 1309TIP3    H1 3870   2.059   5.155   0.950
 1309TIP3    H2 3871   2.173   5.129   0.855
 1310TIP3   OH2 3872   1.599   4.947   0.343
 1310TIP3    H1 3873   1.544   4.967   0.423
 1310TIP3    H2 3874   1.684   4.921   0.385
 1311TIP3   OH2 3875   1.822   4.980   1.244
 1311TIP3    H1 3876   1.819   5.063   1.295
 1311TIP3    H2 3877   1.735   4.983   1.198
 1312TIP3   OH2 3878   0.803   4.920   0.754
 1312TIP3    H1 3879   0.796   4.873   0.670
 1312TIP3    H2 3880   0.889   4.889   0.787
 1313TIP3   OH2 3881   0.940   5.292   0.936
 1313TIP3    H1 3882   0.926   5.352   0.860
 1313TIP3    H2 3883   1.037   5.282   0.934
 1314TIP3   OH2 3884   0.971   4.906   1.104
 1314TIP3    H1 3885   0.990   4.892   1.009
 1314TIP3    H2 3886   1.001   4.998   1.118
 1315TIP3   OH2 3887   1.474   5.554   0.876
 1315TIP3    H1 3888   1.475   5.628   0.939
 1315TIP3    H2 3889   1.464   5.476   0.935
 1316TIP3   OH2 3890   1.100   5.468   1.427
 1316TIP3    H1 3891   1.039   5.532   1.468
 1316TIP3    H2 3892   1.036   5.414   1.376
 1317TIP3   OH2 3893   1.456   4.827   0.147
 1317TIP3    H1 3894   1.505   4.867   0.223
 1317TIP3    H2 3895   1.454   4.902   0.086
 1318TIP3   OH2 3896   0.854   5.019   1.531
 1318TIP3    H1 3897   0.858   5.109   1.571
 1318TIP3    H2 3898   0.758   5.000   1.542
 1319TIP3   OH2 3899   0.898   5.643   1.506
 1319TIP3    H1 3900   0.863   5.636   1.415
 1319TIP3    H2 3901   0.825   5.604   1.559
 1320TIP3   OH2 3902   1.947   4.043   0.202
 1320TIP3    H1 3903   1.864   4.059   0.252
 1320TIP3    H2 3904   1.955   4.126   0.151
 1321TIP3   OH2 3905   0.465   5.155   1.459
 1321TIP3    H1 3906   0.449   5.130   1.367
 1321TIP3    H2 3907   0.514   5.077   1.493
 1322TIP3   OH2 3908   2.186   5.813   1.147
 1322TIP3    H1 3909   2.185   5.717   1.161
 1322TIP3    H2 3910   2.102   5.838   1.193
 1323TIP3   OH2 3911   1.297   5.593   1.285
 1323TIP3    H1 3912   1.291   5.686   1.315
 1323TIP3    H2 3913   1.222   5.553   1.334
 1324TIP3   OH2 3914   2.076   4.941   1.421
 1324TIP3    H1 3915   1.991   4.951   1.374
 1324TIP3    H2 3916   2.092   4.845   1.411
 1325TIP3   OH2 3917   0.678   5.337   1.451
 1325TIP3    H1 3918   0.723   5.331   1.537
 1325TIP3    H2 3919   0.599   5.281   1.463
 1326TIP3   OH2 3920   1.072   4.171   1.233
 1326TIP3    H1 3921   0.984   4.144   1.202
 1326TIP3    H2 3922   1.047   4.253   1.282
 1327TIP3   OH2 3923   1.607   4.286   1.426
 1327TIP3    H1 3924   1.676   4.258   1.489
 1327TIP3    H2 3925   1.524   4.267   1.474
 1328TIP3   OH2 3926   1.843   4.718   1.345
 1328TIP3    H1 3927   1.792   4.714   1.429
 1328TIP3    H2 3928   1.818   4.804   1.309
 1329TIP3   OH2 3929   1.223   4.277   0.211
 1329TIP3    H1 3930   1.208   4.238   0.299
 1329TIP3    H2 3931   1.190   4.205   0.153
 1330TIP3   OH2 3932   1.006   4.686   1.252
 1330TIP3    H1 3933   0.954   4.710   1.332
 1330TIP3    H2 3934   0.994   4.767   1.197
 1331TIP3   OH2 3935   0.889   4.579   0.775
 1331TIP3    H1 3936   0.795   4.561   0.791
 1331TIP3    H2 3937   0.899   4.548   0.682
 1332TIP3   OH2 3938   1.374   4.662   0.490
 1332TIP3    H1 3939   1.326   4.733   0.444
 1332TIP3    H2 3940   1.433   4.629   0.419
 1333TIP3   OH2 3941   1.552   4.935   1.575
 1333TIP3    H1 3942   1.530   4.863   1.638
 1333TIP3    H2 3943   1.646   4.950   1.598
 1334TIP3   OH2 3944   1.533   4.686   0.728
 1334TIP3    H1 3945   1.471   4.715   0.659
 1334TIP3    H2 3946   1.569   4.606   0.683
 1335TIP3   OH2 3947   0.824   4.717   1.458
 1335TIP3    H1 3948   0.850   4.783   1.524
 1335TIP3    H2 3949   0.814   4.636   1.512
 1336TIP3   OH2 3950   0.419   4.255   1.052
 1336TIP3    H1 3951   0.488   4.282   1.117
 1336TIP3    H2 3952   0.471   4.255   0.970
 1337TIP3   OH2 3953   1.546   4.933   1.150
 1337TIP3    H1 3954   1.579   4.860   1.091
 1337TIP3    H2 3955   1.514   4.879   1.226
 1338TIP3   OH2 3956   1.222   4.399   0.826
 1338TIP3    H1 3957   1.140   4.396   0.879
 1338TIP3    H2 3958   1.291   4.390   0.894
 1339TIP3   OH2 3959   0.659   4.430   0.865
 1339TIP3    H1 3960   0.598   4.448   0.791
 1339TIP3    H2 3961   0.710   4.352   0.834
 1340TIP3   OH2 3962   0.931   4.488   0.523
 1340TIP3    H1 3963   1.027   4.473   0.530
 1340TIP3    H2 3964   0.916   4.462   0.429
 1341TIP3   OH2 3965   1.707   4.472   1.026
 1341TIP3    H1 3966   1.676   4.485   1.118
 1341TIP3    H2 3967   1.639   4.411   0.992
 1342TIP3   OH2 3968   1.880   6.161   1.247
 1342TIP3    H1 3969   1.878   6.183   1.152
 1342TIP3    H2 3970   1.960   6.208   1.277
 1343TIP3   OH2 3971   0.839   5.264   1.670
 1343TIP3    H1 3972   0.917   5.299   1.717
 1343TIP3    H2 3973   0.771   5.273   1.739
 1344TIP3   OH2 3974   1.297   4.727   0.923
 1344TIP3    H1 3975   1.369   4.684   0.874
 1344TIP3    H2 3976   1.301   4.682   1.009
 1345TIP3   OH2 3977   0.831   4.216   0.813
 1345TIP3    H1 3978   0.791   4.137   0.856
 1345TIP3    H2 3979   0.862   4.176   0.730
 1346TIP3   OH2 3980   1.274   4.625   1.210
 1346TIP3    H1 3981   1.184   4.659   1.225
 1346TIP3    H2 3982   1.330   4.687   1.260
 1347TIP3   OH2 3983   1.909   5.248   0.933
 1347TIP3    H1 3984   1.932   5.299   0.852
 1347TIP3    H2 3985   1.824   5.205   0.907
 1348TIP3   OH2 3986   1.491   4.327   0.168
 1348TIP3    H1 3987   1.395   4.311   0.166
 1348TIP3    H2 3988   1.495   4.423   0.182
 1349TIP3   OH2 3989   1.415   5.334   1.301
 1349TIP3    H1 3990   1.434   5.310   1.393
 1349TIP3    H2 3991   1.370   5.420   1.310
 1350TIP3   OH2 3992   1.536   4.583   0.275
 1350TIP3    H1 3993   1.632   4.580   0.291
 1350TIP3    H2 3994   1.527   4.660   0.216
 1351TIP3   OH2 3995   0.710   5.041   0.987
 1351TIP3    H1 3996   0.742   5.005   0.901
 1351TIP3    H2 3997   0.703   4.960   1.038
 1352TIP3   OH2 3998   0.591   4.952   1.595
 1352TIP3    H1 3999   0.608   4.943   1.691
 1352TIP3    H2 4000   0.519   4.887   1.582
 1353TIP3   OH2 4001   1.311   5.070   1.615
 1353TIP3    H1 4002   1.250   5.012   1.568
 1353TIP3    H2 4003   1.398   5.034   1.585
 1354TIP3   OH2 4004   1.569   5.595   1.197
 1354TIP3    H1 4005   1.474   5.587   1.214
 1354TIP3    H2 4006   1.598   5.644   1.276
 1355TIP3   OH2 4007   1.979   4.663   0.113
 1355TIP3    H1 4008   1.919   4.621   0.047
 1355TIP3    H2 4009   1.979   4.753   0.074
 1356TIP3   OH2 4010   2.199   5.523   1.187
 1356TIP3    H1 4011   2.101   5.516   1.180
 1356TIP3    H2 4012   2.225   5.492   1.098
 1357TIP3   OH2 4013   1.676   5.112   0.847
 1357TIP3    H1 4014   1.582   5.086   0.863
 1357TIP3    H2 4015   1.709   5.030   0.805
 1358TIP3   OH2 4016   1.074   5.696   1.109
 1358TIP3    H1 4017   1.084   5.713   1.015
 1358TIP3    H2 4018   1.159   5.657   1.133
 1359TIP3   OH2 4019   1.469   5.320   1.035
 1359TIP3    H1 4020   1.453   5.319   1.132
 1359TIP3    H2 4021   1.546   5.262   1.028
 1360TIP3   OH2 4022   1.714   5.846   1.088
 1360TIP3    H1 4023   1.633   5.791   1.084
 1360TIP3    H2 4024   1.696   5.909   1.016
 1361TIP3   OH2 4025   0.794   4.458   1.603
 1361TIP3    H1 4026   0.698   4.460   1.618
 1361TIP3    H2 4027   0.825   4.404   1.677
 1362TIP3   OH2 4028   1.625   5.179   0.188
 1362TIP3    H1 4029   1.606   5.099   0.240
 1362TIP3    H2 4030   1.711   5.156   0.149
 1363TIP3   OH2 4031   0.563   5.532   1.294
 1363TIP3    H1 4032   0.563   5.451   1.242
 1363TIP3    H2 4033   0.617   5.503   1.369
 1364TIP3   OH2 4034   1.636   4.522   1.286
 1364TIP3    H1 4035   1.715   4.561   1.327
 1364TIP3    H2 4036   1.621   4.442   1.340
 1365TIP3   OH2 4037   1.508   4.277   0.451
 1365TIP3    H1 4038   1.499   4.296   0.356
 1365TIP3    H2 4039   1.550   4.359   0.485
 1366TIP3   OH2 4040   1.201   4.456   0.559
 1366TIP3    H1 4041   1.265   4.528   0.539
 1366TIP3    H2 4042   1.212   4.448   0.657
 1367TIP3   OH2 4043   1.472   4.772   1.357
 1367TIP3    H1 4044   1.494   4.825   1.437
 1367TIP3    H2 4045   1.524   4.691   1.371
 1368TIP3   OH2 4046   1.357   4.178   0.664
 1368TIP3    H1 4047   1.352   4.257   0.722
 1368TIP3    H2 4048   1.416   4.213   0.592
 1369TIP3   OH2 4049   0.908   4.161   0.376
 1369TIP3    H1 4050   0.876   4.247   0.404
 1369TIP3    H2 4051   1.000   4.161   0.410
 1370TIP3   OH2 4052   2.110   4.673   1.339
 1370TIP3    H1 4053   2.012   4.674   1.350
 1370TIP3    H2 4054   2.117   4.624   1.257
 1371TIP3   OH2 4055   1.761   4.867   0.730
 1371TIP3    H1 4056   1.684   4.808   0.743
 1371TIP3    H2 4057   1.831   4.819   0.779
 1372TIP3   OH2 4058   1.740   5.816   0.685
 1372TIP3    H1 4059   1.706   5.870   0.610
 1372TIP3    H2 4060   1.836   5.831   0.669
 1373TIP3   OH2 4061   0.805   4.096   1.203
 1373TIP3    H1 4062   0.775   4.059   1.118
 1373TIP3    H2 4063   0.802   4.019   1.263
 1374TIP3   OH2 4064   0.533   5.890   1.615
 1374TIP3    H1 4065   0.606   5.898   1.681
 1374TIP3    H2 4066   0.495   5.804   1.647
 1375TIP3   OH2 4067   0.987   5.810   1.706
 1375TIP3    H1 4068   1.080   5.787   1.709
 1375TIP3    H2 4069   0.957   5.753   1.631
 1376TIP3   OH2 4070   1.623   5.723   1.434
 1376TIP3    H1 4071   1.615   5.654   1.504
 1376TIP3    H2 4072   1.700   5.775   1.467
 1377TIP3   OH2 4073   0.639   5.255   1.861
 1377TIP3    H1 4074   0.655   5.160   1.863
 1377TIP3    H2 4075   0.550   5.257   1.819
 1378TIP3   OH2 4076   1.241   5.347   1.631
 1378TIP3    H1 4077   1.198   5.368   1.546
 1378TIP3    H2 4078   1.270   5.254   1.619
 1379TIP3   OH2 4079   1.733   5.355   1.239
 1379TIP3    H1 4080   1.807   5.401   1.195
 1379TIP3    H2 4081   1.660   5.418   1.224
 1380TIP3   OH2 4082   0.753   4.989   1.843
 1380TIP3    H1 4083   0.835   4.948   1.814
 1380TIP3    H2 4084   0.780   5.026   1.930
 1381TIP3   OH2 4085   1.088   4.877   1.502
 1381TIP3    H1 4086   1.010   4.936   1.503
 1381TIP3    H2 4087   1.139   4.913   1.425
 1382TIP3   OH2 4088   1.605   5.281   1.635
 1382TIP3    H1 4089   1.682   5.249   1.587
 1382TIP3    H2 4090   1.598   5.216   1.707
 1383TIP3   OH2 4091   1.211   4.668   1.626
 1383TIP3    H1 4092   1.211   4.589   1.567
 1383TIP3    H2 4093   1.167   4.735   1.569
 1384TIP3   OH2 4094   1.214   4.454   1.435
 1384TIP3    H1 4095   1.241   4.496   1.351
 1384TIP3    H2 4096   1.120   4.431   1.417
 1385TIP3   OH2 4097   1.240   4.989   1.312
 1385TIP3    H1 4098   1.322   5.001   1.264
 1385TIP3    H2 4099   1.180   5.052   1.264
 1386TIP3   OH2 4100   1.819   4.953   1.686
 1386TIP3    H1 4101   1.867   4.871   1.702
 1386TIP3    H2 4102   1.888   5.011   1.651
 1387TIP3   OH2 4103   1.862   5.208   1.425
 1387TIP3    H1 4104   1.804   5.263   1.366
 1387TIP3    H2 4105   1.950   5.230   1.385
 1388TIP3   OH2 4106   1.089   4.774   1.860
 1388TIP3    H1 4107   1.021   4.706   1.875
 1388TIP3    H2 4108   1.122   4.749   1.771
 1389TIP3   OH2 4109   1.345   4.216   1.504
 1389TIP3    H1 4110   1.295   4.297   1.481
 1389TIP3    H2 4111   1.276   4.147   1.493
 1390TIP3   OH2 4112   1.471   4.718   1.719
 1390TIP3    H1 4113   1.457   4.704   1.814
 1390TIP3    H2 4114   1.381   4.695   1.686
 1391TIP3   OH2 4115   1.709   4.668   1.573
 1391TIP3    H1 4116   1.634   4.670   1.637
 1391TIP3    H2 4117   1.783   4.639   1.630
 1392TIP3   OH2 4118   1.940   4.612   1.722
 1392TIP3    H1 4119   1.953   4.516   1.738
 1392TIP3    H2 4120   1.935   4.648   1.812
 1393TIP3   OH2 4121   0.926   4.555   1.914
 1393TIP3    H1 4122   0.933   4.463   1.881
 1393TIP3    H2 4123   0.964   4.545   2.004
 1394TIP3   OH2 4124   1.437   4.226   1.762
 1394TIP3    H1 4125   1.504   4.155   1.757
 1394TIP3    H2 4126   1.398   4.221   1.673
 1395TIP3   OH2 4127   1.506   4.441   1.920
 1395TIP3    H1 4128   1.484   4.369   1.856
 1395TIP3    H2 4129   1.427   4.499   1.913
 1396TIP3   OH2 4130   1.994   5.903   0.643
 1396TIP3    H1 4131   2.015   5.939   0.731
 1396TIP3    H2 4132   2.043   5.961   0.584
 1397TIP3   OH2 4133   2.013   5.934   0.921
 1397TIP3    H1 4134   1.966   5.848   0.917
 1397TIP3    H2 4135   2.087   5.910   0.978
 1398TIP3   OH2 4136   2.059   5.611   1.492
 1398TIP3    H1 4137   1.987   5.620   1.557
 1398TIP3    H2 4138   2.102   5.699   1.496
 1399TIP3   OH2 4139   1.882   5.117   0.106
 1399TIP3    H1 4140   1.949   5.183   0.077
 1399TIP3    H2 4141   1.926   5.080   0.186
 1400TIP3   OH2 4142   2.005   4.992   0.317
 1400TIP3    H1 4143   1.940   4.948   0.376
 1400TIP3    H2 4144   2.070   5.028   0.380
 1401TIP3   OH2 4145   2.061   5.387   0.747
 1401TIP3    H1 4146   2.113   5.318   0.700
 1401TIP3    H2 4147   2.053   5.456   0.679
 1402TIP3   OH2 4148   1.887   5.685   0.939
 1402TIP3    H1 4149   1.816   5.726   0.993
 1402TIP3    H2 4150   1.836   5.639   0.869
 1403TIP3   OH2 4151   1.945   4.890  -0.037
 1403TIP3    H1 4152   1.867   4.867  -0.090
 1403TIP3    H2 4153   1.916   4.972   0.008
 1404TIP3   OH2 4154   1.818   4.586  -0.088
 1404TIP3    H1 4155   1.746   4.638  -0.130
 1404TIP3    H2 4156   1.785   4.494  -0.096
 1405TIP3   OH2 4157   1.826   4.846   0.465
 1405TIP3    H1 4158   1.829   4.749   0.455
 1405TIP3    H2 4159   1.809   4.857   0.561
 1406TIP3   OH2 4160   0.454   4.892   1.228
 1406TIP3    H1 4161   0.446   4.896   1.131
 1406TIP3    H2 4162   0.552   4.899   1.239
 1407TIP3   OH2 4163   2.108   5.274   1.318
 1407TIP3    H1 4164   2.179   5.207   1.307
 1407TIP3    H2 4165   2.133   5.342   1.253
 1408TIP3   OH2 4166   2.291   5.075   1.326
 1408TIP3    H1 4167   2.216   5.027   1.367
 1408TIP3    H2 4168   2.364   5.012   1.344
 1409TIP3   OH2 4169   1.749   4.321  -0.080
 1409TIP3    H1 4170   1.835   4.286  -0.052
 1409TIP3    H2 4171   1.687   4.268  -0.029
 1410TIP3   OH2 4172   1.814   4.564   0.352
 1410TIP3    H1 4173   1.854   4.475   0.367
 1410TIP3    H2 4174   1.872   4.597   0.281
 1411TIP3   OH2 4175   1.974   4.735   0.851
 1411TIP3    H1 4176   2.059   4.760   0.809
 1411TIP3    H2 4177   1.988   4.773   0.939
 1412TIP3   OH2 4178   2.045   4.883   1.079
 1412TIP3    H1 4179   1.968   4.916   1.130
 1412TIP3    H2 4180   2.078   4.965   1.036
 1413TIP3   OH2 4181   0.660   4.601   1.872
 1413TIP3    H1 4182   0.757   4.600   1.881
 1413TIP3    H2 4183   0.637   4.517   1.917
 1414TIP3   OH2 4184   2.496   4.477   1.636
 1414TIP3    H1 4185   2.556   4.411   1.594
 1414TIP3    H2 4186   2.466   4.528   1.558
 1415TIP3   OH2 4187   1.923   4.315   0.391
 1415TIP3    H1 4188   1.970   4.299   0.476
 1415TIP3    H2 4189   1.861   4.239   0.390
 1416TIP3   OH2 4190   0.622   4.302   1.223
 1416TIP3    H1 4191   0.685   4.227   1.226
 1416TIP3    H2 4192   0.684   4.376   1.209
 1417TIP3   OH2 4193   0.414   4.571   1.290
 1417TIP3    H1 4194   0.473   4.568   1.212
 1417TIP3    H2 4195   0.430   4.661   1.320
 1418TIP3   OH2 4196   2.365   4.612   1.439
 1418TIP3    H1 4197   2.280   4.655   1.462
 1418TIP3    H2 4198   2.332   4.539   1.383
 1419TIP3   OH2 4199   2.010   4.250   0.010
 1419TIP3    H1 4200   2.076   4.190  -0.026
 1419TIP3    H2 4201   2.063   4.332   0.020
 1420TIP3   OH2 4202   0.630   4.153   1.597
 1420TIP3    H1 4203   0.582   4.156   1.682
 1420TIP3    H2 4204   0.565   4.196   1.538
 1421TIP3   OH2 4205   0.703   5.557   1.673
 1421TIP3    H1 4206   0.606   5.576   1.678
 1421TIP3    H2 4207   0.724   5.572   1.766
 1422TIP3   OH2 4208   0.849   5.608   1.234
 1422TIP3    H1 4209   0.778   5.631   1.170
 1422TIP3    H2 4210   0.928   5.644   1.188
 1423TIP3   OH2 4211   1.291   5.862   1.364
 1423TIP3    H1 4212   1.333   5.859   1.452
 1423TIP3    H2 4213   1.357   5.913   1.313
 1424TIP3   OH2 4214   1.469   6.017   1.225
 1424TIP3    H1 4215   1.537   5.964   1.180
 1424TIP3    H2 4216   1.523   6.072   1.285
 1425TIP3   OH2 4217   2.265   4.374   1.321
 1425TIP3    H1 4218   2.175   4.363   1.287
 1425TIP3    H2 4219   2.299   4.282   1.312
 1426TIP3   OH2 4220   1.214   5.896   0.891
 1426TIP3    H1 4221   1.119   5.877   0.874
 1426TIP3    H2 4222   1.209   5.974   0.950
 1427TIP3   OH2 4223   1.465   5.821   0.962
 1427TIP3    H1 4224   1.372   5.840   0.937
 1427TIP3    H2 4225   1.512   5.891   0.914
 1428TIP3   OH2 4226   1.663   6.005   0.872
 1428TIP3    H1 4227   1.653   6.091   0.826
 1428TIP3    H2 4228   1.691   5.946   0.799
 1429TIP3   OH2 4229   1.470   4.290   0.942
 1429TIP3    H1 4230   1.427   4.219   0.993
 1429TIP3    H2 4231   1.543   4.243   0.898
 1430TIP3   OH2 4232   1.991   4.175   0.847
 1430TIP3    H1 4233   2.026   4.225   0.770
 1430TIP3    H2 4234   1.895   4.190   0.838
 1431TIP3   OH2 4235   2.087   4.270   0.609
 1431TIP3    H1 4236   2.161   4.219   0.571
 1431TIP3    H2 4237   2.120   4.362   0.595
 1432TIP3   OH2 4238   0.716   4.002   0.953
 1432TIP3    H1 4239   0.630   3.959   0.955
 1432TIP3    H2 4240   0.775   3.923   0.951
 1433TIP3   OH2 4241   1.162   4.041   0.835
 1433TIP3    H1 4242   1.224   4.085   0.775
 1433TIP3    H2 4243   1.192   4.071   0.922
 1434TIP3   OH2 4244   1.707   4.178   0.820
 1434TIP3    H1 4245   1.708   4.136   0.732
 1434TIP3    H2 4246   1.695   4.100   0.878
 1435TIP3   OH2 4247   1.742   4.101   0.385
 1435TIP3    H1 4248   1.652   4.138   0.387
 1435TIP3    H2 4249   1.727   4.016   0.432
 1436TIP3   OH2 4250   1.162   4.202   0.471
 1436TIP3    H1 4251   1.218   4.159   0.538
 1436TIP3    H2 4252   1.177   4.296   0.496
 1437TIP3   OH2 4253   0.926   4.277   1.845
 1437TIP3    H1 4254   0.890   4.208   1.904
 1437TIP3    H2 4255   1.020   4.277   1.874
 1438TIP3   OH2 4256   1.175   4.277   1.966
 1438TIP3    H1 4257   1.261   4.253   1.927
 1438TIP3    H2 4258   1.164   4.207   2.033
 1439TIP3   OH2 4259   2.002   4.341   1.754
 1439TIP3    H1 4260   2.019   4.309   1.846
 1439TIP3    H2 4261   2.092   4.335   1.714
 1440TIP3   OH2 4262   1.939   5.891   1.247
 1440TIP3    H1 4263   1.861   5.859   1.198
 1440TIP3    H2 4264   1.918   5.986   1.254
 1441TIP3   OH2 4265   3.223   5.272   0.069
 1441TIP3    H1 4266   3.199   5.360   0.032
 1441TIP3    H2 4267   3.138   5.227   0.057
 1442TIP3   OH2 4268   3.206   5.267   0.400
 1442TIP3    H1 4269   3.241   5.241   0.488
 1442TIP3    H2 4270   3.166   5.184   0.370
 1443TIP3   OH2 4271   2.503   5.157   0.759
 1443TIP3    H1 4272   2.532   5.087   0.821
 1443TIP3    H2 4273   2.581   5.213   0.757
 1444TIP3   OH2 4274   3.463   5.557   0.070
 1444TIP3    H1 4275   3.434   5.493   0.136
 1444TIP3    H2 4276   3.484   5.635   0.124
 1445TIP3   OH2 4277   2.477   5.570   0.480
 1445TIP3    H1 4278   2.469   5.472   0.483
 1445TIP3    H2 4279   2.574   5.579   0.474
 1446TIP3   OH2 4280   2.184   4.771   0.266
 1446TIP3    H1 4281   2.135   4.853   0.283
 1446TIP3    H2 4282   2.113   4.716   0.228
 1447TIP3   OH2 4283   2.241   5.059   0.445
 1447TIP3    H1 4284   2.290   4.980   0.479
 1447TIP3    H2 4285   2.299   5.089   0.374
 1448TIP3   OH2 4286   3.062   5.984   0.128
 1448TIP3    H1 4287   3.127   5.995   0.057
 1448TIP3    H2 4288   3.116   5.982   0.208
 1449TIP3   OH2 4289   3.003   5.491   0.441
 1449TIP3    H1 4290   3.044   5.413   0.399
 1449TIP3    H2 4291   3.086   5.537   0.468
 1450TIP3   OH2 4292   4.028   4.923   0.389
 1450TIP3    H1 4293   4.062   4.883   0.471
 1450TIP3    H2 4294   4.072   4.863   0.325
 1451TIP3   OH2 4295   3.433   4.990   0.468
 1451TIP3    H1 4296   3.464   4.901   0.493
 1451TIP3    H2 4297   3.388   4.971   0.383
 1452TIP3   OH2 4298   2.759   4.650   0.437
 1452TIP3    H1 4299   2.736   4.722   0.375
 1452TIP3    H2 4300   2.711   4.576   0.394
 1453TIP3   OH2 4301   3.448   4.745   0.059
 1453TIP3    H1 4302   3.520   4.734   0.125
 1453TIP3    H2 4303   3.500   4.772  -0.019
 1454TIP3   OH2 4304   2.388   4.852   0.546
 1454TIP3    H1 4305   2.471   4.832   0.594
 1454TIP3    H2 4306   2.402   4.796   0.467
 1455TIP3   OH2 4307   2.827   5.050   0.341
 1455TIP3    H1 4308   2.921   5.025   0.354
 1455TIP3    H2 4309   2.788   4.966   0.308
 1456TIP3   OH2 4310   2.752   4.634   0.874
 1456TIP3    H1 4311   2.691   4.671   0.807
 1456TIP3    H2 4312   2.699   4.650   0.955
 1457TIP3   OH2 4313   3.111   5.468  -0.084
 1457TIP3    H1 4314   3.058   5.468  -0.165
 1457TIP3    H2 4315   3.084   5.553  -0.046
 1458TIP3   OH2 4316   2.858   5.411   0.665
 1458TIP3    H1 4317   2.797   5.478   0.703
 1458TIP3    H2 4318   2.899   5.460   0.592
 1459TIP3   OH2 4319   3.654   4.750   0.239
 1459TIP3    H1 4320   3.634   4.684   0.307
 1459TIP3    H2 4321   3.749   4.742   0.226
 1460TIP3   OH2 4322   2.624   4.748   0.656
 1460TIP3    H1 4323   2.686   4.821   0.681
 1460TIP3    H2 4324   2.673   4.708   0.581
 1461TIP3   OH2 4325   2.687   5.606   0.767
 1461TIP3    H1 4326   2.661   5.693   0.730
 1461TIP3    H2 4327   2.608   5.588   0.821
 1462TIP3   OH2 4328   2.079   5.289   0.002
 1462TIP3    H1 4329   2.043   5.307  -0.087
 1462TIP3    H2 4330   2.095   5.381   0.034
 1463TIP3   OH2 4331   3.519   5.797   0.238
 1463TIP3    H1 4332   3.431   5.785   0.283
 1463TIP3    H2 4333   3.509   5.890   0.210
 1464TIP3   OH2 4334   3.806   4.721   0.602
 1464TIP3    H1 4335   3.710   4.732   0.594
 1464TIP3    H2 4336   3.836   4.751   0.516
 1465TIP3   OH2 4337   3.105   4.351   0.591
 1465TIP3    H1 4338   3.089   4.256   0.608
 1465TIP3    H2 4339   3.027   4.390   0.637
 1466TIP3   OH2 4340   3.745   5.717   0.593
 1466TIP3    H1 4341   3.733   5.639   0.534
 1466TIP3    H2 4342   3.728   5.791   0.530
 1467TIP3   OH2 4343   3.051   5.136  -0.108
 1467TIP3    H1 4344   2.974   5.194  -0.130
 1467TIP3    H2 4345   3.123   5.180  -0.156
 1468TIP3   OH2 4346   3.343   5.136  -0.134
 1468TIP3    H1 4347   3.314   5.183  -0.053
 1468TIP3    H2 4348   3.424   5.187  -0.154
 1469TIP3   OH2 4349   3.612   5.232   0.749
 1469TIP3    H1 4350   3.615   5.321   0.788
 1469TIP3    H2 4351   3.535   5.240   0.690
 1470TIP3   OH2 4352   2.616   5.195   0.233
 1470TIP3    H1 4353   2.574   5.136   0.166
 1470TIP3    H2 4354   2.692   5.142   0.262
 1471TIP3   OH2 4355   2.745   5.606   0.380
 1471TIP3    H1 4356   2.723   5.573   0.291
 1471TIP3    H2 4357   2.834   5.568   0.396
 1472TIP3   OH2 4358   2.754   5.166   0.588
 1472TIP3    H1 4359   2.785   5.143   0.498
 1472TIP3    H2 4360   2.796   5.253   0.604
 1473TIP3   OH2 4361   3.281   5.803   0.362
 1473TIP3    H1 4362   3.265   5.884   0.413
 1473TIP3    H2 4363   3.262   5.732   0.427
 1474TIP3   OH2 4364   2.891   5.725   0.911
 1474TIP3    H1 4365   2.829   5.785   0.957
 1474TIP3    H2 4366   2.827   5.671   0.860
 1475TIP3   OH2 4367   2.646   5.278   1.014
 1475TIP3    H1 4368   2.650   5.366   1.056
 1475TIP3    H2 4369   2.551   5.257   1.028
 1476TIP3   OH2 4370   2.981   5.734  -0.049
 1476TIP3    H1 4371   3.030   5.788   0.014
 1476TIP3    H2 4372   2.895   5.777  -0.046
 1477TIP3   OH2 4373   2.684   5.891   0.999
 1477TIP3    H1 4374   2.649   5.893   0.908
 1477TIP3    H2 4375   2.604   5.869   1.051
 1478TIP3   OH2 4376   2.482   5.034   0.043
 1478TIP3    H1 4377   2.411   5.073  -0.012
 1478TIP3    H2 4378   2.452   4.943   0.051
 1479TIP3   OH2 4379   2.264   5.423   0.945
 1479TIP3    H1 4380   2.196   5.402   0.877
 1479TIP3    H2 4381   2.301   5.335   0.966
 1480TIP3   OH2 4382   2.116   5.621   0.569
 1480TIP3    H1 4383   2.213   5.613   0.571
 1480TIP3    H2 4384   2.102   5.697   0.627
 1481TIP3   OH2 4385   3.989   6.069   0.648
 1481TIP3    H1 4386   3.981   5.972   0.656
 1481TIP3    H2 4387   3.902   6.097   0.683
 1482TIP3   OH2 4388   3.088   5.852   0.769
 1482TIP3    H1 4389   3.084   5.945   0.801
 1482TIP3    H2 4390   3.016   5.811   0.821
 1483TIP3   OH2 4391   2.271   5.802   0.117
 1483TIP3    H1 4392   2.347   5.806   0.180
 1483TIP3    H2 4393   2.201   5.778   0.180
 1484TIP3   OH2 4394   3.867   5.195   0.906
 1484TIP3    H1 4395   3.783   5.207   0.858
 1484TIP3    H2 4396   3.887   5.102   0.889
 1485TIP3   OH2 4397   2.468   5.606   0.930
 1485TIP3    H1 4398   2.517   5.589   1.013
 1485TIP3    H2 4399   2.393   5.543   0.937
 1486TIP3   OH2 4400   2.868   4.429   0.718
 1486TIP3    H1 4401   2.779   4.398   0.689
 1486TIP3    H2 4402   2.840   4.509   0.768
 1487TIP3   OH2 4403   3.402   4.542   0.913
 1487TIP3    H1 4404   3.470   4.515   0.978
 1487TIP3    H2 4405   3.318   4.524   0.960
 1488TIP3   OH2 4406   3.642   4.973   0.832
 1488TIP3    H1 4407   3.591   4.971   0.915
 1488TIP3    H2 4408   3.622   5.063   0.797
 1489TIP3   OH2 4409   3.024   4.503  -0.300
 1489TIP3    H1 4410   2.980   4.475  -0.217
 1489TIP3    H2 4411   2.980   4.446  -0.365
 1490TIP3   OH2 4412   2.801   4.944   0.737
 1490TIP3    H1 4413   2.749   4.965   0.818
 1490TIP3    H2 4414   2.785   5.026   0.684
 1491TIP3   OH2 4415   2.683   4.831   0.250
 1491TIP3    H1 4416   2.590   4.805   0.269
 1491TIP3    H2 4417   2.695   4.791   0.161
 1492TIP3   OH2 4418   3.180   4.914  -0.023
 1492TIP3    H1 4419   3.122   4.988  -0.049
 1492TIP3    H2 4420   3.257   4.934  -0.079
 1493TIP3   OH2 4421   3.347   5.192   1.062
 1493TIP3    H1 4422   3.326   5.120   1.125
 1493TIP3    H2 4423   3.441   5.207   1.084
 1494TIP3   OH2 4424   3.330   4.945   0.214
 1494TIP3    H1 4425   3.265   4.970   0.146
 1494TIP3    H2 4426   3.367   4.866   0.169
 1495TIP3   OH2 4427   2.619   4.972   0.944
 1495TIP3    H1 4428   2.644   5.035   1.012
 1495TIP3    H2 4429   2.607   4.890   0.995
 1496TIP3   OH2 4430   2.697   4.385  -0.327
 1496TIP3    H1 4431   2.667   4.422  -0.243
 1496TIP3    H2 4432   2.650   4.437  -0.393
 1497TIP3   OH2 4433   2.211   4.494   0.525
 1497TIP3    H1 4434   2.287   4.526   0.579
 1497TIP3    H2 4435   2.252   4.462   0.444
 1498TIP3   OH2 4436   2.175   4.477   0.041
 1498TIP3    H1 4437   2.231   4.511  -0.031
 1498TIP3    H2 4438   2.119   4.554   0.060
 1499TIP3   OH2 4439   3.335   5.184   0.632
 1499TIP3    H1 4440   3.377   5.114   0.577
 1499TIP3    H2 4441   3.309   5.132   0.711
 1500TIP3   OH2 4442   3.016   4.653   0.312
 1500TIP3    H1 4443   2.932   4.651   0.362
 1500TIP3    H2 4444   3.082   4.646   0.383
 1501TIP3   OH2 4445   2.446   4.710   0.317
 1501TIP3    H1 4446   2.351   4.718   0.290
 1501TIP3    H2 4447   2.467   4.617   0.296
 1502TIP3   OH2 4448   2.714   4.708   0.009
 1502TIP3    H1 4449   2.809   4.720  -0.013
 1502TIP3    H2 4450   2.668   4.739  -0.072
 1503TIP3   OH2 4451   3.504   4.724   0.518
 1503TIP3    H1 4452   3.471   4.739   0.610
 1503TIP3    H2 4453   3.435   4.666   0.483
 1504TIP3   OH2 4454   2.543   4.756  -0.197
 1504TIP3    H1 4455   2.461   4.706  -0.210
 1504TIP3    H2 4456   2.599   4.729  -0.273
 1505TIP3   OH2 4457   3.675   6.418   0.733
 1505TIP3    H1 4458   3.673   6.443   0.639
 1505TIP3    H2 4459   3.756   6.464   0.763
 1506TIP3   OH2 4460   2.631   5.528   1.152
 1506TIP3    H1 4461   2.710   5.557   1.201
 1506TIP3    H2 4462   2.565   5.524   1.225
 1507TIP3   OH2 4463   3.091   4.982   0.412
 1507TIP3    H1 4464   3.161   4.933   0.365
 1507TIP3    H2 4465   3.092   4.940   0.500
 1508TIP3   OH2 4466   2.615   4.467   0.291
 1508TIP3    H1 4467   2.578   4.390   0.340
 1508TIP3    H2 4468   2.650   4.424   0.212
 1509TIP3   OH2 4469   3.070   4.885   0.691
 1509TIP3    H1 4470   2.979   4.916   0.710
 1509TIP3    H2 4471   3.126   4.944   0.746
 1510TIP3   OH2 4472   2.830   5.259  -0.187
 1510TIP3    H1 4473   2.748   5.214  -0.213
 1510TIP3    H2 4474   2.799   5.310  -0.109
 1511TIP3   OH2 4475   3.704   5.506   0.429
 1511TIP3    H1 4476   3.745   5.539   0.347
 1511TIP3    H2 4477   3.624   5.458   0.396
 1512TIP3   OH2 4478   3.204   5.588   0.789
 1512TIP3    H1 4479   3.234   5.567   0.878
 1512TIP3    H2 4480   3.166   5.677   0.799
 1513TIP3   OH2 4481   2.500   5.294   0.468
 1513TIP3    H1 4482   2.538   5.262   0.383
 1513TIP3    H2 4483   2.540   5.232   0.531
 1514TIP3   OH2 4484   2.382   5.209   1.081
 1514TIP3    H1 4485   2.397   5.195   1.177
 1514TIP3    H2 4486   2.311   5.145   1.063
 1515TIP3   OH2 4487   3.107   5.328   1.101
 1515TIP3    H1 4488   3.045   5.266   1.058
 1515TIP3    H2 4489   3.193   5.291   1.072
 1516TIP3   OH2 4490   3.363   5.850   0.687
 1516TIP3    H1 4491   3.267   5.845   0.702
 1516TIP3    H2 4492   3.392   5.901   0.765
 1517TIP3   OH2 4493   3.995   5.775   0.677
 1517TIP3    H1 4494   3.897   5.771   0.670
 1517TIP3    H2 4495   4.020   5.745   0.587
 1518TIP3   OH2 4496   3.469   5.369   0.334
 1518TIP3    H1 4497   3.376   5.346   0.349
 1518TIP3    H2 4498   3.502   5.286   0.295
 1519TIP3   OH2 4499   2.607   5.589   0.108
 1519TIP3    H1 4500   2.599   5.666   0.048
 1519TIP3    H2 4501   2.515   5.565   0.118
 1520TIP3   OH2 4502   2.169   4.898  -0.200
 1520TIP3    H1 4503   2.211   4.983  -0.179
 1520TIP3    H2 4504   2.089   4.901  -0.143
 1521TIP3   OH2 4505   2.747   5.363   0.048
 1521TIP3    H1 4506   2.704   5.450   0.062
 1521TIP3    H2 4507   2.704   5.309   0.117
 1522TIP3   OH2 4508   2.869   5.938   0.562
 1522TIP3    H1 4509   2.910   6.011   0.512
 1522TIP3    H2 4510   2.947   5.901   0.608
 1523TIP3   OH2 4511   2.521   5.805  -0.029
 1523TIP3    H1 4512   2.427   5.819  -0.012
 1523TIP3    H2 4513   2.555   5.897  -0.028
 1524TIP3   OH2 4514   3.256   5.573   0.522
 1524TIP3    H1 4515   3.244   5.572   0.620
 1524TIP3    H2 4516   3.335   5.518   0.513
 1525TIP3   OH2 4517   3.506   6.095   0.581
 1525TIP3    H1 4518   3.428   6.037   0.574
 1525TIP3    H2 4519   3.489   6.161   0.510
 1526TIP3   OH2 4520   2.589   4.716   1.087
 1526TIP3    H1 4521   2.492   4.719   1.100
 1526TIP3    H2 4522   2.616   4.659   1.161
 1527TIP3   OH2 4523   2.309   5.798   0.719
 1527TIP3    H1 4524   2.363   5.727   0.758
 1527TIP3    H2 4525   2.333   5.873   0.775
 1528TIP3   OH2 4526   2.281   5.139  -0.114
 1528TIP3    H1 4527   2.210   5.187  -0.066
 1528TIP3    H2 4528   2.326   5.210  -0.160
 1529TIP3   OH2 4529   3.433   4.777   0.774
 1529TIP3    H1 4530   3.506   4.820   0.820
 1529TIP3    H2 4531   3.417   4.698   0.829
 1530TIP3   OH2 4532   3.298   4.543  -0.064
 1530TIP3    H1 4533   3.271   4.584  -0.147
 1530TIP3    H2 4534   3.350   4.614  -0.023
 1531TIP3   OH2 4535   2.996   4.709   0.039
 1531TIP3    H1 4536   3.063   4.777   0.019
 1531TIP3    H2 4537   3.001   4.704   0.137
 1532TIP3   OH2 4538   3.268   5.029   0.846
 1532TIP3    H1 4539   3.290   5.085   0.924
 1532TIP3    H2 4540   3.321   4.950   0.864
 1533TIP3   OH2 4541   3.142   4.436   0.140
 1533TIP3    H1 4542   3.130   4.516   0.194
 1533TIP3    H2 4543   3.200   4.471   0.068
 1534TIP3   OH2 4544   2.649   4.445  -0.054
 1534TIP3    H1 4545   2.655   4.537  -0.022
 1534TIP3    H2 4546   2.744   4.422  -0.054
 1535TIP3   OH2 4547   3.905   4.923   0.803
 1535TIP3    H1 4548   3.809   4.937   0.823
 1535TIP3    H2 4549   3.897   4.852   0.738
 1536TIP3   OH2 4550   3.559   5.107   0.233
 1536TIP3    H1 4551   3.469   5.072   0.217
 1536TIP3    H2 4552   3.581   5.060   0.315
 1537TIP3   OH2 4553   2.235   4.636  -0.189
 1537TIP3    H1 4554   2.220   4.733  -0.194
 1537TIP3    H2 4555   2.154   4.603  -0.227
 1538TIP3   OH2 4556   3.536   6.070   0.186
 1538TIP3    H1 4557   3.491   6.078   0.099
 1538TIP3    H2 4558   3.629   6.069   0.160
 1539TIP3   OH2 4559   2.603   4.349   0.690
 1539TIP3    H1 4560   2.572   4.314   0.604
 1539TIP3    H2 4561   2.592   4.271   0.748
 1540TIP3   OH2 4562   2.114   5.557   0.054
 1540TIP3    H1 4563   2.077   5.601   0.132
 1540TIP3    H2 4564   2.174   5.624   0.019
 1541TIP3   OH2 4565   2.300   6.113   1.144
 1541TIP3    H1 4566   2.387   6.112   1.190
 1541TIP3    H2 4567   2.278   6.019   1.142
 1542TIP3   OH2 4568   2.782   6.070   1.188
 1542TIP3    H1 4569   2.874   6.044   1.193
 1542TIP3    H2 4570   2.750   6.012   1.116
 1543TIP3   OH2 4571   3.414   5.982   0.925
 1543TIP3    H1 4572   3.409   5.911   0.992
 1543TIP3    H2 4573   3.494   6.031   0.952
 1544TIP3   OH2 4574   2.429   5.517   1.344
 1544TIP3    H1 4575   2.444   5.421   1.352
 1544TIP3    H2 4576   2.342   5.519   1.299
 1545TIP3   OH2 4577   3.035   5.604   1.118
 1545TIP3    H1 4578   2.994   5.622   1.031
 1545TIP3    H2 4579   3.066   5.511   1.108
 1546TIP3   OH2 4580   3.526   5.613   0.726
 1546TIP3    H1 4581   3.603   5.653   0.683
 1546TIP3    H2 4582   3.458   5.680   0.709
 1547TIP3   OH2 4583   2.550   5.255   1.327
 1547TIP3    H1 4584   2.623   5.197   1.304
 1547TIP3    H2 4585   2.577   5.286   1.416
 1548TIP3   OH2 4586   2.621   5.072  -0.234
 1548TIP3    H1 4587   2.584   5.028  -0.156
 1548TIP3    H2 4588   2.685   5.006  -0.265
 1549TIP3   OH2 4589   2.885   5.136   0.989
 1549TIP3    H1 4590   2.805   5.194   0.989
 1549TIP3    H2 4591   2.935   5.170   0.912
 1550TIP3   OH2 4592   3.402   5.537   1.121
 1550TIP3    H1 4593   3.479   5.506   1.073
 1550TIP3    H2 4594   3.395   5.472   1.194
 1551TIP3   OH2 4595   3.008   4.925   1.112
 1551TIP3    H1 4596   3.007   4.846   1.054
 1551TIP3    H2 4597   2.963   4.992   1.056
 1552TIP3   OH2 4598   3.010   4.711   0.920
 1552TIP3    H1 4599   3.037   4.751   0.835
 1552TIP3    H2 4600   2.916   4.688   0.903
 1553TIP3   OH2 4601   3.034   5.244   0.794
 1553TIP3    H1 4602   3.119   5.257   0.750
 1553TIP3    H2 4603   2.977   5.310   0.748
 1554TIP3   OH2 4604   3.614   5.210   1.174
 1554TIP3    H1 4605   3.664   5.129   1.190
 1554TIP3    H2 4606   3.682   5.268   1.136
 1555TIP3   OH2 4607   3.657   5.469   0.913
 1555TIP3    H1 4608   3.599   5.522   0.853
 1555TIP3    H2 4609   3.745   5.488   0.873
 1556TIP3   OH2 4610   2.886   5.031   1.346
 1556TIP3    H1 4611   2.818   4.962   1.362
 1556TIP3    H2 4612   2.919   5.005   1.258
 1557TIP3   OH2 4613   3.141   4.472   0.990
 1557TIP3    H1 4614   3.090   4.553   0.967
 1557TIP3    H2 4615   3.072   4.403   0.980
 1558TIP3   OH2 4616   3.268   4.974   1.205
 1558TIP3    H1 4617   3.253   4.960   1.301
 1558TIP3    H2 4618   3.178   4.952   1.172
 1559TIP3   OH2 4619   3.503   4.922   1.058
 1559TIP3    H1 4620   3.430   4.926   1.122
 1559TIP3    H2 4621   3.578   4.895   1.114
 1560TIP3   OH2 4622   3.735   4.868   1.208
 1560TIP3    H1 4623   3.748   4.772   1.226
 1560TIP3    H2 4624   3.730   4.906   1.298
 1561TIP3   OH2 4625   2.725   4.812   1.400
 1561TIP3    H1 4626   2.727   4.719   1.368
 1561TIP3    H2 4627   2.762   4.800   1.490
 1562TIP3   OH2 4628   3.236   4.483   1.247
 1562TIP3    H1 4629   3.301   4.410   1.242
 1562TIP3    H2 4630   3.194   4.477   1.159
 1563TIP3   OH2 4631   3.303   4.698   1.406
 1563TIP3    H1 4632   3.281   4.626   1.342
 1563TIP3    H2 4633   3.223   4.755   1.400
 1564TIP3   OH2 4634   2.014   5.304  -0.265
 1564TIP3    H1 4635   2.070   5.308  -0.343
 1564TIP3    H2 4636   1.955   5.229  -0.285
 1565TIP3   OH2 4637   1.921   5.899   0.125
 1565TIP3    H1 4638   1.836   5.939   0.151
 1565TIP3    H2 4639   1.949   5.852   0.206
 1566TIP3   OH2 4640   2.068   5.762   0.321
 1566TIP3    H1 4641   2.048   5.695   0.389
 1566TIP3    H2 4642   2.114   5.827   0.378
 1567TIP3   OH2 4643   3.793   6.194   0.409
 1567TIP3    H1 4644   3.766   6.100   0.412
 1567TIP3    H2 4645   3.889   6.184   0.413
 1568TIP3   OH2 4646   3.856   5.868   0.979
 1568TIP3    H1 4647   3.784   5.879   1.045
 1568TIP3    H2 4648   3.898   5.956   0.982
 1569TIP3   OH2 4649   3.865   5.630   0.235
 1569TIP3    H1 4650   3.895   5.562   0.173
 1569TIP3    H2 4651   3.815   5.692   0.179
 1570TIP3   OH2 4652   3.681   5.932   0.433
 1570TIP3    H1 4653   3.614   5.980   0.485
 1570TIP3    H2 4654   3.627   5.885   0.366
 1571TIP3   OH2 4655   3.637   5.085  -0.035
 1571TIP3    H1 4656   3.619   4.992  -0.056
 1571TIP3    H2 4657   3.616   5.091   0.060
 1572TIP3   OH2 4658   2.238   5.179   0.695
 1572TIP3    H1 4659   2.235   5.145   0.603
 1572TIP3    H2 4660   2.335   5.179   0.711
 1573TIP3   OH2 4661   3.904   5.531   0.809
 1573TIP3    H1 4662   3.973   5.463   0.794
 1573TIP3    H2 4663   3.929   5.600   0.745
 1574TIP3   OH2 4664   4.081   5.324   0.802
 1574TIP3    H1 4665   4.008   5.277   0.848
 1574TIP3    H2 4666   4.156   5.263   0.820
 1575TIP3   OH2 4667   3.611   4.819  -0.155
 1575TIP3    H1 4668   3.648   4.729  -0.140
 1575TIP3    H2 4669   3.678   4.856  -0.214
 1576TIP3   OH2 4670   2.459   4.865   1.371
 1576TIP3    H1 4671   2.556   4.858   1.374
 1576TIP3    H2 4672   2.434   4.778   1.408
 1577TIP3   OH2 4673   4.290   4.731   1.123
 1577TIP3    H1 4674   4.352   4.667   1.082
 1577TIP3    H2 4675   4.262   4.785   1.046
 1578TIP3   OH2 4676   3.701   4.573  -0.107
 1578TIP3    H1 4677   3.762   4.544  -0.037
 1578TIP3    H2 4678   3.647   4.492  -0.118
 1579TIP3   OH2 4679   2.419   4.557   0.698
 1579TIP3    H1 4680   2.480   4.481   0.707
 1579TIP3    H2 4681   2.482   4.631   0.691
 1580TIP3   OH2 4682   2.219   4.830   0.771
 1580TIP3    H1 4683   2.269   4.826   0.687
 1580TIP3    H2 4684   2.249   4.914   0.808
 1581TIP3   OH2 4685   4.163   4.872   0.926
 1581TIP3    H1 4686   4.082   4.918   0.957
 1581TIP3    H2 4687   4.122   4.805   0.867
 1582TIP3   OH2 4688   2.207   4.338   0.273
 1582TIP3    H1 4689   2.114   4.330   0.302
 1582TIP3    H2 4690   2.199   4.394   0.194
 1583TIP3   OH2 4691   2.426   4.414   1.087
 1583TIP3    H1 4692   2.374   4.408   1.169
 1583TIP3    H2 4693   2.359   4.452   1.026
 1584TIP3   OH2 4694   2.464   5.846   1.164
 1584TIP3    H1 4695   2.372   5.819   1.147
 1584TIP3    H2 4696   2.474   5.821   1.257
 1585TIP3   OH2 4697   2.645   5.878   0.713
 1585TIP3    H1 4698   2.596   5.953   0.673
 1585TIP3    H2 4699   2.730   5.891   0.667
 1586TIP3   OH2 4700   3.087   6.118   0.851
 1586TIP3    H1 4701   3.130   6.119   0.939
 1586TIP3    H2 4702   3.152   6.169   0.798
 1587TIP3   OH2 4703   3.267   6.270   0.710
 1587TIP3    H1 4704   3.340   6.220   0.671
 1587TIP3    H2 4705   3.317   6.330   0.770
 1588TIP3   OH2 4706   4.060   4.624   0.806
 1588TIP3    H1 4707   3.967   4.605   0.783
 1588TIP3    H2 4708   4.098   4.534   0.801
 1589TIP3   OH2 4709   2.316   6.130   0.736
 1589TIP3    H1 4710   2.227   6.164   0.713
 1589TIP3    H2 4711   2.329   6.173   0.822
 1590TIP3   OH2 4712   2.555   6.111   0.596
 1590TIP3    H1 4713   2.467   6.124   0.638
 1590TIP3    H2 4714   2.538   6.144   0.505
 1591TIP3   OH2 4715   2.980   6.137   0.401
 1591TIP3    H1 4716   2.922   6.150   0.324
 1591TIP3    H2 4717   2.986   6.228   0.436
 1592TIP3   OH2 4718   3.246   6.071   0.437
 1592TIP3    H1 4719   3.152   6.096   0.427
 1592TIP3    H2 4720   3.291   6.153   0.411
 1593TIP3   OH2 4721   3.452   6.260   0.374
 1593TIP3    H1 4722   3.433   6.341   0.322
 1593TIP3    H2 4723   3.487   6.199   0.305
 1594TIP3   OH2 4724   2.233   5.923   0.477
 1594TIP3    H1 4725   2.254   5.895   0.569
 1594TIP3    H2 4726   2.308   5.880   0.430
 1595TIP3   OH2 4727   2.429   5.797   0.336
 1595TIP3    H1 4728   2.444   5.714   0.388
 1595TIP3    H2 4729   2.519   5.834   0.334
 1596TIP3   OH2 4730   2.691   5.890   0.346
 1596TIP3    H1 4731   2.722   5.799   0.333
 1596TIP3    H2 4732   2.739   5.912   0.428
 1597TIP3   OH2 4733   3.270   4.548   0.434
 1597TIP3    H1 4734   3.223   4.478   0.484
 1597TIP3    H2 4735   3.336   4.497   0.384
 1598TIP3   OH2 4736   3.782   4.454   0.358
 1598TIP3    H1 4737   3.819   4.479   0.270
 1598TIP3    H2 4738   3.687   4.445   0.338
 1599TIP3   OH2 4739   3.877   4.512   0.107
 1599TIP3    H1 4740   3.944   4.455   0.063
 1599TIP3    H2 4741   3.916   4.600   0.084
 1600TIP3   OH2 4742   2.514   4.255   0.443
 1600TIP3    H1 4743   2.421   4.222   0.447
 1600TIP3    H2 4744   2.562   4.169   0.439
 1601TIP3   OH2 4745   2.286   4.123   0.092
 1601TIP3    H1 4746   2.335   4.173   0.023
 1601TIP3    H2 4747   2.271   4.193   0.159
 1602TIP3   OH2 4748   2.963   4.285   0.325
 1602TIP3    H1 4749   3.018   4.335   0.263
 1602TIP3    H2 4750   2.983   4.327   0.409
 1603TIP3   OH2 4751   3.511   4.434   0.301
 1603TIP3    H1 4752   3.502   4.395   0.212
 1603TIP3    H2 4753   3.494   4.356   0.358
 1604TIP3   OH2 4754   3.534   4.361  -0.085
 1604TIP3    H1 4755   3.445   4.393  -0.106
 1604TIP3    H2 4756   3.518   4.269  -0.056
 1605TIP3   OH2 4757   2.426   4.271  -0.093
 1605TIP3    H1 4758   2.446   4.232  -0.179
 1605TIP3    H2 4759   2.501   4.332  -0.080
 1606TIP3   OH2 4760   2.926   4.456  -0.042
 1606TIP3    H1 4761   2.987   4.409   0.016
 1606TIP3    H2 4762   2.949   4.549  -0.019
 1607TIP3   OH2 4763   2.722   4.538   1.336
 1607TIP3    H1 4764   2.685   4.467   1.391
 1607TIP3    H2 4765   2.816   4.536   1.364
 1608TIP3   OH2 4766   2.972   4.534   1.454
 1608TIP3    H1 4767   3.057   4.506   1.416
 1608TIP3    H2 4768   2.958   4.464   1.522
 1609TIP3   OH2 4769   3.799   4.596   1.241
 1609TIP3    H1 4770   3.815   4.566   1.333
 1609TIP3    H2 4771   3.889   4.592   1.202
 1610TIP3   OH2 4772   3.733   6.147   0.739
 1610TIP3    H1 4773   3.657   6.116   0.686
 1610TIP3    H2 4774   3.717   6.243   0.738
 1611TIP3   OH2 4775   4.311   5.418   0.244
 1611TIP3    H1 4776   4.339   5.355   0.315
 1611TIP3    H2 4777   4.353   5.500   0.274
 1612TIP3   OH2 4778   4.151   5.090   0.154
 1612TIP3    H1 4779   4.246   5.073   0.151
 1612TIP3    H2 4780   4.134   5.109   0.060
 1613TIP3   OH2 4781   4.542   4.891   0.369
 1613TIP3    H1 4782   4.491   4.927   0.294
 1613TIP3    H2 4783   4.484   4.912   0.444
 1614TIP3   OH2 4784   4.417   4.982   0.140
 1614TIP3    H1 4785   4.469   5.066   0.138
 1614TIP3    H2 4786   4.447   4.942   0.057
 1615TIP3   OH2 4787   4.486   5.837   0.296
 1615TIP3    H1 4788   4.472   5.907   0.229
 1615TIP3    H2 4789   4.398   5.838   0.340
 1616TIP3   OH2 4790   4.891   4.592   0.131
 1616TIP3    H1 4791   4.858   4.506   0.165
 1616TIP3    H2 4792   4.814   4.649   0.152
 1617TIP3   OH2 4793   4.647   5.936   0.495
 1617TIP3    H1 4794   4.609   6.026   0.495
 1617TIP3    H2 4795   4.595   5.895   0.422
 1618TIP3   OH2 4796   4.431   5.541   0.492
 1618TIP3    H1 4797   4.440   5.629   0.534
 1618TIP3    H2 4798   4.339   5.520   0.516
 1619TIP3   OH2 4799   4.473   6.154   0.488
 1619TIP3    H1 4800   4.433   6.156   0.400
 1619TIP3    H2 4801   4.396   6.135   0.545
 1620TIP3   OH2 4802   4.058   5.671   0.435
 1620TIP3    H1 4803   3.988   5.654   0.368
 1620TIP3    H2 4804   4.088   5.581   0.459
 1621TIP3   OH2 4805   5.617   5.476   0.424
 1621TIP3    H1 4806   5.695   5.507   0.374
 1621TIP3    H2 4807   5.636   5.382   0.438
 1622TIP3   OH2 4808   4.249   5.865   0.430
 1622TIP3    H1 4809   4.301   5.851   0.512
 1622TIP3    H2 4810   4.181   5.794   0.436
 1623TIP3   OH2 4811   4.652   4.691   0.217
 1623TIP3    H1 4812   4.563   4.663   0.189
 1623TIP3    H2 4813   4.628   4.771   0.268
 1624TIP3   OH2 4814   5.202   4.800   0.395
 1624TIP3    H1 4815   5.272   4.781   0.461
 1624TIP3    H2 4816   5.120   4.783   0.445
 1625TIP3   OH2 4817   5.458   5.208   0.337
 1625TIP3    H1 4818   5.401   5.203   0.416
 1625TIP3    H2 4819   5.403   5.258   0.275
 1626TIP3   OH2 4820   4.599   5.209   0.212
 1626TIP3    H1 4821   4.556   5.236   0.294
 1626TIP3    H2 4822   4.542   5.250   0.144
 1627TIP3   OH2 4823   5.143   5.451   0.553
 1627TIP3    H1 4824   5.126   5.373   0.610
 1627TIP3    H2 4825   5.239   5.462   0.566
 1628TIP3   OH2 4826   4.405   5.226   0.434
 1628TIP3    H1 4827   4.470   5.282   0.480
 1628TIP3    H2 4828   4.408   5.145   0.487
 1629TIP3   OH2 4829   4.002   4.743   0.041
 1629TIP3    H1 4830   4.084   4.764   0.091
 1629TIP3    H2 4831   4.013   4.803  -0.035
 1630TIP3   OH2 4832   4.420   5.780   0.638
 1630TIP3    H1 4833   4.505   5.816   0.670
 1630TIP3    H2 4834   4.366   5.785   0.719
 1631TIP3   OH2 4835   4.862   5.091   0.208
 1631TIP3    H1 4836   4.784   5.145   0.185
 1631TIP3    H2 4837   4.931   5.158   0.222
 1632TIP3   OH2 4838   4.997   5.817   0.337
 1632TIP3    H1 4839   5.022   5.816   0.431
 1632TIP3    H2 4840   4.919   5.875   0.337
 1633TIP3   OH2 4841   4.176   5.465   0.586
 1633TIP3    H1 4842   4.231   5.483   0.665
 1633TIP3    H2 4843   4.119   5.397   0.625
 1634TIP3   OH2 4844   4.906   5.579   0.594
 1634TIP3    H1 4845   4.855   5.540   0.521
 1634TIP3    H2 4846   4.995   5.543   0.574
 1635TIP3   OH2 4847   4.393   4.974   0.593
 1635TIP3    H1 4848   4.323   5.003   0.652
 1635TIP3    H2 4849   4.438   4.909   0.649
 1636TIP3   OH2 4850   4.062   6.025   0.298
 1636TIP3    H1 4851   4.126   5.961   0.334
 1636TIP3    H2 4852   4.102   6.109   0.324
 1637TIP3   OH2 4853   5.196   5.062   0.294
 1637TIP3    H1 4854   5.286   5.077   0.264
 1637TIP3    H2 4855   5.201   4.971   0.327
 1638TIP3   OH2 4856   5.040   5.290   0.335
 1638TIP3    H1 4857   5.092   5.336   0.403
 1638TIP3    H2 4858   5.097   5.211   0.319
 1639TIP3   OH2 4859   4.391   4.609   0.209
 1639TIP3    H1 4860   4.360   4.578   0.120
 1639TIP3    H2 4861   4.388   4.526   0.260
 1640TIP3   OH2 4862   4.098   6.371   0.643
 1640TIP3    H1 4863   4.185   6.367   0.688
 1640TIP3    H2 4864   4.078   6.277   0.631
 1641TIP3   OH2 4865   4.572   6.330   0.679
 1641TIP3    H1 4866   4.667   6.309   0.682
 1641TIP3    H2 4867   4.545   6.277   0.601
 1642TIP3   OH2 4868   4.223   5.776   0.836
 1642TIP3    H1 4869   4.237   5.681   0.844
 1642TIP3    H2 4870   4.137   5.779   0.788
 1643TIP3   OH2 4871   4.864   5.854   0.620
 1643TIP3    H1 4872   4.789   5.876   0.560
 1643TIP3    H2 4873   4.874   5.758   0.608
 1644TIP3   OH2 4874   4.344   5.506   0.807
 1644TIP3    H1 4875   4.424   5.456   0.786
 1644TIP3    H2 4876   4.368   5.541   0.895
 1645TIP3   OH2 4877   4.642   5.370   0.479
 1645TIP3    H1 4878   4.578   5.445   0.490
 1645TIP3    H2 4879   4.709   5.414   0.422
 1646TIP3   OH2 4880   5.201   5.796   0.606
 1646TIP3    H1 4881   5.298   5.801   0.607
 1646TIP3    H2 4882   5.186   5.727   0.673
 1647TIP3   OH2 4883   4.799   5.178   0.606
 1647TIP3    H1 4884   4.807   5.096   0.552
 1647TIP3    H2 4885   4.751   5.237   0.545
 1648TIP3   OH2 4886   4.801   4.956   0.435
 1648TIP3    H1 4887   4.834   4.999   0.353
 1648TIP3    H2 4888   4.708   4.936   0.409
 1649TIP3   OH2 4889   4.824   5.507   0.329
 1649TIP3    H1 4890   4.913   5.469   0.326
 1649TIP3    H2 4891   4.833   5.579   0.264
 1650TIP3   OH2 4892   5.422   5.469   0.666
 1650TIP3    H1 4893   5.442   5.375   0.655
 1650TIP3    H2 4894   5.502   5.509   0.629
 1651TIP3   OH2 4895   4.678   5.290   0.833
 1651TIP3    H1 4896   4.612   5.219   0.848
 1651TIP3    H2 4897   4.715   5.264   0.746
 1652TIP3   OH2 4898   4.941   4.723   0.480
 1652TIP3    H1 4899   4.891   4.806   0.464
 1652TIP3    H2 4900   4.872   4.656   0.467
 1653TIP3   OH2 4901   5.060   5.231   0.695
 1653TIP3    H1 4902   5.046   5.219   0.790
 1653TIP3    H2 4903   4.971   5.209   0.661
 1654TIP3   OH2 4904   5.308   5.202   0.565
 1654TIP3    H1 4905   5.227   5.186   0.618
 1654TIP3    H2 4906   5.378   5.157   0.617
 1655TIP3   OH2 4907   5.532   5.124   0.704
 1655TIP3    H1 4908   5.547   5.027   0.716
 1655TIP3    H2 4909   5.528   5.158   0.795
 1656TIP3   OH2 4910   4.522   5.066   0.890
 1656TIP3    H1 4911   4.532   4.975   0.857
 1656TIP3    H2 4912   4.561   5.057   0.980
 1657TIP3   OH2 4913   5.027   4.735   0.739
 1657TIP3    H1 4914   5.096   4.666   0.733
 1657TIP3    H2 4915   4.992   4.733   0.648
 1658TIP3   OH2 4916   5.096   4.952   0.896
 1658TIP3    H1 4917   5.076   4.882   0.831
 1658TIP3    H2 4918   5.019   5.012   0.887
 1659TIP3   OH2 4919   4.045   5.398   0.165
 1659TIP3    H1 4920   4.061   5.428   0.075
 1659TIP3    H2 4921   4.134   5.415   0.203
 1660TIP3   OH2 4922   4.262   5.122   0.844
 1660TIP3    H1 4923   4.358   5.116   0.863
 1660TIP3    H2 4924   4.229   5.038   0.882
 1661TIP3   OH2 4925   6.111   4.988   0.627
 1661TIP3    H1 4926   6.157   4.914   0.581
 1661TIP3    H2 4927   6.069   5.031   0.551
 1662TIP3   OH2 4928   4.206   4.804   0.229
 1662TIP3    H1 4929   4.269   4.728   0.234
 1662TIP3    H2 4930   4.268   4.872   0.196
 1663TIP3   OH2 4931   5.917   5.099   0.465
 1663TIP3    H1 4932   5.870   5.176   0.499
 1663TIP3    H2 4933   5.988   5.137   0.409
 1664TIP3   OH2 4934   4.209   4.693   0.575
 1664TIP3    H1 4935   4.168   4.675   0.661
 1664TIP3    H2 4936   4.159   4.634   0.516
 1665TIP3   OH2 4937   4.261   6.100   0.652
 1665TIP3    H1 4938   4.167   6.077   0.640
 1665TIP3    H2 4939   4.273   6.085   0.746
 1666TIP3   OH2 4940   5.806   4.854   0.316
 1666TIP3    H1 4941   5.733   4.822   0.259
 1666TIP3    H2 4942   5.874   4.784   0.308
 1667TIP3   OH2 4943   4.055   6.387   0.320
 1667TIP3    H1 4944   3.972   6.431   0.297
 1667TIP3    H2 4945   4.095   6.454   0.378
 1668TIP3   OH2 4946   4.298   4.496  -0.013
 1668TIP3    H1 4947   4.205   4.467  -0.027
 1668TIP3    H2 4948   4.347   4.421  -0.049
 1669TIP3   OH2 4949   4.520   4.789   0.814
 1669TIP3    H1 4950   4.483   4.724   0.875
 1669TIP3    H2 4951   4.614   4.790   0.844
 1670TIP3   OH2 4952   4.767   4.790   0.938
 1670TIP3    H1 4953   4.853   4.770   0.898
 1670TIP3    H2 4954   4.759   4.719   1.005
 1671TIP3   OH2 4955   5.599   4.855   0.731
 1671TIP3    H1 4956   5.618   4.824   0.822
 1671TIP3    H2 4957   5.689   4.849   0.690
 1672TIP3   OH2 4958   0.394   6.033   1.812
 1672TIP3    H1 4959   0.425   5.967   1.748
 1672TIP3    H2 4960   0.327   6.079   1.760
 1673TIP3   OH2 4961   1.853   6.361   0.587
 1673TIP3    H1 4962   1.890   6.447   0.613
 1673TIP3    H2 4963   1.850   6.369   0.490
 1674TIP3   OH2 4964   1.941   6.583   0.745
 1674TIP3    H1 4965   1.872   6.634   0.699
 1674TIP3    H2 4966   1.919   6.599   0.838
 1675TIP3   OH2 4967   1.676   6.269   0.781
 1675TIP3    H1 4968   1.583   6.291   0.762
 1675TIP3    H2 4969   1.723   6.296   0.699
 1676TIP3   OH2 4970   1.716   6.755   1.061
 1676TIP3    H1 4971   1.626   6.764   1.027
 1676TIP3    H2 4972   1.730   6.659   1.050
 1677TIP3   OH2 4973   1.244   6.091   1.080
 1677TIP3    H1 4974   1.316   6.059   1.139
 1677TIP3    H2 4975   1.163   6.069   1.130
 1678TIP3   OH2 4976   1.495   6.552   0.989
 1678TIP3    H1 4977   1.448   6.516   1.068
 1678TIP3    H2 4978   1.430   6.619   0.962
 1679TIP3   OH2 4979   1.189   6.781   1.248
 1679TIP3    H1 4980   1.160   6.690   1.267
 1679TIP3    H2 4981   1.281   6.778   1.282
 1680TIP3   OH2 4982   1.359   6.285   0.931
 1680TIP3    H1 4983   1.396   6.324   1.010
 1680TIP3    H2 4984   1.316   6.207   0.968
 1681TIP3   OH2 4985   1.755   6.490   0.965
 1681TIP3    H1 4986   1.658   6.501   0.976
 1681TIP3    H2 4987   1.756   6.420   0.897
 1682TIP3   OH2 4988   1.250   7.119   1.335
 1682TIP3    H1 4989   1.271   7.096   1.243
 1682TIP3    H2 4990   1.261   7.035   1.382
 1683TIP3   OH2 4991   1.462   6.766   1.320
 1683TIP3    H1 4992   1.515   6.687   1.338
 1683TIP3    H2 4993   1.530   6.831   1.295
 1684TIP3   OH2 4994   1.517   7.019   1.061
 1684TIP3    H1 4995   1.445   7.078   1.031
 1684TIP3    H2 4996   1.589   7.050   1.005
 1685TIP3   OH2 4997   0.987   6.016   1.151
 1685TIP3    H1 4998   0.955   6.063   1.071
 1685TIP3    H2 4999   0.949   5.928   1.137
 1686TIP3   OH2 5000   1.103   6.544   1.360
 1686TIP3    H1 5001   1.126   6.547   1.455
 1686TIP3    H2 5002   1.044   6.467   1.362
 1687TIP3   OH2 5003   1.355   6.471   1.204
 1687TIP3    H1 5004   1.279   6.477   1.264
 1687TIP3    H2 5005   1.428   6.450   1.266
 1688TIP3   OH2 5006   1.579   6.425   1.359
 1688TIP3    H1 5007   1.591   6.329   1.376
 1688TIP3    H2 5008   1.572   6.462   1.449
 1689TIP3   OH2 5009   1.079   6.039   1.413
 1689TIP3    H1 5010   1.144   5.966   1.403
 1689TIP3    H2 5011   1.033   6.033   1.326
 1690TIP3   OH2 5012   1.155   6.268   1.539
 1690TIP3    H1 5013   1.135   6.184   1.493
 1690TIP3    H2 5014   1.066   6.305   1.553
 1691TIP3   OH2 5015   1.705   7.445   1.134
 1691TIP3    H1 5016   1.631   7.437   1.200
 1691TIP3    H2 5017   1.739   7.533   1.157
 1692TIP3   OH2 5018   1.775   7.105   0.935
 1692TIP3    H1 5019   1.831   7.026   0.953
 1692TIP3    H2 5020   1.789   7.115   0.840
 1693TIP3   OH2 5021   1.930   6.890   0.974
 1693TIP3    H1 5022   1.856   6.838   1.011
 1693TIP3    H2 5023   2.004   6.825   0.988
 1694TIP3   OH2 5024   2.134   6.291   1.273
 1694TIP3    H1 5025   2.194   6.226   1.232
 1694TIP3    H2 5026   2.104   6.343   1.196
 1695TIP3   OH2 5027   2.004   6.426   1.077
 1695TIP3    H1 5028   1.919   6.470   1.096
 1695TIP3    H2 5029   1.972   6.353   1.020
 1696TIP3   OH2 5030   1.903   6.189   0.960
 1696TIP3    H1 5031   1.814   6.181   0.920
 1696TIP3    H2 5032   1.936   6.096   0.951
 1697TIP3   OH2 5033   1.690   5.998   0.495
 1697TIP3    H1 5034   1.716   6.065   0.431
 1697TIP3    H2 5035   1.597   5.981   0.470
 1698TIP3   OH2 5036   0.706   5.993   1.429
 1698TIP3    H1 5037   0.634   5.963   1.488
 1698TIP3    H2 5038   0.772   5.926   1.447
 1699TIP3   OH2 5039   0.882   6.134   1.668
 1699TIP3    H1 5040   0.914   6.091   1.588
 1699TIP3    H2 5041   0.841   6.060   1.716
 1700TIP3   OH2 5042   1.640   6.155   1.391
 1700TIP3    H1 5043   1.657   6.124   1.483
 1700TIP3    H2 5044   1.730   6.148   1.351
 1701TIP3   OH2 5045   2.191   6.968   0.427
 1701TIP3    H1 5046   2.208   6.896   0.490
 1701TIP3    H2 5047   2.258   7.033   0.452
 1702TIP3   OH2 5048   2.410   6.479   0.079
 1702TIP3    H1 5049   2.340   6.522   0.025
 1702TIP3    H2 5050   2.390   6.386   0.057
 1703TIP3   OH2 5051   3.712   6.836   0.254
 1703TIP3    H1 5052   3.675   6.923   0.227
 1703TIP3    H2 5053   3.776   6.862   0.321
 1704TIP3   OH2 5054   2.391   6.443   0.519
 1704TIP3    H1 5055   2.339   6.483   0.446
 1704TIP3    H2 5056   2.333   6.463   0.595
 1705TIP3   OH2 5057   2.536   7.234   0.295
 1705TIP3    H1 5058   2.442   7.255   0.315
 1705TIP3    H2 5059   2.562   7.311   0.243
 1706TIP3   OH2 5060   2.265   6.548   0.304
 1706TIP3    H1 5061   2.290   6.641   0.315
 1706TIP3    H2 5062   2.316   6.525   0.224
 1707TIP3   OH2 5063   3.412   6.489   0.234
 1707TIP3    H1 5064   3.315   6.494   0.222
 1707TIP3    H2 5065   3.436   6.579   0.200
 1708TIP3   OH2 5066   2.745   6.172   0.228
 1708TIP3    H1 5067   2.736   6.076   0.245
 1708TIP3    H2 5068   2.667   6.207   0.276
 1709TIP3   OH2 5069   3.263   7.073   0.380
 1709TIP3    H1 5070   3.242   7.133   0.454
 1709TIP3    H2 5071   3.173   7.055   0.344
 1710TIP3   OH2 5072   2.462   6.971   0.216
 1710TIP3    H1 5073   2.417   6.969   0.130
 1710TIP3    H2 5074   2.486   7.064   0.227
 1711TIP3   OH2 5075   2.555   7.438   0.544
 1711TIP3    H1 5076   2.512   7.525   0.553
 1711TIP3    H2 5077   2.502   7.397   0.475
 1712TIP3   OH2 5078   2.282   7.113   0.650
 1712TIP3    H1 5079   2.290   7.194   0.703
 1712TIP3    H2 5080   2.189   7.087   0.670
 1713TIP3   OH2 5081   3.498   7.005   0.529
 1713TIP3    H1 5082   3.421   7.016   0.469
 1713TIP3    H2 5083   3.510   6.908   0.531
 1714TIP3   OH2 5084   2.084   7.424   0.614
 1714TIP3    H1 5085   2.163   7.402   0.666
 1714TIP3    H2 5086   2.036   7.340   0.613
 1715TIP3   OH2 5087   2.509   6.244   0.357
 1715TIP3    H1 5088   2.421   6.212   0.329
 1715TIP3    H2 5089   2.481   6.325   0.404
 1716TIP3   OH2 5090   3.040   6.362   0.551
 1716TIP3    H1 5091   3.108   6.332   0.614
 1716TIP3    H2 5092   2.956   6.340   0.597
 1717TIP3   OH2 5093   3.275   6.789   0.466
 1717TIP3    H1 5094   3.225   6.790   0.551
 1717TIP3    H2 5095   3.250   6.873   0.425
 1718TIP3   OH2 5096   2.438   6.759   0.386
 1718TIP3    H1 5097   2.380   6.786   0.459
 1718TIP3    H2 5098   2.436   6.838   0.327
 1719TIP3   OH2 5099   2.990   7.005   0.700
 1719TIP3    H1 5100   2.967   6.933   0.762
 1719TIP3    H2 5101   3.084   7.018   0.722
 1720TIP3   OH2 5102   2.266   6.780   0.615
 1720TIP3    H1 5103   2.317   6.820   0.687
 1720TIP3    H2 5104   2.250   6.690   0.649
 1721TIP3   OH2 5105   3.010   7.002   0.310
 1721TIP3    H1 5106   2.990   6.988   0.216
 1721TIP3    H2 5107   2.961   6.930   0.354
 1722TIP3   OH2 5108   2.666   6.469  -0.025
 1722TIP3    H1 5109   2.581   6.496   0.016
 1722TIP3    H2 5110   2.726   6.475   0.050
 1723TIP3   OH2 5111   3.141   6.508   0.200
 1723TIP3    H1 5112   3.103   6.566   0.269
 1723TIP3    H2 5113   3.062   6.463   0.166
 1724TIP3   OH2 5114   2.276   7.346   0.797
 1724TIP3    H1 5115   2.355   7.369   0.850
 1724TIP3    H2 5116   2.209   7.335   0.867
 1725TIP3   OH2 5117   2.841   6.747   0.120
 1725TIP3    H1 5118   2.764   6.731   0.062
 1725TIP3    H2 5119   2.806   6.718   0.207
 1726TIP3   OH2 5120   2.323   6.243  -0.042
 1726TIP3    H1 5121   2.292   6.157  -0.010
 1726TIP3    H2 5122   2.408   6.220  -0.086
 1727TIP3   OH2 5123   2.701   6.687   0.351
 1727TIP3    H1 5124   2.609   6.720   0.357
 1727TIP3    H2 5125   2.751   6.751   0.406
 1728TIP3   OH2 5126   2.863   7.446   0.433
 1728TIP3    H1 5127   2.884   7.368   0.486
 1728TIP3    H2 5128   2.776   7.470   0.466
 1729TIP3   OH2 5129   2.015   7.048   0.737
 1729TIP3    H1 5130   2.041   7.024   0.828
 1729TIP3    H2 5131   1.983   6.963   0.703
 1730TIP3   OH2 5132   2.749   7.129   0.745
 1730TIP3    H1 5133   2.687   7.082   0.688
 1730TIP3    H2 5134   2.835   7.095   0.712
 1731TIP3   OH2 5135   2.226   6.526   0.731
 1731TIP3    H1 5136   2.128   6.531   0.739
 1731TIP3    H2 5137   2.249   6.465   0.803
 1732TIP3   OH2 5138   3.051   6.614   0.439
 1732TIP3    H1 5139   3.141   6.642   0.464
 1732TIP3    H2 5140   3.045   6.526   0.481
 1733TIP3   OH2 5141   2.889   6.832   0.490
 1733TIP3    H1 5142   2.926   6.883   0.565
 1733TIP3    H2 5143   2.947   6.753   0.488
 1734TIP3   OH2 5144   3.540   6.735   0.480
 1734TIP3    H1 5145   3.442   6.733   0.476
 1734TIP3    H2 5146   3.564   6.735   0.386
 1735TIP3   OH2 5147   2.249   6.158   0.327
 1735TIP3    H1 5148   2.214   6.120   0.244
 1735TIP3    H2 5149   2.237   6.083   0.389
 1736TIP3   OH2 5150   2.055   7.298   0.966
 1736TIP3    H1 5151   2.096   7.209   0.960
 1736TIP3    H2 5152   1.968   7.276   1.001
 1737TIP3   OH2 5153   2.684   7.394   0.780
 1737TIP3    H1 5154   2.644   7.406   0.691
 1737TIP3    H2 5155   2.721   7.304   0.772
 1738TIP3   OH2 5156   3.143   7.431   0.387
 1738TIP3    H1 5157   3.174   7.500   0.326
 1738TIP3    H2 5158   3.051   7.461   0.403
 1739TIP3   OH2 5159   2.194   7.063   0.964
 1739TIP3    H1 5160   2.268   7.005   0.942
 1739TIP3    H2 5161   2.218   7.094   1.054
 1740TIP3   OH2 5162   2.517   6.951   0.631
 1740TIP3    H1 5163   2.443   7.014   0.627
 1740TIP3    H2 5164   2.573   6.982   0.556
 1741TIP3   OH2 5165   3.046   7.344   0.757
 1741TIP3    H1 5166   3.120   7.314   0.703
 1741TIP3    H2 5167   3.042   7.277   0.828
 1742TIP3   OH2 5168   2.643   6.738   0.751
 1742TIP3    H1 5169   2.644   6.659   0.694
 1742TIP3    H2 5170   2.601   6.805   0.693
 1743TIP3   OH2 5171   2.646   6.522   0.569
 1743TIP3    H1 5172   2.672   6.565   0.484
 1743TIP3    H2 5173   2.553   6.498   0.550
 1744TIP3   OH2 5174   2.683   7.062   0.451
 1744TIP3    H1 5175   2.766   7.049   0.404
 1744TIP3    H2 5176   2.636   7.125   0.392
 1745TIP3   OH2 5177   3.254   7.027   0.812
 1745TIP3    H1 5178   3.303   6.944   0.820
 1745TIP3    H2 5179   3.322   7.087   0.778
 1746TIP3   OH2 5180   3.272   7.279   0.571
 1746TIP3    H1 5181   3.224   7.338   0.507
 1746TIP3    H2 5182   3.364   7.291   0.539
 1747TIP3   OH2 5183   2.522   6.846   0.984
 1747TIP3    H1 5184   2.457   6.775   0.999
 1747TIP3    H2 5185   2.555   6.824   0.895
 1748TIP3   OH2 5186   2.780   6.286   0.629
 1748TIP3    H1 5187   2.729   6.367   0.608
 1748TIP3    H2 5188   2.711   6.217   0.617
 1749TIP3   OH2 5189   2.903   6.788   0.842
 1749TIP3    H1 5190   2.884   6.775   0.937
 1749TIP3    H2 5191   2.815   6.766   0.805
 1750TIP3   OH2 5192   3.146   6.748   0.700
 1750TIP3    H1 5193   3.070   6.744   0.762
 1750TIP3    H2 5194   3.220   6.716   0.756
 1751TIP3   OH2 5195   3.372   6.682   0.846
 1751TIP3    H1 5196   3.386   6.586   0.863
 1751TIP3    H2 5197   3.371   6.721   0.936
 1752TIP3   OH2 5198   2.364   6.626   1.036
 1752TIP3    H1 5199   2.364   6.535   1.001
 1752TIP3    H2 5200   2.399   6.612   1.126
 1753TIP3   OH2 5201   2.872   6.296   0.887
 1753TIP3    H1 5202   2.938   6.224   0.879
 1753TIP3    H2 5203   2.832   6.293   0.797
 1754TIP3   OH2 5204   2.937   6.510   1.046
 1754TIP3    H1 5205   2.917   6.439   0.980
 1754TIP3    H2 5206   2.860   6.569   1.036
 1755TIP3   OH2 5207   3.512   7.709   0.579
 1755TIP3    H1 5208   3.442   7.686   0.644
 1755TIP3    H2 5209   3.566   7.770   0.629
 1756TIP3   OH2 5210   3.534   7.335   0.494
 1756TIP3    H1 5211   3.606   7.270   0.509
 1756TIP3    H2 5212   3.556   7.359   0.402
 1757TIP3   OH2 5213   3.724   7.146   0.535
 1757TIP3    H1 5214   3.646   7.087   0.525
 1757TIP3    H2 5215   3.794   7.089   0.498
 1758TIP3   OH2 5216   2.099   6.683   1.016
 1758TIP3    H1 5217   2.196   6.671   1.013
 1758TIP3    H2 5218   2.071   6.593   1.044
 1759TIP3   OH2 5219   3.925   6.546   0.762
 1759TIP3    H1 5220   3.988   6.481   0.722
 1759TIP3    H2 5221   3.898   6.599   0.684
 1760TIP3   OH2 5222   2.060   6.365   0.338
 1760TIP3    H1 5223   2.131   6.301   0.352
 1760TIP3    H2 5224   2.112   6.447   0.322
 1761TIP3   OH2 5225   3.796   6.685   0.567
 1761TIP3    H1 5226   3.707   6.724   0.581
 1761TIP3    H2 5227   3.770   6.612   0.508
 1762TIP3   OH2 5228   2.060   6.228   0.723
 1762TIP3    H1 5229   2.009   6.225   0.805
 1762TIP3    H2 5230   1.996   6.268   0.661
 1763TIP3   OH2 5231   3.691   6.444   0.450
 1763TIP3    H1 5232   3.599   6.428   0.425
 1763TIP3    H2 5233   3.729   6.353   0.440
 1764TIP3   OH2 5234   2.939   6.342   0.078
 1764TIP3    H1 5235   2.872   6.296   0.133
 1764TIP3    H2 5236   2.940   6.284   0.001
 1765TIP3   OH2 5237   2.149   6.045   0.094
 1765TIP3    H1 5238   2.060   6.003   0.096
 1765TIP3    H2 5239   2.204   5.964   0.083
 1766TIP3   OH2 5240   2.599   6.064   0.008
 1766TIP3    H1 5241   2.683   6.045  -0.041
 1766TIP3    H2 5242   2.634   6.121   0.078
 1767TIP3   OH2 5243   2.358   6.351   0.974
 1767TIP3    H1 5244   2.323   6.279   1.030
 1767TIP3    H2 5245   2.452   6.351   1.001
 1768TIP3   OH2 5246   2.610   6.350   1.092
 1768TIP3    H1 5247   2.693   6.322   1.050
 1768TIP3    H2 5248   2.597   6.279   1.159
 1769TIP3   OH2 5249   3.437   6.411   0.878
 1769TIP3    H1 5250   3.458   6.379   0.968
 1769TIP3    H2 5251   3.525   6.408   0.834
 1770TIP3   OH2 5252   3.851   7.546   0.499
 1770TIP3    H1 5253   3.888   7.457   0.475
 1770TIP3    H2 5254   3.812   7.574   0.415
 1771TIP3   OH2 5255   3.993   7.317   0.457
 1771TIP3    H1 5256   4.038   7.233   0.446
 1771TIP3    H2 5257   4.022   7.346   0.545
 1772TIP3   OH2 5258   4.310   7.094   0.450
 1772TIP3    H1 5259   4.252   7.027   0.491
 1772TIP3    H2 5260   4.366   7.036   0.395
 1773TIP3   OH2 5261   4.154   6.875   0.525
 1773TIP3    H1 5262   4.157   6.784   0.490
 1773TIP3    H2 5263   4.195   6.861   0.613
 1774TIP3   OH2 5264   4.728   6.764   0.528
 1774TIP3    H1 5265   4.705   6.705   0.454
 1774TIP3    H2 5266   4.651   6.825   0.532
 1775TIP3   OH2 5267   3.891   6.929   0.471
 1775TIP3    H1 5268   3.987   6.923   0.487
 1775TIP3    H2 5269   3.861   6.850   0.520
 1776TIP3   OH2 5270   3.827   6.509   0.220
 1776TIP3    H1 5271   3.769   6.498   0.298
 1776TIP3    H2 5272   3.792   6.590   0.180
 1777TIP3   OH2 5273   4.153   6.591   0.478
 1777TIP3    H1 5274   4.133   6.528   0.550
 1777TIP3    H2 5275   4.250   6.598   0.487
 1778TIP3   OH2 5276   4.403   6.606   0.590
 1778TIP3    H1 5277   4.492   6.591   0.554
 1778TIP3    H2 5278   4.394   6.531   0.652
 1779TIP3   OH2 5279   1.394   0.038   3.991
 1779TIP3    H1 5280   1.386  -0.003   4.078
 1779TIP3    H2 5281   1.420   0.128   4.012
 1780TIP3   OH2 5282   1.050   0.507   3.979
 1780TIP3    H1 5283   1.088   0.427   3.940
 1780TIP3    H2 5284   1.028   0.478   4.069
 1781TIP3   OH2 5285   1.991  -0.506   4.525
 1781TIP3    H1 5286   1.916  -0.448   4.501
 1781TIP3    H2 5287   2.054  -0.444   4.565
 1782TIP3   OH2 5288   1.459   0.299   4.135
 1782TIP3    H1 5289   1.366   0.298   4.166
 1782TIP3    H2 5290   1.460   0.385   4.088
 1783TIP3   OH2 5291   1.684   0.207   4.482
 1783TIP3    H1 5292   1.676   0.132   4.419
 1783TIP3    H2 5293   1.666   0.284   4.423
 1784TIP3   OH2 5294   1.879  -0.150   4.325
 1784TIP3    H1 5295   1.797  -0.097   4.327
 1784TIP3    H2 5296   1.911  -0.129   4.235
 1785TIP3   OH2 5297   1.209   0.319   4.233
 1785TIP3    H1 5298   1.195   0.400   4.287
 1785TIP3    H2 5299   1.198   0.248   4.299
 1786TIP3   OH2 5300   1.926   0.551   4.531
 1786TIP3    H1 5301   1.928   0.454   4.542
 1786TIP3    H2 5302   1.844   0.573   4.579
 1787TIP3   OH2 5303   1.060   0.367   4.625
 1787TIP3    H1 5304   1.044   0.451   4.673
 1787TIP3    H2 5305   0.983   0.314   4.658
 1788TIP3   OH2 5306   1.818  -0.327   4.803
 1788TIP3    H1 5307   1.735  -0.279   4.793
 1788TIP3    H2 5308   1.793  -0.418   4.783
 1789TIP3   OH2 5309   1.645  -0.001   4.306
 1789TIP3    H1 5310   1.682   0.051   4.231
 1789TIP3    H2 5311   1.565  -0.041   4.267
 1790TIP3   OH2 5312   1.330   0.341   4.598
 1790TIP3    H1 5313   1.232   0.345   4.591
 1790TIP3    H2 5314   1.344   0.402   4.673
 1791TIP3   OH2 5315   1.937   0.272   4.563
 1791TIP3    H1 5316   1.839   0.261   4.559
 1791TIP3    H2 5317   1.961   0.241   4.473
 1792TIP3   OH2 5318   1.427  -0.154   4.216
 1792TIP3    H1 5319   1.335  -0.176   4.235
 1792TIP3    H2 5320   1.447  -0.213   4.141
 1793TIP3   OH2 5321   0.829   0.449   4.480
 1793TIP3    H1 5322   0.849   0.513   4.410
 1793TIP3    H2 5323   0.917   0.425   4.511
 1794TIP3   OH2 5324   1.248   0.102   4.410
 1794TIP3    H1 5325   1.214   0.093   4.500
 1794TIP3    H2 5326   1.343   0.099   4.425
 1795TIP3   OH2 5327   1.445   0.598   4.464
 1795TIP3    H1 5328   1.365   0.543   4.450
 1795TIP3    H2 5329   1.435   0.662   4.389
 1796TIP3   OH2 5330   1.471   0.565   4.060
 1796TIP3    H1 5331   1.425   0.615   3.988
 1796TIP3    H2 5332   1.564   0.587   4.038
 1797TIP3   OH2 5333   1.364   0.466   4.848
 1797TIP3    H1 5334   1.399   0.385   4.890
 1797TIP3    H2 5335   1.440   0.527   4.858
 1798TIP3   OH2 5336   1.470   0.108   4.624
 1798TIP3    H1 5337   1.554   0.137   4.584
 1798TIP3    H2 5338   1.421   0.194   4.618
 1799TIP3   OH2 5339   1.634  -0.063   4.787
 1799TIP3    H1 5340   1.577  -0.007   4.730
 1799TIP3    H2 5341   1.722  -0.036   4.752
 1800TIP3   OH2 5342   1.726   0.653   4.024
 1800TIP3    H1 5343   1.751   0.708   4.100
 1800TIP3    H2 5344   1.775   0.696   3.952
 1801TIP3   OH2 5345   1.745   0.679   4.316
 1801TIP3    H1 5346   1.706   0.592   4.298
 1801TIP3    H2 5347   1.833   0.652   4.347
 1802TIP3   OH2 5348   1.794   0.357   4.869
 1802TIP3    H1 5349   1.724   0.365   4.938
 1802TIP3    H2 5350   1.839   0.443   4.878
 1803TIP3   OH2 5351   1.799   0.130   4.126
 1803TIP3    H1 5352   1.848   0.062   4.075
 1803TIP3    H2 5353   1.799   0.206   4.064
 1804TIP3   OH2 5354   1.624   0.425   4.323
 1804TIP3    H1 5355   1.551   0.472   4.367
 1804TIP3    H2 5356   1.578   0.381   4.248
 1805TIP3   OH2 5357   1.868   0.027   4.685
 1805TIP3    H1 5358   1.937  -0.043   4.678
 1805TIP3    H2 5359   1.901   0.096   4.625
 1806TIP3   OH2 5360   2.031  -0.184   4.707
 1806TIP3    H1 5361   1.958  -0.236   4.746
 1806TIP3    H2 5362   2.106  -0.243   4.729
 1807TIP3   OH2 5363   1.707  -0.514   4.248
 1807TIP3    H1 5364   1.786  -0.488   4.196
 1807TIP3    H2 5365   1.727  -0.467   4.331
 1808TIP3   OH2 5366   1.762  -0.354   4.468
 1808TIP3    H1 5367   1.676  -0.316   4.492
 1808TIP3    H2 5368   1.805  -0.279   4.422
 1809TIP3   OH2 5369   1.287   0.537   3.675
 1809TIP3    H1 5370   1.324   0.492   3.597
 1809TIP3    H2 5371   1.363   0.581   3.714
 1810TIP3   OH2 5372   1.031   0.615   4.749
 1810TIP3    H1 5373   1.065   0.605   4.840
 1810TIP3    H2 5374   1.102   0.667   4.706
 1811TIP3   OH2 5375   1.221   0.756   4.608
 1811TIP3    H1 5376   1.266   0.695   4.548
 1811TIP3    H2 5377   1.279   0.833   4.605
 1812TIP3   OH2 5378   0.931   0.629   4.281
 1812TIP3    H1 5379   0.854   0.642   4.222
 1812TIP3    H2 5380   0.942   0.719   4.317
 1813TIP3   OH2 5381   1.194   0.574   4.346
 1813TIP3    H1 5382   1.099   0.588   4.324
 1813TIP3    H2 5383   1.236   0.641   4.288
 1814TIP3   OH2 5384   1.398   0.757   4.249
 1814TIP3    H1 5385   1.384   0.843   4.203
 1814TIP3    H2 5386   1.425   0.699   4.174
 1815TIP3   OH2 5387   1.673   0.647   4.619
 1815TIP3    H1 5388   1.592   0.614   4.575
 1815TIP3    H2 5389   1.698   0.719   4.560
 1816TIP3   OH2 5390   2.942   0.006   3.393
 1816TIP3    H1 5391   2.912   0.097   3.372
 1816TIP3    H2 5392   2.871  -0.045   3.350
 1817TIP3   OH2 5393   2.939   0.012   3.778
 1817TIP3    H1 5394   2.974  -0.012   3.866
 1817TIP3    H2 5395   2.904  -0.073   3.746
 1818TIP3   OH2 5396   2.237  -0.098   4.139
 1818TIP3    H1 5397   2.269  -0.168   4.199
 1818TIP3    H2 5398   2.317  -0.043   4.132
 1819TIP3   OH2 5399   3.187   0.317   3.457
 1819TIP3    H1 5400   3.173   0.246   3.521
 1819TIP3    H2 5401   3.218   0.390   3.513
 1820TIP3   OH2 5402   2.214   0.310   3.862
 1820TIP3    H1 5403   2.205   0.213   3.864
 1820TIP3    H2 5404   2.311   0.320   3.856
 1821TIP3   OH2 5405   1.987  -0.179   3.807
 1821TIP3    H1 5406   2.025  -0.263   3.841
 1821TIP3    H2 5407   2.065  -0.124   3.789
 1822TIP3   OH2 5408   2.836   0.773   3.475
 1822TIP3    H1 5409   2.881   0.703   3.423
 1822TIP3    H2 5410   2.826   0.730   3.561
 1823TIP3   OH2 5411   2.741   0.234   3.822
 1823TIP3    H1 5412   2.783   0.156   3.782
 1823TIP3    H2 5413   2.822   0.283   3.847
 1824TIP3   OH2 5414   3.158  -0.264   3.868
 1824TIP3    H1 5415   3.178  -0.354   3.896
 1824TIP3    H2 5416   3.120  -0.277   3.779
 1825TIP3   OH2 5417   2.461  -0.654   3.790
 1825TIP3    H1 5418   2.439  -0.566   3.755
 1825TIP3    H2 5419   2.396  -0.711   3.746
 1826TIP3   OH2 5420   3.152  -0.484   3.492
 1826TIP3    H1 5421   3.213  -0.534   3.551
 1826TIP3    H2 5422   3.202  -0.486   3.409
 1827TIP3   OH2 5423   2.098  -0.409   3.909
 1827TIP3    H1 5424   2.190  -0.400   3.944
 1827TIP3    H2 5425   2.107  -0.491   3.860
 1828TIP3   OH2 5426   2.560  -0.209   3.719
 1828TIP3    H1 5427   2.656  -0.226   3.736
 1828TIP3    H2 5428   2.529  -0.300   3.703
 1829TIP3   OH2 5429   3.789  -0.255   4.020
 1829TIP3    H1 5430   3.717  -0.200   3.985
 1829TIP3    H2 5431   3.851  -0.189   4.055
 1830TIP3   OH2 5432   2.832   0.227   3.261
 1830TIP3    H1 5433   2.796   0.215   3.171
 1830TIP3    H2 5434   2.787   0.310   3.288
 1831TIP3   OH2 5435   2.594   0.154   4.044
 1831TIP3    H1 5436   2.534   0.222   4.083
 1831TIP3    H2 5437   2.637   0.203   3.972
 1832TIP3   OH2 5438   2.353  -0.434   3.983
 1832TIP3    H1 5439   2.423  -0.387   4.032
 1832TIP3    H2 5440   2.380  -0.526   4.002
 1833TIP3   OH2 5441   2.424   0.350   4.145
 1833TIP3    H1 5442   2.398   0.438   4.109
 1833TIP3    H2 5443   2.345   0.333   4.201
 1834TIP3   OH2 5444   3.248   0.554   3.617
 1834TIP3    H1 5445   3.160   0.549   3.659
 1834TIP3    H2 5446   3.245   0.644   3.578
 1835TIP3   OH2 5447   2.953   0.608   3.288
 1835TIP3    H1 5448   3.002   0.523   3.276
 1835TIP3    H2 5449   3.018   0.669   3.247
 1836TIP3   OH2 5450   3.099   0.394   3.208
 1836TIP3    H1 5451   3.070   0.313   3.163
 1836TIP3    H2 5452   3.136   0.356   3.292
 1837TIP3   OH2 5453   3.480   0.464   3.968
 1837TIP3    H1 5454   3.469   0.389   3.905
 1837TIP3    H2 5455   3.464   0.541   3.910
 1838TIP3   OH2 5456   2.781  -0.141   3.219
 1838TIP3    H1 5457   2.700  -0.092   3.196
 1838TIP3    H2 5458   2.822  -0.158   3.132
 1839TIP3   OH2 5459   3.678   0.107   3.812
 1839TIP3    H1 5460   3.594   0.158   3.815
 1839TIP3    H2 5461   3.708   0.131   3.721
 1840TIP3   OH2 5462   3.126  -0.045   3.196
 1840TIP3    H1 5463   3.070  -0.027   3.275
 1840TIP3    H2 5464   3.210  -0.072   3.239
 1841TIP3   OH2 5465   3.354  -0.017   4.113
 1841TIP3    H1 5466   3.350   0.064   4.166
 1841TIP3    H2 5467   3.268  -0.013   4.068
 1842TIP3   OH2 5468   2.356  -0.061   3.611
 1842TIP3    H1 5469   2.335  -0.107   3.528
 1842TIP3    H2 5470   2.433  -0.113   3.645
 1843TIP3   OH2 5471   2.483   0.351   3.760
 1843TIP3    H1 5472   2.463   0.320   3.671
 1843TIP3    H2 5473   2.572   0.314   3.776
 1844TIP3   OH2 5474   2.487  -0.088   3.969
 1844TIP3    H1 5475   2.523  -0.116   3.882
 1844TIP3    H2 5476   2.533  -0.004   3.987
 1845TIP3   OH2 5477   3.010   0.555   3.748
 1845TIP3    H1 5478   3.005   0.629   3.810
 1845TIP3    H2 5479   2.999   0.477   3.806
 1846TIP3   OH2 5480   2.629   0.468   4.288
 1846TIP3    H1 5481   2.568   0.528   4.336
 1846TIP3    H2 5482   2.565   0.414   4.238
 1847TIP3   OH2 5483   2.978  -0.195   3.021
 1847TIP3    H1 5484   3.033  -0.135   3.075
 1847TIP3    H2 5485   3.002  -0.169   2.930
 1848TIP3   OH2 5486   2.375   0.034   4.387
 1848TIP3    H1 5487   2.381   0.118   4.436
 1848TIP3    H2 5488   2.282   0.009   4.404
 1849TIP3   OH2 5489   2.708   0.473   3.301
 1849TIP3    H1 5490   2.782   0.535   3.313
 1849TIP3    H2 5491   2.643   0.526   3.253
 1850TIP3   OH2 5492   2.422   0.632   4.376
 1850TIP3    H1 5493   2.386   0.636   4.286
 1850TIP3    H2 5494   2.342   0.612   4.430
 1851TIP3   OH2 5495   3.283   0.410   2.600
 1851TIP3    H1 5496   3.305   0.499   2.573
 1851TIP3    H2 5497   3.373   0.369   2.606
 1852TIP3   OH2 5498   2.000   0.167   4.324
 1852TIP3    H1 5499   1.936   0.147   4.252
 1852TIP3    H2 5500   2.039   0.080   4.345
 1853TIP3   OH2 5501   1.856   0.355   3.965
 1853TIP3    H1 5502   1.952   0.359   3.950
 1853TIP3    H2 5503   1.840   0.440   4.008
 1854TIP3   OH2 5504   3.737   0.802   4.012
 1854TIP3    H1 5505   3.728   0.708   4.034
 1854TIP3    H2 5506   3.649   0.835   4.043
 1855TIP3   OH2 5507   2.821   0.601   4.147
 1855TIP3    H1 5508   2.817   0.691   4.184
 1855TIP3    H2 5509   2.752   0.555   4.200
 1856TIP3   OH2 5510   2.593   0.735   3.102
 1856TIP3    H1 5511   2.541   0.714   3.023
 1856TIP3    H2 5512   2.555   0.819   3.132
 1857TIP3   OH2 5513   2.036   0.591   3.484
 1857TIP3    H1 5514   2.076   0.576   3.572
 1857TIP3    H2 5515   1.984   0.507   3.475
 1858TIP3   OH2 5516   2.834   0.623   2.755
 1858TIP3    H1 5517   2.852   0.537   2.726
 1858TIP3    H2 5518   2.811   0.615   2.847
 1859TIP3   OH2 5519   2.836   0.661   3.021
 1859TIP3    H1 5520   2.746   0.680   3.056
 1859TIP3    H2 5521   2.877   0.620   3.099
 1860TIP3   OH2 5522   3.607  -0.073   4.291
 1860TIP3    H1 5523   3.529  -0.040   4.244
 1860TIP3    H2 5524   3.597  -0.169   4.279
 1861TIP3   OH2 5525   2.205   0.350   4.309
 1861TIP3    H1 5526   2.254   0.334   4.392
 1861TIP3    H2 5527   2.131   0.286   4.317
 1862TIP3   OH2 5528   3.381  -0.275   4.232
 1862TIP3    H1 5529   3.351  -0.244   4.318
 1862TIP3    H2 5530   3.362  -0.199   4.174
 1863TIP3   OH2 5531   3.041  -0.132   2.758
 1863TIP3    H1 5532   3.036  -0.168   2.669
 1863TIP3    H2 5533   3.127  -0.086   2.753
 1864TIP3   OH2 5534   2.552  -0.303   4.131
 1864TIP3    H1 5535   2.493  -0.285   4.206
 1864TIP3    H2 5536   2.538  -0.222   4.076
 1865TIP3   OH2 5537   2.415  -0.442   3.620
 1865TIP3    H1 5538   2.322  -0.430   3.598
 1865TIP3    H2 5539   2.456  -0.454   3.533
 1866TIP3   OH2 5540   2.908  -0.342   3.356
 1866TIP3    H1 5541   2.866  -0.268   3.307
 1866TIP3    H2 5542   2.968  -0.379   3.287
 1867TIP3   OH2 5543   3.093  -0.033   4.429
 1867TIP3    H1 5544   3.069  -0.114   4.480
 1867TIP3    H2 5545   3.188  -0.025   4.453
 1868TIP3   OH2 5546   3.045  -0.270   3.617
 1868TIP3    H1 5547   2.991  -0.227   3.548
 1868TIP3    H2 5548   3.072  -0.351   3.567
 1869TIP3   OH2 5549   2.354  -0.277   4.325
 1869TIP3    H1 5550   2.380  -0.216   4.396
 1869TIP3    H2 5551   2.340  -0.360   4.373
 1870TIP3   OH2 5552   3.069  -0.061   4.018
 1870TIP3    H1 5553   3.109  -0.131   3.962
 1870TIP3    H2 5554   3.047  -0.114   4.097
 1871TIP3   OH2 5555   2.367   0.274   4.533
 1871TIP3    H1 5556   2.448   0.302   4.580
 1871TIP3    H2 5557   2.303   0.273   4.607
 1872TIP3   OH2 5558   2.815  -0.271   3.789
 1872TIP3    H1 5559   2.899  -0.299   3.749
 1872TIP3    H2 5560   2.823  -0.307   3.880
 1873TIP3   OH2 5561   2.827  -0.344   4.050
 1873TIP3    H1 5562   2.737  -0.349   4.089
 1873TIP3    H2 5563   2.878  -0.302   4.121
 1874TIP3   OH2 5564   2.537  -0.002   3.184
 1874TIP3    H1 5565   2.442   0.003   3.170
 1874TIP3    H2 5566   2.541   0.039   3.274
 1875TIP3   OH2 5567   3.443   0.249   3.798
 1875TIP3    H1 5568   3.467   0.301   3.718
 1875TIP3    H2 5569   3.358   0.208   3.772
 1876TIP3   OH2 5570   2.937   0.329   4.170
 1876TIP3    H1 5571   2.977   0.309   4.255
 1876TIP3    H2 5572   2.905   0.420   4.181
 1877TIP3   OH2 5573   3.067  -0.425   3.148
 1877TIP3    H1 5574   3.164  -0.411   3.150
 1877TIP3    H2 5575   3.036  -0.352   3.091
 1878TIP3   OH2 5576   2.230   0.022   3.846
 1878TIP3    H1 5577   2.275   0.002   3.761
 1878TIP3    H2 5578   2.287  -0.024   3.909
 1879TIP3   OH2 5579   2.685   0.166   3.018
 1879TIP3    H1 5580   2.642   0.254   3.028
 1879TIP3    H2 5581   2.628   0.110   3.075
 1880TIP3   OH2 5582   2.118  -0.044   4.464
 1880TIP3    H1 5583   2.141  -0.060   4.557
 1880TIP3    H2 5584   2.049  -0.110   4.448
 1881TIP3   OH2 5585   2.844   0.074   4.485
 1881TIP3    H1 5586   2.784   0.018   4.433
 1881TIP3    H2 5587   2.932   0.045   4.451
 1882TIP3   OH2 5588   3.098   0.585   4.068
 1882TIP3    H1 5589   3.002   0.588   4.084
 1882TIP3    H2 5590   3.131   0.640   4.142
 1883TIP3   OH2 5591   3.514  -0.341   2.961
 1883TIP3    H1 5592   3.456  -0.393   2.901
 1883TIP3    H2 5593   3.496  -0.251   2.926
 1884TIP3   OH2 5594   3.731   0.515   4.059
 1884TIP3    H1 5595   3.633   0.516   4.049
 1884TIP3    H2 5596   3.756   0.490   3.967
 1885TIP3   OH2 5597   3.208   0.115   3.716
 1885TIP3    H1 5598   3.114   0.089   3.729
 1885TIP3    H2 5599   3.242   0.035   3.671
 1886TIP3   OH2 5600   2.335   0.341   3.472
 1886TIP3    H1 5601   2.330   0.424   3.420
 1886TIP3    H2 5602   2.241   0.318   3.477
 1887TIP3   OH2 5603   2.473   0.109   3.420
 1887TIP3    H1 5604   2.438   0.200   3.433
 1887TIP3    H2 5605   2.440   0.064   3.500
 1888TIP3   OH2 5606   2.608   0.683   3.942
 1888TIP3    H1 5607   2.651   0.756   3.892
 1888TIP3    H2 5608   2.684   0.643   3.987
 1889TIP3   OH2 5609   2.260   0.577   3.324
 1889TIP3    H1 5610   2.174   0.589   3.371
 1889TIP3    H2 5611   2.293   0.670   3.325
 1890TIP3   OH2 5612   2.992   0.318   3.901
 1890TIP3    H1 5613   2.981   0.316   3.998
 1890TIP3    H2 5614   3.074   0.267   3.890
 1891TIP3   OH2 5615   2.973   0.222   2.775
 1891TIP3    H1 5616   3.018   0.196   2.859
 1891TIP3    H2 5617   2.887   0.178   2.785
 1892TIP3   OH2 5618   3.246   0.846   3.943
 1892TIP3    H1 5619   3.160   0.803   3.951
 1892TIP3    H2 5620   3.226   0.917   3.879
 1893TIP3   OH2 5621   3.126   0.140   2.992
 1893TIP3    H1 5622   3.117   0.079   3.068
 1893TIP3    H2 5623   3.223   0.144   2.984
 1894TIP3   OH2 5624   2.046   0.546   4.101
 1894TIP3    H1 5625   2.099   0.474   4.139
 1894TIP3    H2 5626   2.077   0.622   4.153
 1895TIP3   OH2 5627   2.309   0.202   3.035
 1895TIP3    H1 5628   2.298   0.178   3.127
 1895TIP3    H2 5629   2.293   0.298   3.039
 1896TIP3   OH2 5630   2.559   0.404   3.025
 1896TIP3    H1 5631   2.469   0.426   3.057
 1896TIP3    H2 5632   2.551   0.421   2.930
 1897TIP3   OH2 5633   2.715  -0.527   3.405
 1897TIP3    H1 5634   2.782  -0.457   3.395
 1897TIP3    H2 5635   2.763  -0.591   3.460
 1898TIP3   OH2 5636   3.017  -0.224   4.229
 1898TIP3    H1 5637   3.014  -0.164   4.305
 1898TIP3    H2 5638   3.067  -0.297   4.266
 1899TIP3   OH2 5639   2.295   0.469   3.074
 1899TIP3    H1 5640   2.260   0.539   3.014
 1899TIP3    H2 5641   2.273   0.506   3.162
 1900TIP3   OH2 5642   3.295  -0.128   3.596
 1900TIP3    H1 5643   3.216  -0.180   3.618
 1900TIP3    H2 5644   3.366  -0.175   3.645
 1901TIP3   OH2 5645   3.263   0.824   3.542
 1901TIP3    H1 5646   3.222   0.869   3.464
 1901TIP3    H2 5647   3.358   0.846   3.526
 1902TIP3   OH2 5648   1.914   0.349   3.459
 1902TIP3    H1 5649   1.823   0.319   3.472
 1902TIP3    H2 5650   1.932   0.311   3.372
 1903TIP3   OH2 5651   2.036   0.856   4.531
 1903TIP3    H1 5652   2.123   0.863   4.575
 1903TIP3    H2 5653   2.028   0.759   4.522
 1904TIP3   OH2 5654   2.508   0.813   4.570
 1904TIP3    H1 5655   2.604   0.809   4.577
 1904TIP3    H2 5656   2.490   0.750   4.498
 1905TIP3   OH2 5657   2.516   0.406   2.746
 1905TIP3    H1 5658   2.457   0.338   2.782
 1905TIP3    H2 5659   2.509   0.381   2.651
 1906TIP3   OH2 5660   3.147   0.731   4.298
 1906TIP3    H1 5661   3.145   0.662   4.368
 1906TIP3    H2 5662   3.229   0.780   4.321
 1907TIP3   OH2 5663   2.961   0.437   2.610
 1907TIP3    H1 5664   2.988   0.367   2.674
 1907TIP3    H2 5665   3.025   0.421   2.538
 1908TIP3   OH2 5666   2.166   0.262   4.725
 1908TIP3    H1 5667   2.182   0.166   4.731
 1908TIP3    H2 5668   2.079   0.265   4.678
 1909TIP3   OH2 5669   2.771   0.347   4.499
 1909TIP3    H1 5670   2.733   0.366   4.411
 1909TIP3    H2 5671   2.803   0.255   4.490
 1910TIP3   OH2 5672   2.704   0.111   2.748
 1910TIP3    H1 5673   2.689   0.129   2.844
 1910TIP3    H2 5674   2.691   0.015   2.745
 1911TIP3   OH2 5675   3.263   0.359   4.104
 1911TIP3    H1 5676   3.342   0.399   4.061
 1911TIP3    H2 5677   3.197   0.429   4.087
 1912TIP3   OH2 5678   2.291  -0.003   4.705
 1912TIP3    H1 5679   2.373  -0.050   4.684
 1912TIP3    H2 5680   2.312   0.029   4.795
 1913TIP3   OH2 5681   2.618  -0.092   4.365
 1913TIP3    H1 5682   2.536  -0.038   4.359
 1913TIP3    H2 5683   2.668  -0.064   4.285
 1914TIP3   OH2 5684   3.140   0.284   4.501
 1914TIP3    H1 5685   3.214   0.251   4.449
 1914TIP3    H2 5686   3.129   0.214   4.568
 1915TIP3   OH2 5687   3.282  -0.049   2.644
 1915TIP3    H1 5688   3.255  -0.094   2.561
 1915TIP3    H2 5689   3.247   0.041   2.622
 1916TIP3   OH2 5690   2.704  -0.314   4.490
 1916TIP3    H1 5691   2.656  -0.375   4.432
 1916TIP3    H2 5692   2.678  -0.228   4.448
 1917TIP3   OH2 5693   2.781  -0.004   4.169
 1917TIP3    H1 5694   2.864   0.003   4.121
 1917TIP3    H2 5695   2.724   0.061   4.122
 1918TIP3   OH2 5696   3.346  -0.041   4.532
 1918TIP3    H1 5697   3.379  -0.097   4.606
 1918TIP3    H2 5698   3.424   0.011   4.509
 1919TIP3   OH2 5699   3.395   0.210   4.287
 1919TIP3    H1 5700   3.336   0.266   4.230
 1919TIP3    H2 5701   3.482   0.235   4.249
 1920TIP3   OH2 5702   2.585  -0.186   4.717
 1920TIP3    H1 5703   2.549  -0.264   4.762
 1920TIP3    H2 5704   2.645  -0.225   4.651
 1921TIP3   OH2 5705   2.986  -0.258   4.525
 1921TIP3    H1 5706   3.015  -0.292   4.612
 1921TIP3    H2 5707   2.890  -0.273   4.530
 1922TIP3   OH2 5708   2.258   0.663   2.885
 1922TIP3    H1 5709   2.355   0.668   2.871
 1922TIP3    H2 5710   2.229   0.717   2.810
 1923TIP3   OH2 5711   1.648   0.653   3.504
 1923TIP3    H1 5712   1.587   0.584   3.476
 1923TIP3    H2 5713   1.698   0.607   3.576
 1924TIP3   OH2 5714   1.772   0.532   3.712
 1924TIP3    H1 5715   1.779   0.447   3.757
 1924TIP3    H2 5716   1.836   0.585   3.762
 1925TIP3   OH2 5717   3.515   0.917   3.502
 1925TIP3    H1 5718   3.537   0.943   3.594
 1925TIP3    H2 5719   3.581   0.965   3.451
 1926TIP3   OH2 5720   3.547   0.932   3.777
 1926TIP3    H1 5721   3.508   0.843   3.787
 1926TIP3    H2 5722   3.618   0.926   3.843
 1927TIP3   OH2 5723   3.592   0.606   4.362
 1927TIP3    H1 5724   3.516   0.620   4.422
 1927TIP3    H2 5725   3.635   0.694   4.365
 1928TIP3   OH2 5726   3.410   0.123   2.973
 1928TIP3    H1 5727   3.478   0.189   2.946
 1928TIP3    H2 5728   3.452   0.087   3.055
 1929TIP3   OH2 5729   3.535  -0.004   3.178
 1929TIP3    H1 5730   3.470  -0.043   3.240
 1929TIP3    H2 5731   3.601   0.036   3.239
 1930TIP3   OH2 5732   3.591   0.386   3.610
 1930TIP3    H1 5733   3.646   0.320   3.564
 1930TIP3    H2 5734   3.588   0.459   3.546
 1931TIP3   OH2 5735   3.422   0.680   3.808
 1931TIP3    H1 5736   3.357   0.731   3.862
 1931TIP3    H2 5737   3.366   0.639   3.740
 1932TIP3   OH2 5738   3.467  -0.105   2.829
 1932TIP3    H1 5739   3.403  -0.087   2.757
 1932TIP3    H2 5740   3.446  -0.029   2.888
 1933TIP3   OH2 5741   3.340  -0.443   2.774
 1933TIP3    H1 5742   3.323  -0.358   2.734
 1933TIP3    H2 5743   3.247  -0.474   2.789
 1934TIP3   OH2 5744   3.350  -0.138   3.326
 1934TIP3    H1 5745   3.347  -0.233   3.302
 1934TIP3    H2 5746   3.336  -0.138   3.423
 1935TIP3   OH2 5747   1.972  -0.082   4.074
 1935TIP3    H1 5748   1.967  -0.109   3.981
 1935TIP3    H2 5749   2.070  -0.079   4.088
 1936TIP3   OH2 5750   3.639   0.275   4.184
 1936TIP3    H1 5751   3.712   0.210   4.172
 1936TIP3    H2 5752   3.666   0.347   4.124
 1937TIP3   OH2 5753   3.819   0.074   4.197
 1937TIP3    H1 5754   3.746   0.021   4.236
 1937TIP3    H2 5755   3.895   0.015   4.215
 1938TIP3   OH2 5756   3.343  -0.390   3.190
 1938TIP3    H1 5757   3.368  -0.469   3.244
 1938TIP3    H2 5758   3.411  -0.391   3.119
 1939TIP3   OH2 5759   3.503  -0.254   3.723
 1939TIP3    H1 5760   3.589  -0.232   3.681
 1939TIP3    H2 5761   3.519  -0.219   3.813
 1940TIP3   OH2 5762   3.572  -0.106   3.950
 1940TIP3    H1 5763   3.494  -0.071   3.997
 1940TIP3    H2 5764   3.605  -0.027   3.903
 1941TIP3   OH2 5765   2.195  -0.397   4.745
 1941TIP3    H1 5766   2.289  -0.411   4.734
 1941TIP3    H2 5767   2.164  -0.484   4.775
 1942TIP3   OH2 5768   1.951  -0.422   4.149
 1942TIP3    H1 5769   1.997  -0.417   4.063
 1942TIP3    H2 5770   1.982  -0.343   4.193
 1943TIP3   OH2 5771   3.110   0.781   3.143
 1943TIP3    H1 5772   3.195   0.737   3.135
 1943TIP3    H2 5773   3.129   0.853   3.206
 1944TIP3   OH2 5774   2.202   0.588   4.540
 1944TIP3    H1 5775   2.109   0.560   4.528
 1944TIP3    H2 5776   2.215   0.573   4.634
 1945TIP3   OH2 5777   2.380   0.621   4.090
 1945TIP3    H1 5778   2.332   0.698   4.052
 1945TIP3    H2 5779   2.466   0.635   4.046
 1946TIP3   OH2 5780   2.855   0.878   4.218
 1946TIP3    H1 5781   2.867   0.875   4.315
 1946TIP3    H2 5782   2.947   0.861   4.191
 1947TIP3   OH2 5783   2.058   0.875   4.121
 1947TIP3    H1 5784   1.967   0.903   4.095
 1947TIP3    H2 5785   2.072   0.934   4.197
 1948TIP3   OH2 5786   2.293   0.856   3.975
 1948TIP3    H1 5787   2.206   0.868   4.019
 1948TIP3    H2 5788   2.273   0.889   3.885
 1949TIP3   OH2 5789   2.715   0.894   3.771
 1949TIP3    H1 5790   2.643   0.893   3.704
 1949TIP3    H2 5791   2.716   0.988   3.794
 1950TIP3   OH2 5792   2.981   0.830   3.838
 1950TIP3    H1 5793   2.892   0.848   3.801
 1950TIP3    H2 5794   3.037   0.893   3.789
 1951TIP3   OH2 5795   3.177   1.011   3.734
 1951TIP3    H1 5796   3.174   1.098   3.688
 1951TIP3    H2 5797   3.217   0.954   3.665
 1952TIP3   OH2 5798   1.966   0.668   3.860
 1952TIP3    H1 5799   1.992   0.642   3.950
 1952TIP3    H2 5800   2.039   0.626   3.809
 1953TIP3   OH2 5801   2.164   0.543   3.723
 1953TIP3    H1 5802   2.179   0.458   3.769
 1953TIP3    H2 5803   2.255   0.578   3.715
 1954TIP3   OH2 5804   2.431   0.635   3.722
 1954TIP3    H1 5805   2.461   0.542   3.711
 1954TIP3    H2 5806   2.476   0.657   3.806
 1955TIP3   OH2 5807   1.719   0.447   3.238
 1955TIP3    H1 5808   1.623   0.444   3.247
 1955TIP3    H2 5809   1.738   0.541   3.252
 1956TIP3   OH2 5810   2.529   0.664   2.833
 1956TIP3    H1 5811   2.589   0.706   2.772
 1956TIP3    H2 5812   2.523   0.573   2.795
 1957TIP3   OH2 5813   3.494   0.890   4.077
 1957TIP3    H1 5814   3.399   0.890   4.059
 1957TIP3    H2 5815   3.505   0.964   4.142
 1958TIP3   OH2 5816   4.739   0.262   2.879
 1958TIP3    H1 5817   4.712   0.355   2.861
 1958TIP3    H2 5818   4.661   0.215   2.844
 1959TIP3   OH2 5819   4.740   0.265   3.262
 1959TIP3    H1 5820   4.771   0.244   3.352
 1959TIP3    H2 5821   4.695   0.184   3.236
 1960TIP3   OH2 5822   4.034   0.159   3.625
 1960TIP3    H1 5823   4.067   0.089   3.684
 1960TIP3    H2 5824   4.113   0.216   3.620
 1961TIP3   OH2 5825   4.983   0.570   2.945
 1961TIP3    H1 5826   4.969   0.502   3.013
 1961TIP3    H2 5827   5.013   0.646   2.997
 1962TIP3   OH2 5828   4.008   0.568   3.343
 1962TIP3    H1 5829   4.001   0.471   3.347
 1962TIP3    H2 5830   4.105   0.580   3.345
 1963TIP3   OH2 5831   3.706  -0.219   3.143
 1963TIP3    H1 5832   3.654  -0.137   3.158
 1963TIP3    H2 5833   3.642  -0.272   3.094
 1964TIP3   OH2 5834   3.767   0.070   3.305
 1964TIP3    H1 5835   3.809  -0.013   3.338
 1964TIP3    H2 5836   3.838   0.107   3.251
 1965TIP3   OH2 5837   4.633   1.030   2.959
 1965TIP3    H1 5838   4.676   0.957   2.910
 1965TIP3    H2 5839   4.624   0.992   3.047
 1966TIP3   OH2 5840   4.536   0.491   3.309
 1966TIP3    H1 5841   4.577   0.415   3.265
 1966TIP3    H2 5842   4.618   0.539   3.335
 1967TIP3   OH2 5843   4.956  -0.008   3.356
 1967TIP3    H1 5844   4.974  -0.099   3.382
 1967TIP3    H2 5845   4.917  -0.018   3.266
 1968TIP3   OH2 5846   4.281  -0.392   3.265
 1968TIP3    H1 5847   4.255  -0.300   3.244
 1968TIP3    H2 5848   4.195  -0.436   3.260
 1969TIP3   OH2 5849   4.943  -0.235   2.978
 1969TIP3    H1 5850   5.003  -0.280   3.041
 1969TIP3    H2 5851   4.999  -0.232   2.899
 1970TIP3   OH2 5852   3.898  -0.147   3.402
 1970TIP3    H1 5853   3.990  -0.142   3.437
 1970TIP3    H2 5854   3.913  -0.209   3.329
 1971TIP3   OH2 5855   4.358   0.055   3.210
 1971TIP3    H1 5856   4.451   0.028   3.225
 1971TIP3    H2 5857   4.318  -0.031   3.184
 1972TIP3   OH2 5858   5.582   0.001   3.510
 1972TIP3    H1 5859   5.510   0.055   3.472
 1972TIP3    H2 5860   5.647   0.068   3.536
 1973TIP3   OH2 5861   4.629   0.486   2.746
 1973TIP3    H1 5862   4.586   0.472   2.661
 1973TIP3    H2 5863   4.585   0.568   2.776
 1974TIP3   OH2 5864   4.392   0.410   3.533
 1974TIP3    H1 5865   4.331   0.478   3.570
 1974TIP3    H2 5866   4.433   0.459   3.459
 1975TIP3   OH2 5867   4.156  -0.182   3.469
 1975TIP3    H1 5868   4.224  -0.131   3.517
 1975TIP3    H2 5869   4.177  -0.272   3.499
 1976TIP3   OH2 5870   4.222   0.607   3.630
 1976TIP3    H1 5871   4.196   0.696   3.596
 1976TIP3    H2 5872   4.142   0.588   3.685
 1977TIP3   OH2 5873   3.612   0.293   2.869
 1977TIP3    H1 5874   3.572   0.326   2.788
 1977TIP3    H2 5875   3.645   0.376   2.910
 1978TIP3   OH2 5876   5.051   0.812   3.106
 1978TIP3    H1 5877   4.961   0.803   3.147
 1978TIP3    H2 5878   5.043   0.899   3.062
 1979TIP3   OH2 5879   4.751   0.855   2.779
 1979TIP3    H1 5880   4.802   0.773   2.760
 1979TIP3    H2 5881   4.813   0.921   2.740
 1980TIP3   OH2 5882   4.897   0.640   2.692
 1980TIP3    H1 5883   4.854   0.560   2.659
 1980TIP3    H2 5884   4.935   0.607   2.777
 1981TIP3   OH2 5885   5.277   0.722   3.453
 1981TIP3    H1 5886   5.265   0.645   3.393
 1981TIP3    H2 5887   5.259   0.797   3.394
 1982TIP3   OH2 5888   4.569   0.121   2.708
 1982TIP3    H1 5889   4.488   0.173   2.688
 1982TIP3    H2 5890   4.612   0.118   2.621
 1983TIP3   OH2 5891   4.525  -0.097   2.425
 1983TIP3    H1 5892   4.596  -0.047   2.469
 1983TIP3    H2 5893   4.576  -0.168   2.383
 1984TIP3   OH2 5894   5.474   0.365   3.299
 1984TIP3    H1 5895   5.390   0.416   3.301
 1984TIP3    H2 5896   5.505   0.387   3.208
 1985TIP3   OH2 5897   4.915   0.200   2.679
 1985TIP3    H1 5898   4.862   0.223   2.758
 1985TIP3    H2 5899   5.001   0.180   2.722
 1986TIP3   OH2 5900   5.149   0.240   3.599
 1986TIP3    H1 5901   5.144   0.322   3.650
 1986TIP3    H2 5902   5.062   0.242   3.554
 1987TIP3   OH2 5903   4.150   0.197   3.098
 1987TIP3    H1 5904   4.111   0.137   3.031
 1987TIP3    H2 5905   4.227   0.144   3.130
 1988TIP3   OH2 5906   4.281   0.610   3.246
 1988TIP3    H1 5907   4.262   0.570   3.160
 1988TIP3    H2 5908   4.370   0.574   3.265
 1989TIP3   OH2 5909   4.287   0.165   3.459
 1989TIP3    H1 5910   4.317   0.140   3.369
 1989TIP3    H2 5911   4.330   0.252   3.473
 1990TIP3   OH2 5912   4.811   0.806   3.230
 1990TIP3    H1 5913   4.798   0.887   3.282
 1990TIP3    H2 5914   4.794   0.735   3.294
 1991TIP3   OH2 5915   4.424   0.723   3.779
 1991TIP3    H1 5916   4.363   0.785   3.824
 1991TIP3    H2 5917   4.360   0.671   3.726
 1992TIP3   OH2 5918   4.755   0.057   2.507
 1992TIP3    H1 5919   4.813   0.119   2.557
 1992TIP3    H2 5920   4.783   0.078   2.414
 1993TIP3   OH2 5921   4.172   0.288   3.876
 1993TIP3    H1 5922   4.177   0.374   3.922
 1993TIP3    H2 5923   4.078   0.265   3.891
 1994TIP3   OH2 5924   4.503   0.734   2.781
 1994TIP3    H1 5925   4.585   0.786   2.792
 1994TIP3    H2 5926   4.442   0.800   2.745
 1995TIP3   OH2 5927   4.219   0.889   3.866
 1995TIP3    H1 5928   4.180   0.896   3.777
 1995TIP3    H2 5929   4.141   0.862   3.920
 1996TIP3   OH2 5930   4.018   0.038   2.899
 1996TIP3    H1 5931   3.948   0.082   2.846
 1996TIP3    H2 5932   3.979  -0.048   2.917
 1997TIP3   OH2 5933   5.072   0.663   2.103
 1997TIP3    H1 5934   5.081   0.761   2.090
 1997TIP3    H2 5935   5.166   0.636   2.095
 1998TIP3   OH2 5936   3.795   0.423   3.813
 1998TIP3    H1 5937   3.729   0.402   3.744
 1998TIP3    H2 5938   3.834   0.336   3.832
 1999TIP3   OH2 5939   3.652   0.620   3.438
 1999TIP3    H1 5940   3.748   0.614   3.436
 1999TIP3    H2 5941   3.640   0.695   3.498
 2000TIP3   OH2 5942   5.516   1.071   3.503
 2000TIP3    H1 5943   5.513   0.974   3.516
 2000TIP3    H2 5944   5.432   1.097   3.547
 2001TIP3   OH2 5945   4.621   0.852   3.635
 2001TIP3    H1 5946   4.618   0.945   3.667
 2001TIP3    H2 5947   4.549   0.812   3.689
 2002TIP3   OH2 5948   4.384   0.981   2.587
 2002TIP3    H1 5949   4.337   0.968   2.503
 2002TIP3    H2 5950   4.352   1.069   2.616
 2003TIP3   OH2 5951   3.820   0.825   2.973
 2003TIP3    H1 5952   3.876   0.824   3.053
 2003TIP3    H2 5953   3.755   0.758   2.996
 2004TIP3   OH2 5954   4.582   0.884   2.224
 2004TIP3    H1 5955   4.642   0.814   2.189
 2004TIP3    H2 5956   4.617   0.896   2.315
 2005TIP3   OH2 5957   4.635   0.933   2.493
 2005TIP3    H1 5958   4.547   0.942   2.536
 2005TIP3    H2 5959   4.688   0.898   2.567
 2006TIP3   OH2 5960   5.402   0.182   3.780
 2006TIP3    H1 5961   5.326   0.218   3.733
 2006TIP3    H2 5962   5.389   0.087   3.763
 2007TIP3   OH2 5963   4.002   0.604   3.790
 2007TIP3    H1 5964   4.045   0.600   3.877
 2007TIP3    H2 5965   3.926   0.543   3.803
 2008TIP3   OH2 5966   5.183  -0.016   3.720
 2008TIP3    H1 5967   5.141   0.011   3.802
 2008TIP3    H2 5968   5.161   0.057   3.660
 2009TIP3   OH2 5969   4.834   0.094   2.251
 2009TIP3    H1 5970   4.798   0.078   2.162
 2009TIP3    H2 5971   4.915   0.145   2.229
 2010TIP3   OH2 5972   4.350  -0.048   3.619
 2010TIP3    H1 5973   4.289  -0.029   3.693
 2010TIP3    H2 5974   4.337   0.031   3.563
 2011TIP3   OH2 5975   4.214  -0.164   3.123
 2011TIP3    H1 5976   4.121  -0.188   3.136
 2011TIP3    H2 5977   4.230  -0.197   3.032
 2012TIP3   OH2 5978   4.700  -0.078   2.845
 2012TIP3    H1 5979   4.653  -0.005   2.798
 2012TIP3    H2 5980   4.766  -0.105   2.779
 2013TIP3   OH2 5981   4.889   0.223   3.917
 2013TIP3    H1 5982   4.864   0.142   3.967
 2013TIP3    H2 5983   4.984   0.230   3.941
 2014TIP3   OH2 5984   4.844  -0.015   3.104
 2014TIP3    H1 5985   4.790   0.032   3.038
 2014TIP3    H2 5986   4.866  -0.095   3.052
 2015TIP3   OH2 5987   4.153  -0.021   3.811
 2015TIP3    H1 5988   4.168   0.045   3.881
 2015TIP3    H2 5989   4.134  -0.102   3.861
 2016TIP3   OH2 5990   3.784  -0.418   2.943
 2016TIP3    H1 5991   3.799  -0.410   2.847
 2016TIP3    H2 5992   3.690  -0.391   2.947
 2017TIP3   OH2 5993   4.868   0.196   3.505
 2017TIP3    H1 5994   4.907   0.125   3.448
 2017TIP3    H2 5995   4.844   0.142   3.583
 2018TIP3   OH2 5996   3.964  -0.292   3.167
 2018TIP3    H1 5997   3.873  -0.258   3.152
 2018TIP3    H2 5998   3.959  -0.373   3.114
 2019TIP3   OH2 5999   4.256  -0.271   2.876
 2019TIP3    H1 6000   4.348  -0.286   2.846
 2019TIP3    H2 6001   4.204  -0.282   2.794
 2020TIP3   OH2 6002   4.091  -0.289   2.648
 2020TIP3    H1 6003   4.018  -0.305   2.586
 2020TIP3    H2 6004   4.152  -0.240   2.588
 2021TIP3   OH2 6005   5.209   1.418   3.600
 2021TIP3    H1 6006   5.206   1.443   3.506
 2021TIP3    H2 6007   5.288   1.466   3.631
 2022TIP3   OH2 6008   4.164   0.526   4.021
 2022TIP3    H1 6009   4.243   0.559   4.069
 2022TIP3    H2 6010   4.097   0.535   4.092
 2023TIP3   OH2 6011   4.613  -0.016   3.276
 2023TIP3    H1 6012   4.698  -0.043   3.238
 2023TIP3    H2 6013   4.619  -0.050   3.368
 2024TIP3   OH2 6014   4.624  -0.088   3.537
 2024TIP3    H1 6015   4.534  -0.092   3.575
 2024TIP3    H2 6016   4.674  -0.043   3.608
 2025TIP3   OH2 6017   4.337   0.269   2.657
 2025TIP3    H1 6018   4.264   0.205   2.646
 2025TIP3    H2 6019   4.319   0.303   2.748
 2026TIP3   OH2 6020   5.239   0.506   3.286
 2026TIP3    H1 6021   5.263   0.557   3.206
 2026TIP3    H2 6022   5.154   0.464   3.259
 2027TIP3   OH2 6023   4.768  -0.346   2.479
 2027TIP3    H1 6024   4.713  -0.398   2.540
 2027TIP3    H2 6025   4.808  -0.282   2.542
 2028TIP3   OH2 6026   4.737   0.589   3.656
 2028TIP3    H1 6027   4.764   0.571   3.747
 2028TIP3    H2 6028   4.699   0.678   3.662
 2029TIP3   OH2 6029   4.874  -0.155   2.642
 2029TIP3    H1 6030   4.972  -0.144   2.651
 2029TIP3    H2 6031   4.850  -0.076   2.589
 2030TIP3   OH2 6032   4.031   0.288   3.333
 2030TIP3    H1 6033   4.072   0.261   3.249
 2030TIP3    H2 6034   4.078   0.231   3.397
 2031TIP3   OH2 6035   4.484   0.419   2.480
 2031TIP3    H1 6036   4.435   0.504   2.484
 2031TIP3    H2 6037   4.430   0.364   2.541
 2032TIP3   OH2 6038   3.916   0.209   3.949
 2032TIP3    H1 6039   3.934   0.198   4.044
 2032TIP3    H2 6040   3.842   0.148   3.934
 2033TIP3   OH2 6041   4.639   0.331   3.972
 2033TIP3    H1 6042   4.576   0.276   3.922
 2033TIP3    H2 6043   4.725   0.300   3.936
 2034TIP3   OH2 6044   4.898   0.845   3.555
 2034TIP3    H1 6045   4.801   0.846   3.568
 2034TIP3    H2 6046   4.927   0.899   3.631
 2035TIP3   OH2 6047   5.307  -0.079   2.450
 2035TIP3    H1 6048   5.249  -0.129   2.388
 2035TIP3    H2 6049   5.293   0.012   2.413
 2036TIP3   OH2 6050   5.528   0.779   3.542
 2036TIP3    H1 6051   5.430   0.774   3.532
 2036TIP3    H2 6052   5.554   0.749   3.452
 2037TIP3   OH2 6053   5.006   0.740   2.369
 2037TIP3    H1 6054   4.984   0.671   2.433
 2037TIP3    H2 6055   5.022   0.690   2.287
 2038TIP3   OH2 6056   5.004   0.371   3.203
 2038TIP3    H1 6057   4.911   0.345   3.217
 2038TIP3    H2 6058   5.039   0.292   3.158
 2039TIP3   OH2 6059   4.135   0.596   2.956
 2039TIP3    H1 6060   4.133   0.678   2.903
 2039TIP3    H2 6061   4.042   0.585   2.979
 2040TIP3   OH2 6062   3.695  -0.098   2.669
 2040TIP3    H1 6063   3.743  -0.015   2.691
 2040TIP3    H2 6064   3.620  -0.093   2.733
 2041TIP3   OH2 6065   4.266   0.359   2.900
 2041TIP3    H1 6066   4.232   0.449   2.919
 2041TIP3    H2 6067   4.233   0.309   2.977
 2042TIP3   OH2 6068   4.404   0.940   3.427
 2042TIP3    H1 6069   4.446   1.013   3.378
 2042TIP3    H2 6070   4.480   0.904   3.476
 2043TIP3   OH2 6071   4.053   0.834   2.810
 2043TIP3    H1 6072   3.967   0.844   2.856
 2043TIP3    H2 6073   4.086   0.927   2.814
 2044TIP3   OH2 6074   4.788   0.573   3.389
 2044TIP3    H1 6075   4.777   0.572   3.487
 2044TIP3    H2 6076   4.869   0.522   3.378
 2045TIP3   OH2 6077   4.767   0.465   2.272
 2045TIP3    H1 6078   4.822   0.440   2.350
 2045TIP3    H2 6079   4.679   0.441   2.304
 2046TIP3   OH2 6080   5.038   1.104   3.437
 2046TIP3    H1 6081   4.957   1.051   3.430
 2046TIP3    H2 6082   5.023   1.170   3.365
 2047TIP3   OH2 6083   5.104   0.940   2.090
 2047TIP3    H1 6084   5.144   1.014   2.042
 2047TIP3    H2 6085   5.024   0.984   2.124
 2048TIP3   OH2 6086   4.928   0.396   2.483
 2048TIP3    H1 6087   4.918   0.333   2.557
 2048TIP3    H2 6088   5.026   0.396   2.474
 2049TIP3   OH2 6089   3.841   0.799   3.587
 2049TIP3    H1 6090   3.898   0.735   3.631
 2049TIP3    H2 6091   3.854   0.878   3.642
 2050TIP3   OH2 6092   4.130   0.446   2.272
 2050TIP3    H1 6093   4.145   0.353   2.247
 2050TIP3    H2 6094   4.109   0.438   2.367
 2051TIP3   OH2 6095   4.073   0.452   2.544
 2051TIP3    H1 6096   4.147   0.426   2.599
 2051TIP3    H2 6097   4.076   0.550   2.552
 2052TIP3   OH2 6098   3.809   0.143   2.748
 2052TIP3    H1 6099   3.744   0.190   2.805
 2052TIP3    H2 6100   3.826   0.212   2.681
 2053TIP3   OH2 6101   4.340   0.648   2.489
 2053TIP3    H1 6102   4.254   0.672   2.527
 2053TIP3    H2 6103   4.360   0.728   2.438
 2054TIP3   OH2 6104   4.543  -0.299   2.866
 2054TIP3    H1 6105   4.595  -0.215   2.863
 2054TIP3    H2 6106   4.550  -0.322   2.960
 2055TIP3   OH2 6107   4.815   0.033   3.716
 2055TIP3    H1 6108   4.809   0.097   3.789
 2055TIP3    H2 6109   4.859  -0.040   3.760
 2056TIP3   OH2 6110   4.085   0.723   2.560
 2056TIP3    H1 6111   4.057   0.795   2.499
 2056TIP3    H2 6112   4.072   0.767   2.647
 2057TIP3   OH2 6113   5.092   0.128   3.083
 2057TIP3    H1 6114   5.013   0.077   3.106
 2057TIP3    H2 6115   5.163   0.081   3.132
 2058TIP3   OH2 6116   3.804   0.352   2.550
 2058TIP3    H1 6117   3.876   0.418   2.561
 2058TIP3    H2 6118   3.848   0.294   2.484
 2059TIP3   OH2 6119   3.750  -0.366   2.673
 2059TIP3    H1 6120   3.741  -0.269   2.667
 2059TIP3    H2 6121   3.660  -0.398   2.660
 2060TIP3   OH2 6122   5.060   1.083   3.030
 2060TIP3    H1 6123   5.017   1.129   2.954
 2060TIP3    H2 6124   5.154   1.102   3.009
 2061TIP3   OH2 6125   3.669   0.554   2.936
 2061TIP3    H1 6126   3.609   0.593   3.000
 2061TIP3    H2 6127   3.651   0.608   2.856
 2062TIP3   OH2 6128   3.853   1.114   3.972
 2062TIP3    H1 6129   3.921   1.124   4.040
 2062TIP3    H2 6130   3.794   1.049   4.013
 2063TIP3   OH2 6131   4.313   1.069   4.058
 2063TIP3    H1 6132   4.408   1.051   4.058
 2063TIP3    H2 6133   4.283   1.011   3.986
 2064TIP3   OH2 6134   4.291   0.649   2.179
 2064TIP3    H1 6135   4.235   0.579   2.219
 2064TIP3    H2 6136   4.369   0.596   2.153
 2065TIP3   OH2 6137   4.953   0.981   3.787
 2065TIP3    H1 6138   4.945   0.913   3.858
 2065TIP3    H2 6139   5.028   1.034   3.818
 2066TIP3   OH2 6140   4.729   0.688   2.096
 2066TIP3    H1 6141   4.773   0.627   2.157
 2066TIP3    H2 6142   4.787   0.686   2.017
 2067TIP3   OH2 6143   3.961   0.517   4.213
 2067TIP3    H1 6144   3.977   0.421   4.214
 2067TIP3    H2 6145   3.875   0.522   4.167
 2068TIP3   OH2 6146   3.940   0.164   2.408
 2068TIP3    H1 6147   3.997   0.135   2.481
 2068TIP3    H2 6148   4.007   0.171   2.336
 2069TIP3   OH2 6149   4.570   0.605   3.985
 2069TIP3    H1 6150   4.526   0.625   3.899
 2069TIP3    H2 6151   4.597   0.512   3.974
 2070TIP3   OH2 6152   4.451   0.368   2.211
 2070TIP3    H1 6153   4.454   0.380   2.309
 2070TIP3    H2 6154   4.454   0.270   2.206
 2071TIP3   OH2 6155   5.061   0.614   3.593
 2071TIP3    H1 6156   5.136   0.657   3.548
 2071TIP3    H2 6157   4.991   0.681   3.577
 2072TIP3   OH2 6158   4.084   0.247   4.195
 2072TIP3    H1 6159   4.169   0.208   4.171
 2072TIP3    H2 6160   4.107   0.286   4.282
 2073TIP3   OH2 6161   4.139   0.074   2.624
 2073TIP3    H1 6162   4.121   0.037   2.712
 2073TIP3    H2 6163   4.180  -0.002   2.577
 2074TIP3   OH2 6164   4.418   0.167   3.854
 2074TIP3    H1 6165   4.333   0.218   3.848
 2074TIP3    H2 6166   4.464   0.194   3.771
 2075TIP3   OH2 6167   4.247  -0.134   2.473
 2075TIP3    H1 6168   4.220  -0.129   2.379
 2075TIP3    H2 6169   4.344  -0.131   2.465
 2076TIP3   OH2 6170   4.938   0.541   3.989
 2076TIP3    H1 6171   5.006   0.504   3.932
 2076TIP3    H2 6172   4.922   0.469   4.053
 2077TIP3   OH2 6173   5.065   0.191   2.130
 2077TIP3    H1 6174   5.048   0.151   2.043
 2077TIP3    H2 6175   5.034   0.283   2.110
 2078TIP3   OH2 6176   4.502  -0.056   3.975
 2078TIP3    H1 6177   4.451  -0.117   3.919
 2078TIP3    H2 6178   4.476   0.030   3.935
 2079TIP3   OH2 6179   4.579   0.253   3.655
 2079TIP3    H1 6180   4.661   0.263   3.604
 2079TIP3    H2 6181   4.519   0.316   3.610
 2080TIP3   OH2 6182   5.142   0.219   4.021
 2080TIP3    H1 6183   5.177   0.162   4.093
 2080TIP3    H2 6184   5.220   0.268   3.992
 2081TIP3   OH2 6185   5.192   0.467   3.776
 2081TIP3    H1 6186   5.132   0.522   3.719
 2081TIP3    H2 6187   5.279   0.492   3.737
 2082TIP3   OH2 6188   4.385   0.069   4.206
 2082TIP3    H1 6189   4.342  -0.008   4.245
 2082TIP3    H2 6190   4.441   0.030   4.137
 2083TIP3   OH2 6191   4.781  -0.003   4.011
 2083TIP3    H1 6192   4.802  -0.031   4.103
 2083TIP3    H2 6193   4.685  -0.015   4.010
 2084TIP3   OH2 6194   4.055   0.922   2.369
 2084TIP3    H1 6195   4.151   0.917   2.353
 2084TIP3    H2 6196   4.029   0.979   2.295
 2085TIP3   OH2 6197   3.537   0.310   2.584
 2085TIP3    H1 6198   3.632   0.331   2.572
 2085TIP3    H2 6199   3.532   0.220   2.544
 2086TIP3   OH2 6200   3.447   0.913   3.010
 2086TIP3    H1 6201   3.405   0.844   2.957
 2086TIP3    H2 6202   3.500   0.861   3.074
 2087TIP3   OH2 6203   3.590   0.762   3.188
 2087TIP3    H1 6204   3.584   0.696   3.260
 2087TIP3    H2 6205   3.639   0.832   3.237
 2088TIP3   OH2 6206   5.314   1.172   2.990
 2088TIP3    H1 6207   5.340   1.205   3.078
 2088TIP3    H2 6208   5.379   1.214   2.932
 2089TIP3   OH2 6209   5.340   1.192   3.273
 2089TIP3    H1 6210   5.298   1.104   3.269
 2089TIP3    H2 6211   5.418   1.170   3.327
 2090TIP3   OH2 6212   5.391   0.867   3.848
 2090TIP3    H1 6213   5.317   0.879   3.911
 2090TIP3    H2 6214   5.432   0.956   3.849
 2091TIP3   OH2 6215   5.206   0.382   2.461
 2091TIP3    H1 6216   5.272   0.448   2.432
 2091TIP3    H2 6217   5.250   0.346   2.541
 2092TIP3   OH2 6218   5.332   0.253   2.665
 2092TIP3    H1 6219   5.265   0.215   2.727
 2092TIP3    H2 6220   5.398   0.293   2.725
 2093TIP3   OH2 6221   5.389   0.643   3.099
 2093TIP3    H1 6222   5.441   0.576   3.052
 2093TIP3    H2 6223   5.386   0.716   3.035
 2094TIP3   OH2 6224   5.216   0.941   3.295
 2094TIP3    H1 6225   5.145   0.985   3.344
 2094TIP3    H2 6226   5.167   0.896   3.223
 2095TIP3   OH2 6227   5.261   0.156   2.315
 2095TIP3    H1 6228   5.193   0.166   2.245
 2095TIP3    H2 6229   5.238   0.233   2.371
 2096TIP3   OH2 6230   5.136  -0.183   2.255
 2096TIP3    H1 6231   5.107  -0.105   2.207
 2096TIP3    H2 6232   5.086  -0.253   2.212
 2097TIP3   OH2 6233   5.144   0.121   2.812
 2097TIP3    H1 6234   5.148   0.026   2.789
 2097TIP3    H2 6235   5.132   0.121   2.909
 2098TIP3   OH2 6236   3.771   0.181   3.561
 2098TIP3    H1 6237   3.768   0.151   3.468
 2098TIP3    H2 6238   3.868   0.182   3.578
 2099TIP3   OH2 6239   5.437   0.533   3.671
 2099TIP3    H1 6240   5.508   0.467   3.660
 2099TIP3    H2 6241   5.460   0.601   3.606
 2100TIP3   OH2 6242   5.615   0.330   3.689
 2100TIP3    H1 6243   5.542   0.275   3.724
 2100TIP3    H2 6244   5.691   0.271   3.706
 2101TIP3   OH2 6245   5.146  -0.131   2.680
 2101TIP3    H1 6246   5.174  -0.210   2.732
 2101TIP3    H2 6247   5.210  -0.131   2.606
 2102TIP3   OH2 6248   5.300   0.001   3.211
 2102TIP3    H1 6249   5.386   0.024   3.168
 2102TIP3    H2 6250   5.316   0.037   3.300
 2103TIP3   OH2 6251   5.367   0.151   3.436
 2103TIP3    H1 6252   5.289   0.187   3.483
 2103TIP3    H2 6253   5.401   0.230   3.389
 2104TIP3   OH2 6254   3.984  -0.139   4.236
 2104TIP3    H1 6255   4.077  -0.160   4.224
 2104TIP3    H2 6256   3.950  -0.222   4.274
 2105TIP3   OH2 6257   3.749  -0.169   3.637
 2105TIP3    H1 6258   3.796  -0.165   3.551
 2105TIP3    H2 6259   3.778  -0.087   3.679
 2106TIP3   OH2 6260   4.895   1.039   2.644
 2106TIP3    H1 6261   4.949   1.030   2.563
 2106TIP3    H2 6262   4.945   1.105   2.695
 2107TIP3   OH2 6263   4.008   0.822   4.030
 2107TIP3    H1 6264   3.913   0.819   4.008
 2107TIP3    H2 6265   4.005   0.834   4.125
 2108TIP3   OH2 6266   4.178   0.877   3.576
 2108TIP3    H1 6267   4.128   0.952   3.539
 2108TIP3    H2 6268   4.263   0.893   3.531
 2109TIP3   OH2 6269   4.619   1.118   3.714
 2109TIP3    H1 6270   4.660   1.120   3.803
 2109TIP3    H2 6271   4.684   1.171   3.663
 2110TIP3   OH2 6272   4.798   1.274   3.577
 2110TIP3    H1 6273   4.870   1.224   3.535
 2110TIP3    H2 6274   4.850   1.331   3.638
 2111TIP3   OH2 6275   3.853   1.127   3.605
 2111TIP3    H1 6276   3.764   1.163   3.584
 2111TIP3    H2 6277   3.866   1.164   3.693
 2112TIP3   OH2 6278   4.087   1.111   3.460
 2112TIP3    H1 6279   4.001   1.123   3.506
 2112TIP3    H2 6280   4.067   1.147   3.371
 2113TIP3   OH2 6281   4.514   1.139   3.258
 2113TIP3    H1 6282   4.443   1.158   3.194
 2113TIP3    H2 6283   4.526   1.226   3.301
 2114TIP3   OH2 6284   4.783   1.076   3.310
 2114TIP3    H1 6285   4.689   1.096   3.291
 2114TIP3    H2 6286   4.828   1.151   3.268
 2115TIP3   OH2 6287   4.988   1.268   3.223
 2115TIP3    H1 6288   4.975   1.353   3.176
 2115TIP3    H2 6289   5.015   1.209   3.150
 2116TIP3   OH2 6290   3.761   0.923   3.342
 2116TIP3    H1 6291   3.787   0.898   3.434
 2116TIP3    H2 6292   3.836   0.882   3.293
 2117TIP3   OH2 6293   3.960   0.798   3.202
 2117TIP3    H1 6294   3.974   0.715   3.254
 2117TIP3    H2 6295   4.051   0.835   3.202
 2118TIP3   OH2 6296   4.225   0.889   3.210
 2118TIP3    H1 6297   4.256   0.797   3.204
 2118TIP3    H2 6298   4.271   0.916   3.292
 2119TIP3   OH2 6299   3.530   0.713   2.750
 2119TIP3    H1 6300   3.503   0.673   2.667
 2119TIP3    H2 6301   3.526   0.807   2.723
 2120TIP3   OH2 6302   4.324   0.883   2.321
 2120TIP3    H1 6303   4.412   0.906   2.284
 2120TIP3    H2 6304   4.302   0.808   2.260
 2121TIP3   OH2 6305   5.043   1.007   2.413
 2121TIP3    H1 6306   5.034   0.909   2.402
 2121TIP3    H2 6307   4.997   1.038   2.333
 2122TIP3   OH2 6308   3.623   0.716   2.379
 2122TIP3    H1 6309   3.641   0.771   2.457
 2122TIP3    H2 6310   3.711   0.675   2.361
 2123TIP3   OH2 6311   5.266   1.148   3.600
 2123TIP3    H1 6312   5.188   1.118   3.549
 2123TIP3    H2 6313   5.248   1.244   3.605
 2124TIP3   OH2 6314   6.528   0.520   2.374
 2124TIP3    H1 6315   6.502   0.612   2.354
 2124TIP3    H2 6316   6.455   0.473   2.330
 2125TIP3   OH2 6317   6.534   0.523   2.750
 2125TIP3    H1 6318   6.568   0.498   2.838
 2125TIP3    H2 6319   6.493   0.441   2.720
 2126TIP3   OH2 6320   5.830   0.418   3.114
 2126TIP3    H1 6321   5.863   0.347   3.173
 2126TIP3    H2 6322   5.913   0.466   3.097
 2127TIP3   OH2 6323   6.778   0.826   2.432
 2127TIP3    H1 6324   6.764   0.759   2.500
 2127TIP3    H2 6325   6.810   0.902   2.484
 2128TIP3   OH2 6326   5.806   0.825   2.834
 2128TIP3    H1 6327   5.798   0.728   2.836
 2128TIP3    H2 6328   5.903   0.835   2.828
 2129TIP3   OH2 6329   5.499   0.036   2.630
 2129TIP3    H1 6330   5.449   0.118   2.645
 2129TIP3    H2 6331   5.435  -0.015   2.578
 2130TIP3   OH2 6332   5.563   0.326   2.792
 2130TIP3    H1 6333   5.605   0.243   2.825
 2130TIP3    H2 6334   5.634   0.365   2.738
 2131TIP3   OH2 6335   6.429   1.287   2.446
 2131TIP3    H1 6336   6.471   1.214   2.395
 2131TIP3    H2 6337   6.421   1.247   2.534
 2132TIP3   OH2 6338   6.332   0.748   2.797
 2132TIP3    H1 6339   6.373   0.672   2.752
 2132TIP3    H2 6340   6.414   0.796   2.822
 2133TIP3   OH2 6341   6.745   0.246   2.838
 2133TIP3    H1 6342   6.772   0.159   2.871
 2133TIP3    H2 6343   6.716   0.226   2.747
 2134TIP3   OH2 6344   6.068  -0.131   2.769
 2134TIP3    H1 6345   6.044  -0.042   2.735
 2134TIP3    H2 6346   5.995  -0.185   2.737
 2135TIP3   OH2 6347   3.533   6.590   8.972
 2135TIP3    H1 6348   3.579   6.529   9.033
 2135TIP3    H2 6349   3.536   6.543   8.887
 2136TIP3   OH2 6350   5.692   0.109   2.890
 2136TIP3    H1 6351   5.784   0.114   2.926
 2136TIP3    H2 6352   5.710   0.049   2.815
 2137TIP3   OH2 6353   6.156   0.312   2.700
 2137TIP3    H1 6354   6.250   0.286   2.712
 2137TIP3    H2 6355   6.116   0.226   2.676
 2138TIP3   OH2 6356   7.376   0.256   2.990
 2138TIP3    H1 6357   7.304   0.315   2.962
 2138TIP3    H2 6358   7.444   0.318   3.022
 2139TIP3   OH2 6359   6.421   0.740   2.238
 2139TIP3    H1 6360   6.387   0.729   2.148
 2139TIP3    H2 6361   6.378   0.824   2.264
 2140TIP3   OH2 6362   6.187   0.667   3.019
 2140TIP3    H1 6363   6.127   0.736   3.056
 2140TIP3    H2 6364   6.230   0.716   2.945
 2141TIP3   OH2 6365   5.948   0.078   2.959
 2141TIP3    H1 6366   6.019   0.121   3.011
 2141TIP3    H2 6367   5.977  -0.014   2.963
 2142TIP3   OH2 6368   6.016   0.864   3.119
 2142TIP3    H1 6369   5.991   0.952   3.082
 2142TIP3    H2 6370   5.937   0.847   3.173
 2143TIP3   OH2 6371   5.406   0.553   2.356
 2143TIP3    H1 6372   5.368   0.582   2.271
 2143TIP3    H2 6373   5.439   0.638   2.392
 2144TIP3   OH2 6374   6.848   1.069   2.594
 2144TIP3    H1 6375   6.758   1.060   2.634
 2144TIP3    H2 6376   6.839   1.155   2.549
 2145TIP3   OH2 6377   6.546   1.113   2.265
 2145TIP3    H1 6378   6.597   1.030   2.247
 2145TIP3    H2 6379   6.609   1.178   2.227
 2146TIP3   OH2 6380   6.694   0.899   2.180
 2146TIP3    H1 6381   6.665   0.816   2.138
 2146TIP3    H2 6382   6.729   0.866   2.265
 2147TIP3   OH2 6383   7.075   0.979   2.940
 2147TIP3    H1 6384   7.061   0.902   2.880
 2147TIP3    H2 6385   7.056   1.054   2.880
 2148TIP3   OH2 6386   6.364   0.377   2.197
 2148TIP3    H1 6387   6.286   0.431   2.173
 2148TIP3    H2 6388   6.403   0.358   2.110
 2149TIP3   OH2 6389   7.261   0.610   2.776
 2149TIP3    H1 6390   7.182   0.667   2.783
 2149TIP3    H2 6391   7.299   0.642   2.692
 2150TIP3   OH2 6392   6.707   0.455   2.178
 2150TIP3    H1 6393   6.661   0.480   2.261
 2150TIP3    H2 6394   6.797   0.435   2.212
 2151TIP3   OH2 6395   6.945   0.496   3.088
 2151TIP3    H1 6396   6.941   0.578   3.140
 2151TIP3    H2 6397   6.858   0.500   3.043
 2152TIP3   OH2 6398   5.946   0.452   2.586
 2152TIP3    H1 6399   5.909   0.393   2.517
 2152TIP3    H2 6400   6.023   0.401   2.618
 2153TIP3   OH2 6401   6.074   0.863   2.734
 2153TIP3    H1 6402   6.057   0.829   2.645
 2153TIP3    H2 6403   6.164   0.828   2.752
 2154TIP3   OH2 6404   6.078   0.424   2.946
 2154TIP3    H1 6405   6.111   0.396   2.858
 2154TIP3    H2 6406   6.125   0.509   2.960
 2155TIP3   OH2 6407   6.607   1.063   2.717
 2155TIP3    H1 6408   6.594   1.144   2.770
 2155TIP3    H2 6409   6.591   0.991   2.781
 2156TIP3   OH2 6410   6.221   0.981   3.265
 2156TIP3    H1 6411   6.160   1.043   3.310
 2156TIP3    H2 6412   6.157   0.928   3.213
 2157TIP3   OH2 6413   6.573   0.284   2.012
 2157TIP3    H1 6414   6.628   0.344   2.068
 2157TIP3    H2 6415   6.595   0.317   1.924
 2158TIP3   OH2 6416   5.969   0.545   3.365
 2158TIP3    H1 6417   5.973   0.631   3.411
 2158TIP3    H2 6418   5.874   0.523   3.376
 2159TIP3   OH2 6419   6.299   0.991   2.271
 2159TIP3    H1 6420   6.381   1.043   2.279
 2159TIP3    H2 6421   6.239   1.055   2.228
 2160TIP3   OH2 6422   6.014   1.147   3.351
 2160TIP3    H1 6423   5.979   1.151   3.260
 2160TIP3    H2 6424   5.934   1.125   3.403
 2161TIP3   OH2 6425   5.816   0.295   2.381
 2161TIP3    H1 6426   5.745   0.342   2.332
 2161TIP3    H2 6427   5.772   0.213   2.405
 2162TIP3   OH2 6428   6.801   0.931   1.644
 2162TIP3    H1 6429   6.843   1.017   1.621
 2162TIP3    H2 6430   6.875   0.869   1.635
 2163TIP3   OH2 6431   5.592   0.681   3.298
 2163TIP3    H1 6432   5.526   0.661   3.229
 2163TIP3    H2 6433   5.630   0.594   3.318
 2164TIP3   OH2 6434   5.448   0.873   2.930
 2164TIP3    H1 6435   5.544   0.867   2.920
 2164TIP3    H2 6436   5.439   0.952   2.986
 2165TIP3   OH2 6437   7.312   1.329   2.988
 2165TIP3    H1 6438   7.312   1.232   3.002
 2165TIP3    H2 6439   7.228   1.353   3.033
 2166TIP3   OH2 6440   6.417   1.110   3.122
 2166TIP3    H1 6441   6.414   1.203   3.154
 2166TIP3    H2 6442   6.346   1.069   3.176
 2167TIP3   OH2 6443   6.181   1.238   2.076
 2167TIP3    H1 6444   6.136   1.222   1.991
 2167TIP3    H2 6445   6.147   1.326   2.102
 2168TIP3   OH2 6446   5.616   1.087   2.459
 2168TIP3    H1 6447   5.666   1.080   2.544
 2168TIP3    H2 6448   5.563   1.006   2.463
 2169TIP3   OH2 6449   6.374   1.147   1.716
 2169TIP3    H1 6450   6.431   1.074   1.684
 2169TIP3    H2 6451   6.408   1.159   1.807
 2170TIP3   OH2 6452   6.431   1.190   1.982
 2170TIP3    H1 6453   6.343   1.199   2.025
 2170TIP3    H2 6454   6.484   1.154   2.055
 2171TIP3   OH2 6455   7.196   0.438   3.266
 2171TIP3    H1 6456   7.119   0.470   3.216
 2171TIP3    H2 6457   7.188   0.342   3.252
 2172TIP3   OH2 6458   5.797   0.864   3.282
 2172TIP3    H1 6459   5.846   0.848   3.366
 2172TIP3    H2 6460   5.723   0.800   3.290
 2173TIP3   OH2 6461   6.970   0.237   3.205
 2173TIP3    H1 6462   6.945   0.270   3.293
 2173TIP3    H2 6463   6.953   0.314   3.148
 2174TIP3   OH2 6464   6.146   0.209   3.105
 2174TIP3    H1 6465   6.086   0.228   3.179
 2174TIP3    H2 6466   6.132   0.288   3.049
 2175TIP3   OH2 6467   6.014   0.091   2.612
 2175TIP3    H1 6468   5.919   0.072   2.625
 2175TIP3    H2 6469   6.028   0.062   2.519
 2176TIP3   OH2 6470   6.503   0.180   2.319
 2176TIP3    H1 6471   6.441   0.251   2.289
 2176TIP3    H2 6472   6.573   0.190   2.254
 2177TIP3   OH2 6473   6.686   0.480   3.402
 2177TIP3    H1 6474   6.661   0.399   3.453
 2177TIP3    H2 6475   6.781   0.488   3.426
 2178TIP3   OH2 6476   6.654   0.214   2.581
 2178TIP3    H1 6477   6.593   0.247   2.513
 2178TIP3    H2 6478   6.704   0.148   2.526
 2179TIP3   OH2 6479   5.947   0.237   3.298
 2179TIP3    H1 6480   5.973   0.300   3.367
 2179TIP3    H2 6481   5.934   0.154   3.347
 2180TIP3   OH2 6482   5.576  -0.162   2.429
 2180TIP3    H1 6483   5.591  -0.146   2.334
 2180TIP3    H2 6484   5.483  -0.135   2.436
 2181TIP3   OH2 6485   6.665   0.451   2.991
 2181TIP3    H1 6486   6.701   0.380   2.933
 2181TIP3    H2 6487   6.641   0.397   3.069
 2182TIP3   OH2 6488   5.760  -0.031   2.653
 2182TIP3    H1 6489   5.667  -0.001   2.637
 2182TIP3    H2 6490   5.756  -0.116   2.608
 2183TIP3   OH2 6491   6.043  -0.014   2.358
 2183TIP3    H1 6492   6.123  -0.052   2.317
 2183TIP3    H2 6493   5.984  -0.017   2.281
 2184TIP3   OH2 6494   5.865  -0.038   2.127
 2184TIP3    H1 6495   5.770  -0.035   2.106
 2184TIP3    H2 6496   5.899  -0.028   2.037
 2185TIP3   OH2 6497   7.005   1.675   3.087
 2185TIP3    H1 6498   7.002   1.698   2.992
 2185TIP3    H2 6499   7.084   1.723   3.117
 2186TIP3   OH2 6500   5.958   0.787   3.508
 2186TIP3    H1 6501   6.040   0.815   3.554
 2186TIP3    H2 6502   5.894   0.789   3.582
 2187TIP3   OH2 6503   6.414   0.233   2.756
 2187TIP3    H1 6504   6.502   0.206   2.724
 2187TIP3    H2 6505   6.418   0.206   2.850
 2188TIP3   OH2 6506   6.419   0.174   3.021
 2188TIP3    H1 6507   6.331   0.165   3.061
 2188TIP3    H2 6508   6.472   0.213   3.093
 2189TIP3   OH2 6509   6.133   0.525   2.145
 2189TIP3    H1 6510   6.060   0.460   2.135
 2189TIP3    H2 6511   6.115   0.559   2.236
 2190TIP3   OH2 6512   7.034   0.763   2.774
 2190TIP3    H1 6513   7.058   0.814   2.693
 2190TIP3    H2 6514   6.949   0.721   2.747
 2191TIP3   OH2 6515   6.531   0.844   3.143
 2191TIP3    H1 6516   6.566   0.827   3.232
 2191TIP3    H2 6517   6.496   0.934   3.150
 2192TIP3   OH2 6518   5.827   0.544   2.820
 2192TIP3    H1 6519   5.867   0.519   2.734
 2192TIP3    H2 6520   5.877   0.489   2.881
 2193TIP3   OH2 6521   6.287   0.680   1.983
 2193TIP3    H1 6522   6.237   0.765   1.985
 2193TIP3    H2 6523   6.232   0.626   2.044
 2194TIP3   OH2 6524   5.709   0.470   3.438
 2194TIP3    H1 6525   5.730   0.453   3.532
 2194TIP3    H2 6526   5.639   0.405   3.420
 2195TIP3   OH2 6527   6.436   0.587   3.459
 2195TIP3    H1 6528   6.376   0.532   3.405
 2195TIP3    H2 6529   6.524   0.558   3.425
 2196TIP3   OH2 6530   6.694   1.102   3.042
 2196TIP3    H1 6531   6.597   1.103   3.054
 2196TIP3    H2 6532   6.722   1.156   3.119
 2197TIP3   OH2 6533   7.326   1.039   3.026
 2197TIP3    H1 6534   7.228   1.030   3.015
 2197TIP3    H2 6535   7.355   1.011   2.936
 2198TIP3   OH2 6536   6.790   1.009   1.910
 2198TIP3    H1 6537   6.783   0.948   1.985
 2198TIP3    H2 6538   6.787   0.950   1.832
 2199TIP3   OH2 6539   6.800   0.628   2.691
 2199TIP3    H1 6540   6.707   0.603   2.704
 2199TIP3    H2 6541   6.834   0.547   2.647
 2200TIP3   OH2 6542   5.932   0.854   2.447
 2200TIP3    H1 6543   5.931   0.935   2.393
 2200TIP3    H2 6544   5.838   0.838   2.459
 2201TIP3   OH2 6545   5.490   0.160   2.160
 2201TIP3    H1 6546   5.537   0.245   2.178
 2201TIP3    H2 6547   5.415   0.166   2.222
 2202TIP3   OH2 6548   6.060   0.616   2.387
 2202TIP3    H1 6549   6.029   0.706   2.407
 2202TIP3    H2 6550   6.028   0.567   2.465
 2203TIP3   OH2 6551   6.200   1.196   2.914
 2203TIP3    H1 6552   6.241   1.269   2.864
 2203TIP3    H2 6553   6.277   1.160   2.961
 2204TIP3   OH2 6554   5.848   1.092   2.298
 2204TIP3    H1 6555   5.763   1.102   2.345
 2204TIP3    H2 6556   5.882   1.185   2.301
 2205TIP3   OH2 6557   6.584   0.830   2.876
 2205TIP3    H1 6558   6.573   0.828   2.973
 2205TIP3    H2 6559   6.665   0.778   2.864
 2206TIP3   OH2 6560   6.531   0.715   1.799
 2206TIP3    H1 6561   6.578   0.717   1.885
 2206TIP3    H2 6562   6.439   0.721   1.829
 2207TIP3   OH2 6563   6.834   1.362   2.924
 2207TIP3    H1 6564   6.753   1.308   2.916
 2207TIP3    H2 6565   6.820   1.427   2.852
 2208TIP3   OH2 6566   6.892   1.186   1.574
 2208TIP3    H1 6567   6.932   1.259   1.524
 2208TIP3    H2 6568   6.815   1.234   1.609
 2209TIP3   OH2 6569   6.697   0.672   2.010
 2209TIP3    H1 6570   6.692   0.595   2.071
 2209TIP3    H2 6571   6.795   0.685   2.006
 2210TIP3   OH2 6572   5.636   1.057   3.074
 2210TIP3    H1 6573   5.692   0.987   3.111
 2210TIP3    H2 6574   5.664   1.134   3.126
 2211TIP3   OH2 6575   5.922   0.714   1.758
 2211TIP3    H1 6576   5.936   0.630   1.710
 2211TIP3    H2 6577   5.902   0.684   1.848
 2212TIP3   OH2 6578   5.869   0.707   2.036
 2212TIP3    H1 6579   5.946   0.685   2.090
 2212TIP3    H2 6580   5.872   0.805   2.036
 2213TIP3   OH2 6581   5.605   0.403   2.236
 2213TIP3    H1 6582   5.539   0.450   2.291
 2213TIP3    H2 6583   5.619   0.470   2.166
 2214TIP3   OH2 6584   6.139   0.903   1.983
 2214TIP3    H1 6585   6.052   0.932   2.017
 2214TIP3    H2 6586   6.151   0.967   1.911
 2215TIP3   OH2 6587   6.388  -0.033   2.443
 2215TIP3    H1 6588   6.420   0.042   2.388
 2215TIP3    H2 6589   6.342   0.013   2.513
 2216TIP3   OH2 6590   6.610   0.289   3.202
 2216TIP3    H1 6591   6.606   0.351   3.278
 2216TIP3    H2 6592   6.661   0.217   3.240
 2217TIP3   OH2 6593   5.883   0.980   2.047
 2217TIP3    H1 6594   5.853   1.050   1.985
 2217TIP3    H2 6595   5.868   1.024   2.133
 2218TIP3   OH2 6596   6.886   0.386   2.574
 2218TIP3    H1 6597   6.810   0.327   2.590
 2218TIP3    H2 6598   6.959   0.339   2.620
 2219TIP3   OH2 6599   5.599   0.610   2.039
 2219TIP3    H1 6600   5.673   0.674   2.048
 2219TIP3    H2 6601   5.640   0.550   1.972
 2220TIP3   OH2 6602   5.571  -0.098   2.164
 2220TIP3    H1 6603   5.547  -0.003   2.156
 2220TIP3    H2 6604   5.492  -0.142   2.130
 2221TIP3   OH2 6605   6.855   1.340   2.517
 2221TIP3    H1 6606   6.813   1.386   2.441
 2221TIP3    H2 6607   6.950   1.360   2.497
 2222TIP3   OH2 6608   5.466   0.819   2.422
 2222TIP3    H1 6609   5.403   0.853   2.487
 2222TIP3    H2 6610   5.436   0.864   2.340
 2223TIP3   OH2 6611   5.630   1.372   3.498
 2223TIP3    H1 6612   5.716   1.373   3.545
 2223TIP3    H2 6613   5.611   1.277   3.496
 2224TIP3   OH2 6614   6.105   1.327   3.544
 2224TIP3    H1 6615   6.201   1.312   3.549
 2224TIP3    H2 6616   6.081   1.267   3.471
 2225TIP3   OH2 6617   6.082   0.920   1.685
 2225TIP3    H1 6618   6.031   0.842   1.716
 2225TIP3    H2 6619   6.153   0.877   1.633
 2226TIP3   OH2 6620   6.746   1.239   3.276
 2226TIP3    H1 6621   6.739   1.169   3.346
 2226TIP3    H2 6622   6.824   1.290   3.306
 2227TIP3   OH2 6623   6.535   0.962   1.589
 2227TIP3    H1 6624   6.607   0.929   1.646
 2227TIP3    H2 6625   6.586   1.021   1.532
 2228TIP3   OH2 6626   5.757   0.773   3.699
 2228TIP3    H1 6627   5.772   0.677   3.702
 2228TIP3    H2 6628   5.670   0.777   3.652
 2229TIP3   OH2 6629   5.731   0.420   1.900
 2229TIP3    H1 6630   5.787   0.391   1.973
 2229TIP3    H2 6631   5.796   0.419   1.827
 2230TIP3   OH2 6632   6.363   0.861   3.473
 2230TIP3    H1 6633   6.325   0.881   3.385
 2230TIP3    H2 6634   6.394   0.768   3.462
 2231TIP3   OH2 6635   6.249   0.641   1.710
 2231TIP3    H1 6636   6.251   0.638   1.808
 2231TIP3    H2 6637   6.199   0.563   1.685
 2232TIP3   OH2 6638   6.857   0.872   3.078
 2232TIP3    H1 6639   6.934   0.914   3.035
 2232TIP3    H2 6640   6.789   0.940   3.062
 2233TIP3   OH2 6641   5.882   0.503   3.681
 2233TIP3    H1 6642   5.968   0.466   3.654
 2233TIP3    H2 6643   5.906   0.541   3.769
 2234TIP3   OH2 6644   5.940   0.325   2.118
 2234TIP3    H1 6645   5.915   0.300   2.209
 2234TIP3    H2 6646   5.971   0.242   2.081
 2235TIP3   OH2 6647   6.211   0.421   3.339
 2235TIP3    H1 6648   6.129   0.475   3.333
 2235TIP3    H2 6649   6.260   0.449   3.258
 2236TIP3   OH2 6650   6.732   0.797   3.475
 2236TIP3    H1 6651   6.805   0.762   3.422
 2236TIP3    H2 6652   6.722   0.727   3.542
 2237TIP3   OH2 6653   6.296   0.200   3.464
 2237TIP3    H1 6654   6.249   0.138   3.406
 2237TIP3    H2 6655   6.271   0.285   3.421
 2238TIP3   OH2 6656   6.374   0.510   3.144
 2238TIP3    H1 6657   6.457   0.517   3.094
 2238TIP3    H2 6658   6.316   0.574   3.096
 2239TIP3   OH2 6659   6.939   0.472   3.506
 2239TIP3    H1 6660   6.972   0.416   3.580
 2239TIP3    H2 6661   7.017   0.522   3.482
 2240TIP3   OH2 6662   6.989   0.724   3.261
 2240TIP3    H1 6663   6.930   0.779   3.204
 2240TIP3    H2 6664   7.076   0.748   3.222
 2241TIP3   OH2 6665   6.172   0.324   3.693
 2241TIP3    H1 6666   6.144   0.239   3.730
 2241TIP3    H2 6667   6.236   0.295   3.625
 2242TIP3   OH2 6668   6.579   0.255   3.499
 2242TIP3    H1 6669   6.608   0.221   3.586
 2242TIP3    H2 6670   6.483   0.241   3.505
 2243TIP3   OH2 6671   5.850   1.184   1.859
 2243TIP3    H1 6672   5.946   1.178   1.845
 2243TIP3    H2 6673   5.826   1.235   1.780
 2244TIP3   OH2 6674   5.332   0.574   2.083
 2244TIP3    H1 6675   5.426   0.597   2.064
 2244TIP3    H2 6676   5.328   0.484   2.045
 2245TIP3   OH2 6677   5.248   1.177   2.491
 2245TIP3    H1 6678   5.182   1.116   2.452
 2245TIP3    H2 6679   5.293   1.118   2.556
 2246TIP3   OH2 6680   5.383   1.023   2.676
 2246TIP3    H1 6681   5.371   0.954   2.743
 2246TIP3    H2 6682   5.436   1.087   2.727
 2247TIP3   OH2 6683   7.109   1.430   2.478
 2247TIP3    H1 6684   7.141   1.465   2.563
 2247TIP3    H2 6685   7.178   1.458   2.416
 2248TIP3   OH2 6686   7.137   1.450   2.762
 2248TIP3    H1 6687   7.093   1.363   2.755
 2248TIP3    H2 6688   7.216   1.424   2.811
 2249TIP3   OH2 6689   7.185   1.124   3.334
 2249TIP3    H1 6690   7.112   1.135   3.398
 2249TIP3    H2 6691   7.226   1.213   3.335
 2250TIP3   OH2 6692   6.962   0.688   1.989
 2250TIP3    H1 6693   7.023   0.763   1.969
 2250TIP3    H2 6694   7.023   0.634   2.043
 2251TIP3   OH2 6695   7.116   0.528   2.153
 2251TIP3    H1 6696   7.054   0.468   2.199
 2251TIP3    H2 6697   7.185   0.540   2.220
 2252TIP3   OH2 6698   7.185   0.899   2.586
 2252TIP3    H1 6699   7.230   0.836   2.528
 2252TIP3    H2 6700   7.181   0.978   2.530
 2253TIP3   OH2 6701   7.012   1.198   2.781
 2253TIP3    H1 6702   6.941   1.242   2.831
 2253TIP3    H2 6703   6.963   1.153   2.709
 2254TIP3   OH2 6704   6.943   0.370   2.306
 2254TIP3    H1 6705   6.959   0.275   2.306
 2254TIP3    H2 6706   6.925   0.388   2.401
 2255TIP3   OH2 6707   5.567   0.436   3.049
 2255TIP3    H1 6708   5.565   0.407   2.955
 2255TIP3    H2 6709   5.664   0.438   3.065
 2256TIP3   OH2 6710   7.234   0.790   3.156
 2256TIP3    H1 6711   7.306   0.723   3.148
 2256TIP3    H2 6712   7.261   0.857   3.091
 2257TIP3   OH2 6713   7.409   0.586   3.181
 2257TIP3    H1 6714   7.336   0.531   3.217
 2257TIP3    H2 6715   7.485   0.524   3.194
 2258TIP3   OH2 6716   7.099   0.262   2.694
 2258TIP3    H1 6717   7.183   0.287   2.650
 2258TIP3    H2 6718   7.116   0.295   2.784
 2259TIP3   OH2 6719   7.160   0.406   2.925
 2259TIP3    H1 6720   7.082   0.443   2.972
 2259TIP3    H2 6721   7.192   0.485   2.875
 2260TIP3   OH2 6722   5.785   0.118   3.728
 2260TIP3    H1 6723   5.873   0.095   3.697
 2260TIP3    H2 6724   5.751   0.032   3.757
 2261TIP3   OH2 6725   5.545   0.088   3.125
 2261TIP3    H1 6726   5.591   0.090   3.038
 2261TIP3    H2 6727   5.576   0.170   3.164
 2262TIP3   OH2 6728   6.693   1.296   2.133
 2262TIP3    H1 6729   6.748   1.290   2.052
 2262TIP3    H2 6730   6.743   1.362   2.185
 2263TIP3   OH2 6731   5.793   1.100   3.515
 2263TIP3    H1 6732   5.700   1.076   3.501
 2263TIP3    H2 6733   5.804   1.085   3.610
 2264TIP3   OH2 6734   5.974   1.135   3.064
 2264TIP3    H1 6735   5.927   1.211   3.025
 2264TIP3    H2 6736   6.060   1.148   3.020
 2265TIP3   OH2 6737   6.414   1.376   3.202
 2265TIP3    H1 6738   6.456   1.376   3.291
 2265TIP3    H2 6739   6.479   1.428   3.151
 2266TIP3   OH2 6740   6.594   1.530   3.064
 2266TIP3    H1 6741   6.664   1.480   3.020
 2266TIP3    H2 6742   6.647   1.587   3.125
 2267TIP3   OH2 6743   5.646   1.386   3.092
 2267TIP3    H1 6744   5.557   1.419   3.068
 2267TIP3    H2 6745   5.662   1.437   3.173
 2268TIP3   OH2 6746   5.883   1.367   2.948
 2268TIP3    H1 6747   5.796   1.380   2.990
 2268TIP3    H2 6748   5.866   1.401   2.858
 2269TIP3   OH2 6749   6.309   1.395   2.746
 2269TIP3    H1 6750   6.242   1.413   2.678
 2269TIP3    H2 6751   6.321   1.483   2.786
 2270TIP3   OH2 6752   6.579   1.334   2.798
 2270TIP3    H1 6753   6.485   1.353   2.778
 2270TIP3    H2 6754   6.624   1.407   2.753
 2271TIP3   OH2 6755   6.785   1.526   2.710
 2271TIP3    H1 6756   6.770   1.610   2.662
 2271TIP3    H2 6757   6.812   1.466   2.637
 2272TIP3   OH2 6758   5.558   1.181   2.832
 2272TIP3    H1 6759   5.585   1.155   2.923
 2272TIP3    H2 6760   5.632   1.139   2.781
 2273TIP3   OH2 6761   5.755   1.055   2.692
 2273TIP3    H1 6762   5.771   0.971   2.742
 2273TIP3    H2 6763   5.846   1.091   2.688
 2274TIP3   OH2 6764   6.020   1.146   2.698
 2274TIP3    H1 6765   6.052   1.055   2.688
 2274TIP3    H2 6766   6.068   1.171   2.779
 2275TIP3   OH2 6767   5.347   0.958   2.224
 2275TIP3    H1 6768   5.261   0.925   2.190
 2275TIP3    H2 6769   5.338   1.052   2.202
 2276TIP3   OH2 6770   6.117   1.153   1.812
 2276TIP3    H1 6771   6.205   1.173   1.774
 2276TIP3    H2 6772   6.094   1.076   1.756
 2277TIP3   OH2 6773   6.844   1.272   1.901
 2277TIP3    H1 6774   6.829   1.174   1.904
 2277TIP3    H2 6775   6.794   1.296   1.820
 2278TIP3   OH2 6776   5.424   0.979   1.861
 2278TIP3    H1 6777   5.429   0.998   1.956
 2278TIP3    H2 6778   5.511   0.936   1.844
 2279TIP3   OH2 6779   7.063   1.405   3.087
 2279TIP3    H1 6780   6.986   1.374   3.036
 2279TIP3    H2 6781   7.044   1.501   3.092
 2280TIP3   OH2 6782   7.579   1.066   2.363
 2280TIP3    H1 6783   7.551   0.996   2.303
 2280TIP3    H2 6784   7.674   1.070   2.343
 2281TIP3   OH2 6785   7.383   0.569   2.283
 2281TIP3    H1 6786   7.438   0.490   2.279
 2281TIP3    H2 6787   7.392   0.604   2.193
 2282TIP3   OH2 6788   7.163   0.859   1.940
 2282TIP3    H1 6789   7.213   0.810   1.871
 2282TIP3    H2 6790   7.214   0.943   1.944
 2283TIP3   OH2 6791   7.774   1.429   2.812
 2283TIP3    H1 6792   7.740   1.433   2.722
 2283TIP3    H2 6793   7.694   1.424   2.866
 2284TIP3   OH2 6794   7.393   0.945   2.780
 2284TIP3    H1 6795   7.322   0.917   2.719
 2284TIP3    H2 6796   7.426   0.860   2.817
 2285TIP3   OH2 6797   7.249   1.128   2.423
 2285TIP3    H1 6798   7.346   1.131   2.416
 2285TIP3    H2 6799   7.233   1.208   2.474
 2286TIP3   OH2 6800   7.391   1.353   1.945
 2286TIP3    H1 6801   7.464   1.355   2.009
 2286TIP3    H2 6802   7.365   1.259   1.950
 2287TIP3   OH2 6803   7.595   1.128   2.756
 2287TIP3    H1 6804   7.650   1.101   2.833
 2287TIP3    H2 6805   7.520   1.065   2.764
 2288TIP3   OH2 6806   7.739   1.035   2.975
 2288TIP3    H1 6807   7.819   1.082   3.005
 2288TIP3    H2 6808   7.689   1.028   3.059
 2289TIP3   OH2 6809   7.484   0.737   2.930
 2289TIP3    H1 6810   7.534   0.729   3.013
 2289TIP3    H2 6811   7.432   0.655   2.928
 2290TIP3   OH2 6812   7.429   1.314   2.564
 2290TIP3    H1 6813   7.488   1.246   2.601
 2290TIP3    H2 6814   7.462   1.394   2.606
 2291TIP3   OH2 6815   7.267   1.108   1.919
 2291TIP3    H1 6816   7.193   1.142   1.971
 2291TIP3    H2 6817   7.242   1.137   1.828
 2292TIP3   OH2 6818   7.422   1.624   2.985
 2292TIP3    H1 6819   7.511   1.616   3.026
 2292TIP3    H2 6820   7.395   1.531   2.982
 2293TIP3   OH2 6821   7.550   1.028   3.189
 2293TIP3    H1 6822   7.568   0.932   3.189
 2293TIP3    H2 6823   7.466   1.031   3.138
 2294TIP3   OH2 6824   7.665   0.767   3.164
 2294TIP3    H1 6825   7.743   0.717   3.139
 2294TIP3    H2 6826   7.692   0.799   3.253
 2295TIP3   OH2 6827   7.047   1.440   1.976
 2295TIP3    H1 6828   6.980   1.379   1.941
 2295TIP3    H2 6829   7.091   1.382   2.043
 2296TIP3   OH2 6830   7.167   1.285   2.169
 2296TIP3    H1 6831   7.167   1.211   2.231
 2296TIP3    H2 6832   7.228   1.346   2.214
 2297TIP3   OH2 6833   7.377   0.685   2.534
 2297TIP3    H1 6834   7.367   0.647   2.444
 2297TIP3    H2 6835   7.467   0.719   2.531
 2298TIP3   OH2 6836   7.579   0.374   3.208
 2298TIP3    H1 6837   7.674   0.360   3.209
 2298TIP3    H2 6838   7.546   0.290   3.246
 2299TIP3   OH2 6839   7.346   0.344   2.598
 2299TIP3    H1 6840   7.425   0.329   2.546
 2299TIP3    H2 6841   7.362   0.430   2.638
 2300TIP3   OH2 6842   7.588   1.364   3.008
 2300TIP3    H1 6843   7.499   1.332   2.982
 2300TIP3    H2 6844   7.595   1.330   3.098
 2301TIP3   OH2 6845   7.433   1.633   2.583
 2301TIP3    H1 6846   7.347   1.673   2.557
 2301TIP3    H2 6847   7.456   1.690   2.657
 2302TIP3   OH2 6848   7.692   1.622   2.452
 2302TIP3    H1 6849   7.599   1.626   2.481
 2302TIP3    H2 6850   7.684   1.655   2.360
 2303TIP3   OH2 6851   7.348   1.441   2.323
 2303TIP3    H1 6852   7.380   1.420   2.412
 2303TIP3    H2 6853   7.420   1.400   2.270
 2304TIP3   OH2 6854   7.537   1.307   2.183
 2304TIP3    H1 6855   7.546   1.217   2.217
 2304TIP3    H2 6856   7.629   1.324   2.152
 2305TIP3   OH2 6857   7.149   1.210   1.694
 2305TIP3    H1 6858   7.060   1.175   1.674
 2305TIP3    H2 6859   7.130   1.306   1.696
 2306TIP3   OH2 6860   7.212   1.267   1.377
 2306TIP3    H1 6861   7.198   1.275   1.472
 2306TIP3    H2 6862   7.272   1.190   1.370
 2307TIP3   OH2 6863   0.787   1.579   3.545
 2307TIP3    H1 6864   0.755   1.666   3.511
 2307TIP3    H2 6865   0.704   1.543   3.577
 2308TIP3   OH2 6866   0.787   1.568   3.928
 2308TIP3    H1 6867   0.822   1.545   4.016
 2308TIP3    H2 6868   0.749   1.483   3.900
 2309TIP3   OH2 6869   0.087   1.464   4.297
 2309TIP3    H1 6870   0.132   1.398   4.353
 2309TIP3    H2 6871   0.156   1.531   4.289
 2310TIP3   OH2 6872   1.015   1.852   3.604
 2310TIP3    H1 6873   1.009   1.772   3.658
 2310TIP3    H2 6874   1.066   1.911   3.660
 2311TIP3   OH2 6875   0.043   1.854   4.018
 2311TIP3    H1 6876   0.047   1.756   4.017
 2311TIP3    H2 6877   0.137   1.876   4.000
 2312TIP3   OH2 6878   0.682   2.341   3.631
 2312TIP3    H1 6879   0.713   2.264   3.581
 2312TIP3    H2 6880   0.603   2.307   3.679
 2313TIP3   OH2 6881   0.587   1.792   3.974
 2313TIP3    H1 6882   0.627   1.715   3.930
 2313TIP3    H2 6883   0.669   1.842   3.993
 2314TIP3   OH2 6884   1.598   1.110   3.973
 2314TIP3    H1 6885   1.626   1.194   4.014
 2314TIP3    H2 6886   1.615   1.128   3.879
 2315TIP3   OH2 6887   0.997   1.293   4.004
 2315TIP3    H1 6888   1.039   1.206   4.020
 2315TIP3    H2 6889   0.960   1.279   3.915
 2316TIP3   OH2 6890   1.021   1.054   3.608
 2316TIP3    H1 6891   1.102   1.032   3.660
 2316TIP3    H2 6892   1.060   1.070   3.521
 2317TIP3   OH2 6893   0.414   1.346   3.864
 2317TIP3    H1 6894   0.510   1.344   3.883
 2317TIP3    H2 6895   0.397   1.251   3.856
 2318TIP3   OH2 6896   1.670   1.320   4.145
 2318TIP3    H1 6897   1.586   1.367   4.127
 2318TIP3    H2 6898   1.698   1.363   4.227
 2319TIP3   OH2 6899   0.354   0.930   4.398
 2319TIP3    H1 6900   0.298   0.970   4.329
 2319TIP3    H2 6901   0.293   0.930   4.474
 2320TIP3   OH2 6902   0.658   1.785   3.417
 2320TIP3    H1 6903   0.651   1.785   3.321
 2320TIP3    H2 6904   0.619   1.871   3.439
 2321TIP3   OH2 6905   0.433   1.716   4.197
 2321TIP3    H1 6906   0.374   1.785   4.235
 2321TIP3    H2 6907   0.474   1.764   4.122
 2322TIP3   OH2 6908   1.242   1.044   3.770
 2322TIP3    H1 6909   1.219   1.003   3.855
 2322TIP3    H2 6910   1.289   1.125   3.797
 2323TIP3   OH2 6911   0.205   1.040   4.201
 2323TIP3    H1 6912   0.257   1.122   4.208
 2323TIP3    H2 6913   0.219   1.014   4.110
 2324TIP3   OH2 6914   0.265   1.918   4.288
 2324TIP3    H1 6915   0.221   1.979   4.227
 2324TIP3    H2 6916   0.189   1.896   4.347
 2325TIP3   OH2 6917   1.386   1.009   4.137
 2325TIP3    H1 6918   1.300   1.034   4.101
 2325TIP3    H2 6919   1.448   1.041   4.068
 2326TIP3   OH2 6920   0.704   0.670   4.127
 2326TIP3    H1 6921   0.670   0.581   4.111
 2326TIP3    H2 6922   0.621   0.714   4.157
 2327TIP3   OH2 6923   0.808   2.155   3.478
 2327TIP3    H1 6924   0.848   2.070   3.445
 2327TIP3    H2 6925   0.866   2.218   3.428
 2328TIP3   OH2 6926   0.930   1.941   3.357
 2328TIP3    H1 6927   0.940   1.869   3.292
 2328TIP3    H2 6928   0.962   1.897   3.439
 2329TIP3   OH2 6929   1.320   2.021   4.121
 2329TIP3    H1 6930   1.311   1.944   4.061
 2329TIP3    H2 6931   1.303   2.096   4.060
 2330TIP3   OH2 6932   1.515   1.659   3.962
 2330TIP3    H1 6933   1.433   1.712   3.968
 2330TIP3    H2 6934   1.547   1.686   3.873
 2331TIP3   OH2 6935   0.962   1.505   3.346
 2331TIP3    H1 6936   0.906   1.528   3.423
 2331TIP3    H2 6937   1.045   1.476   3.389
 2332TIP3   OH2 6938   1.195   1.536   4.262
 2332TIP3    H1 6939   1.196   1.619   4.313
 2332TIP3    H2 6940   1.109   1.543   4.217
 2333TIP3   OH2 6941   0.190   1.487   3.761
 2333TIP3    H1 6942   0.172   1.447   3.674
 2333TIP3    H2 6943   0.273   1.443   3.788
 2334TIP3   OH2 6944   0.314   1.889   3.915
 2334TIP3    H1 6945   0.306   1.872   3.820
 2334TIP3    H2 6946   0.409   1.872   3.931
 2335TIP3   OH2 6947   0.329   1.475   4.111
 2335TIP3    H1 6948   0.367   1.457   4.023
 2335TIP3    H2 6949   0.371   1.561   4.135
 2336TIP3   OH2 6950   0.458   2.032   4.451
 2336TIP3    H1 6951   0.401   2.082   4.512
 2336TIP3    H2 6952   0.392   1.993   4.390
 2337TIP3   OH2 6953   0.242   1.586   4.537
 2337TIP3    H1 6954   0.241   1.674   4.581
 2337TIP3    H2 6955   0.148   1.561   4.544
 2338TIP3   OH2 6956   0.548   2.041   3.438
 2338TIP3    H1 6957   0.624   2.097   3.457
 2338TIP3    H2 6958   0.481   2.104   3.406
 2339TIP3   OH2 6959   1.126   1.976   2.777
 2339TIP3    H1 6960   1.131   2.072   2.756
 2339TIP3    H2 6961   1.219   1.948   2.759
 2340TIP3   OH2 6962  -0.156   1.713   4.489
 2340TIP3    H1 6963  -0.205   1.713   4.406
 2340TIP3    H2 6964  -0.117   1.625   4.490
 2341TIP3   OH2 6965  -0.284   1.936   4.090
 2341TIP3    H1 6966  -0.190   1.915   4.077
 2341TIP3    H2 6967  -0.278   2.008   4.154
 2342TIP3   OH2 6968   1.568   2.354   4.183
 2342TIP3    H1 6969   1.558   2.260   4.205
 2342TIP3    H2 6970   1.486   2.392   4.219
 2343TIP3   OH2 6971   0.663   2.152   4.309
 2343TIP3    H1 6972   0.663   2.245   4.340
 2343TIP3    H2 6973   0.588   2.116   4.360
 2344TIP3   OH2 6974   0.432   2.280   3.260
 2344TIP3    H1 6975   0.393   2.264   3.172
 2344TIP3    H2 6976   0.397   2.368   3.283
 2345TIP3   OH2 6977  -0.137   2.143   3.624
 2345TIP3    H1 6978  -0.087   2.109   3.701
 2345TIP3    H2 6979  -0.187   2.063   3.597
 2346TIP3   OH2 6980   0.631   2.175   2.893
 2346TIP3    H1 6981   0.693   2.110   2.856
 2346TIP3    H2 6982   0.668   2.190   2.983
 2347TIP3   OH2 6983   0.682   2.236   3.160
 2347TIP3    H1 6984   0.594   2.244   3.202
 2347TIP3    H2 6985   0.733   2.191   3.228
 2348TIP3   OH2 6986   1.450   1.495   4.444
 2348TIP3    H1 6987   1.368   1.512   4.395
 2348TIP3    H2 6988   1.464   1.399   4.427
 2349TIP3   OH2 6989   0.059   1.885   4.461
 2349TIP3    H1 6990   0.097   1.899   4.549
 2349TIP3    H2 6991  -0.024   1.838   4.480
 2350TIP3   OH2 6992   0.453   0.750   4.209
 2350TIP3    H1 6993   0.372   0.696   4.203
 2350TIP3    H2 6994   0.428   0.814   4.279
 2351TIP3   OH2 6995   1.016   0.852   4.436
 2351TIP3    H1 6996   1.069   0.810   4.505
 2351TIP3    H2 6997   0.924   0.837   4.469
 2352TIP3   OH2 6998   1.212   1.274   4.362
 2352TIP3    H1 6999   1.160   1.276   4.445
 2352TIP3    H2 7000   1.195   1.363   4.324
 2353TIP3   OH2 7001   0.378   1.250   4.255
 2353TIP3    H1 7002   0.333   1.269   4.340
 2353TIP3    H2 7003   0.361   1.333   4.205
 2354TIP3   OH2 7004   0.770   1.253   3.497
 2354TIP3    H1 7005   0.685   1.275   3.457
 2354TIP3    H2 7006   0.829   1.255   3.420
 2355TIP3   OH2 7007   0.925   1.492   4.588
 2355TIP3    H1 7008   0.903   1.425   4.656
 2355TIP3    H2 7009   1.017   1.514   4.612
 2356TIP3   OH2 7010   0.907   1.256   3.746
 2356TIP3    H1 7011   0.854   1.283   3.668
 2356TIP3    H2 7012   0.945   1.173   3.708
 2357TIP3   OH2 7013   0.207   1.287   4.466
 2357TIP3    H1 7014   0.229   1.353   4.533
 2357TIP3    H2 7015   0.165   1.218   4.519
 2358TIP3   OH2 7016   0.919   1.492   4.166
 2358TIP3    H1 7017   0.953   1.420   4.108
 2358TIP3    H2 7018   0.887   1.439   4.241
 2359TIP3   OH2 7019   0.582   0.989   3.864
 2359TIP3    H1 7020   0.522   0.918   3.888
 2359TIP3    H2 7021   0.668   0.955   3.893
 2360TIP3   OH2 7022   1.082   1.030   4.045
 2360TIP3    H1 7023   1.044   1.045   4.135
 2360TIP3    H2 7024   1.015   0.971   4.007
 2361TIP3   OH2 7025   0.215   1.828   4.694
 2361TIP3    H1 7026   0.295   1.866   4.735
 2361TIP3    H2 7027   0.152   1.836   4.768
 2362TIP3   OH2 7028   0.674   1.296   3.941
 2362TIP3    H1 7029   0.732   1.244   3.885
 2362TIP3    H2 7030   0.673   1.243   4.023
 2363TIP3   OH2 7031   0.648   1.187   4.225
 2363TIP3    H1 7032   0.557   1.222   4.237
 2363TIP3    H2 7033   0.704   1.251   4.273
 2364TIP3   OH2 7034   1.283   1.806   3.950
 2364TIP3    H1 7035   1.310   1.852   3.868
 2364TIP3    H2 7036   1.200   1.760   3.923
 2365TIP3   OH2 7037   0.798   1.905   4.307
 2365TIP3    H1 7038   0.812   1.871   4.396
 2365TIP3    H2 7039   0.742   1.984   4.322
 2366TIP3   OH2 7040   0.069   1.574   4.002
 2366TIP3    H1 7041   0.102   1.550   3.913
 2366TIP3    H2 7042   0.131   1.526   4.059
 2367TIP3   OH2 7043   0.515   1.712   3.151
 2367TIP3    H1 7044   0.489   1.807   3.142
 2367TIP3    H2 7045   0.466   1.688   3.230
 2368TIP3   OH2 7046   0.002   1.469   4.618
 2368TIP3    H1 7047   0.037   1.497   4.705
 2368TIP3    H2 7048  -0.095   1.472   4.636
 2369TIP3   OH2 7049   0.685   1.630   4.631
 2369TIP3    H1 7050   0.622   1.567   4.591
 2369TIP3    H2 7051   0.770   1.595   4.599
 2370TIP3   OH2 7052   0.919   2.200   4.181
 2370TIP3    H1 7053   0.837   2.163   4.219
 2370TIP3    H2 7054   0.966   2.218   4.265
 2371TIP3   OH2 7055   1.352   1.218   3.108
 2371TIP3    H1 7056   1.269   1.175   3.083
 2371TIP3    H2 7057   1.339   1.308   3.071
 2372TIP3   OH2 7058   1.574   2.068   4.206
 2372TIP3    H1 7059   1.477   2.066   4.193
 2372TIP3    H2 7060   1.604   2.051   4.113
 2373TIP3   OH2 7061   1.059   2.039   3.039
 2373TIP3    H1 7062   1.022   1.963   3.086
 2373TIP3    H2 7063   1.072   2.004   2.949
 2374TIP3   OH2 7064   1.050   1.673   3.859
 2374TIP3    H1 7065   0.957   1.646   3.878
 2374TIP3    H2 7066   1.084   1.590   3.820
 2375TIP3   OH2 7067   0.171   1.901   3.628
 2375TIP3    H1 7068   0.168   1.990   3.585
 2375TIP3    H2 7069   0.110   1.917   3.701
 2376TIP3   OH2 7070   0.339   1.673   3.607
 2376TIP3    H1 7071   0.292   1.758   3.597
 2376TIP3    H2 7072   0.278   1.624   3.664
 2377TIP3   OH2 7073   0.466   2.233   4.083
 2377TIP3    H1 7074   0.507   2.307   4.035
 2377TIP3    H2 7075   0.526   2.217   4.157
 2378TIP3   OH2 7076   0.117   2.140   3.506
 2378TIP3    H1 7077   0.025   2.151   3.536
 2378TIP3    H2 7078   0.141   2.233   3.489
 2379TIP3   OH2 7079   0.842   1.890   4.039
 2379TIP3    H1 7080   0.827   1.893   4.136
 2379TIP3    H2 7081   0.914   1.826   4.033
 2380TIP3   OH2 7082   0.829   1.792   2.952
 2380TIP3    H1 7083   0.870   1.765   3.037
 2380TIP3    H2 7084   0.742   1.749   2.958
 2381TIP3   OH2 7085   1.099   2.403   4.096
 2381TIP3    H1 7086   1.019   2.363   4.135
 2381TIP3    H2 7087   1.066   2.471   4.033
 2382TIP3   OH2 7088   1.151   2.249   2.754
 2382TIP3    H1 7089   1.190   2.323   2.703
 2382TIP3    H2 7090   1.070   2.293   2.787
 2383TIP3   OH2 7091   0.977   1.728   3.178
 2383TIP3    H1 7092   0.957   1.647   3.229
 2383TIP3    H2 7093   1.066   1.705   3.147
 2384TIP3   OH2 7094   1.005   1.092   4.305
 2384TIP3    H1 7095   1.089   1.134   4.330
 2384TIP3    H2 7096   1.007   1.008   4.355
 2385TIP3   OH2 7097   0.403   1.956   3.151
 2385TIP3    H1 7098   0.345   1.972   3.226
 2385TIP3    H2 7099   0.398   2.040   3.102
 2386TIP3   OH2 7100   0.842   1.332   4.372
 2386TIP3    H1 7101   0.869   1.383   4.451
 2386TIP3    H2 7102   0.895   1.251   4.379
 2387TIP3   OH2 7103   1.481   1.230   4.364
 2387TIP3    H1 7104   1.382   1.228   4.360
 2387TIP3    H2 7105   1.503   1.198   4.275
 2388TIP3   OH2 7106   1.135   1.429   3.748
 2388TIP3    H1 7107   1.059   1.369   3.757
 2388TIP3    H2 7108   1.206   1.379   3.794
 2389TIP3   OH2 7109   1.088   2.361   3.706
 2389TIP3    H1 7110   1.047   2.407   3.630
 2389TIP3    H2 7111   1.182   2.379   3.683
 2390TIP3   OH2 7112  -0.093   2.402   4.669
 2390TIP3    H1 7113  -0.020   2.348   4.704
 2390TIP3    H2 7114  -0.143   2.339   4.618
 2391TIP3   OH2 7115   1.010   2.268   4.434
 2391TIP3    H1 7116   0.995   2.207   4.509
 2391TIP3    H2 7117   1.078   2.327   4.470
 2392TIP3   OH2 7118   0.785   1.990   2.758
 2392TIP3    H1 7119   0.815   1.920   2.820
 2392TIP3    H2 7120   0.854   1.987   2.689
 2393TIP3   OH2 7121   0.001   1.812   4.877
 2393TIP3    H1 7122   0.027   1.718   4.868
 2393TIP3    H2 7123  -0.088   1.812   4.841
 2394TIP3   OH2 7124   0.611   1.906   4.648
 2394TIP3    H1 7125   0.565   1.926   4.564
 2394TIP3    H2 7126   0.641   1.814   4.637
 2395TIP3   OH2 7127   1.107   1.904   4.256
 2395TIP3    H1 7128   1.180   1.956   4.215
 2395TIP3    H2 7129   1.031   1.964   4.247
 2396TIP3   OH2 7130   0.107   1.553   4.859
 2396TIP3    H1 7131   0.180   1.489   4.852
 2396TIP3    H2 7132   0.121   1.580   4.952
 2397TIP3   OH2 7133   0.471   1.436   4.518
 2397TIP3    H1 7134   0.394   1.497   4.520
 2397TIP3    H2 7135   0.520   1.471   4.440
 2398TIP3   OH2 7136   0.975   1.836   4.650
 2398TIP3    H1 7137   1.063   1.819   4.613
 2398TIP3    H2 7138   0.971   1.774   4.725
 2399TIP3   OH2 7139   0.592   1.221   4.631
 2399TIP3    H1 7140   0.595   1.147   4.567
 2399TIP3    H2 7141   0.548   1.292   4.579
 2400TIP3   OH2 7142   0.607   1.019   4.445
 2400TIP3    H1 7143   0.628   1.062   4.359
 2400TIP3    H2 7144   0.517   0.984   4.429
 2401TIP3   OH2 7145   0.610   1.548   4.320
 2401TIP3    H1 7146   0.695   1.562   4.276
 2401TIP3    H2 7147   0.553   1.615   4.277
 2402TIP3   OH2 7148   1.192   1.523   4.697
 2402TIP3    H1 7149   1.254   1.454   4.724
 2402TIP3    H2 7150   1.252   1.592   4.664
 2403TIP3   OH2 7151   1.240   1.761   4.437
 2403TIP3    H1 7152   1.180   1.815   4.381
 2403TIP3    H2 7153   1.327   1.786   4.398
 2404TIP3   OH2 7154   0.497   1.327   4.872
 2404TIP3    H1 7155   0.403   1.324   4.898
 2404TIP3    H2 7156   0.500   1.288   4.782
 2405TIP3   OH2 7157   0.758   0.798   4.496
 2405TIP3    H1 7158   0.707   0.880   4.478
 2405TIP3    H2 7159   0.685   0.734   4.503
 2406TIP3   OH2 7160   0.843   1.276   4.735
 2406TIP3    H1 7161   0.821   1.264   4.830
 2406TIP3    H2 7162   0.756   1.254   4.696
 2407TIP3   OH2 7163   1.076   1.226   4.595
 2407TIP3    H1 7164   0.990   1.237   4.641
 2407TIP3    H2 7165   1.133   1.203   4.669
 2408TIP3   OH2 7166   1.372   1.096   4.824
 2408TIP3    H1 7167   1.281   1.065   4.819
 2408TIP3    H2 7168   1.353   1.189   4.853
 2409TIP3   OH2 7169   0.801   0.768   4.766
 2409TIP3    H1 7170   0.876   0.706   4.764
 2409TIP3    H2 7171   0.787   0.782   4.670
 2410TIP3   OH2 7172   0.883   0.998   4.913
 2410TIP3    H1 7173   0.844   0.925   4.860
 2410TIP3    H2 7174   0.805   1.058   4.923
 2411TIP3   OH2 7175  -0.395   2.090   3.871
 2411TIP3    H1 7176  -0.372   2.011   3.923
 2411TIP3    H2 7177  -0.324   2.149   3.899
 2412TIP3   OH2 7178   1.347   2.444   3.649
 2412TIP3    H1 7179   1.377   2.465   3.741
 2412TIP3    H2 7180   1.377   2.523   3.603
 2413TIP3   OH2 7181   1.419   2.474   3.904
 2413TIP3    H1 7182   1.402   2.396   3.958
 2413TIP3    H2 7183   1.421   2.546   3.972
 2414TIP3   OH2 7184   1.434   2.167   4.509
 2414TIP3    H1 7185   1.361   2.180   4.573
 2414TIP3    H2 7186   1.475   2.256   4.510
 2415TIP3   OH2 7187   1.256   1.679   3.123
 2415TIP3    H1 7188   1.320   1.747   3.095
 2415TIP3    H2 7189   1.298   1.645   3.205
 2416TIP3   OH2 7190   1.379   1.548   3.332
 2416TIP3    H1 7191   1.310   1.506   3.389
 2416TIP3    H2 7192   1.440   1.586   3.398
 2417TIP3   OH2 7193   1.414   1.934   3.750
 2417TIP3    H1 7194   1.479   1.871   3.712
 2417TIP3    H2 7195   1.434   2.017   3.701
 2418TIP3   OH2 7196   1.257   2.231   3.960
 2418TIP3    H1 7197   1.210   2.296   4.016
 2418TIP3    H2 7198   1.227   2.256   3.871
 2419TIP3   OH2 7199   1.296   1.453   2.974
 2419TIP3    H1 7200   1.212   1.458   2.926
 2419TIP3    H2 7201   1.285   1.532   3.032
 2420TIP3   OH2 7202   1.191   1.410   3.477
 2420TIP3    H1 7203   1.186   1.313   3.463
 2420TIP3    H2 7204   1.178   1.417   3.574
 2421TIP3   OH2 7205  -0.175   1.467   4.238
 2421TIP3    H1 7206  -0.176   1.500   4.147
 2421TIP3    H2 7207  -0.078   1.472   4.256
 2422TIP3   OH2 7208   1.482   1.833   4.333
 2422TIP3    H1 7209   1.553   1.766   4.322
 2422TIP3    H2 7210   1.512   1.905   4.276
 2423TIP3   OH2 7211   1.662   1.632   4.343
 2423TIP3    H1 7212   1.590   1.582   4.388
 2423TIP3    H2 7213   1.738   1.572   4.358
 2424TIP3   OH2 7214   1.187   1.146   3.392
 2424TIP3    H1 7215   1.228   1.063   3.427
 2424TIP3    H2 7216   1.243   1.161   3.316
 2425TIP3   OH2 7217   1.347   1.295   3.869
 2425TIP3    H1 7218   1.433   1.319   3.826
 2425TIP3    H2 7219   1.363   1.333   3.957
 2426TIP3   OH2 7220   1.420   1.441   4.100
 2426TIP3    H1 7221   1.342   1.476   4.147
 2426TIP3    H2 7222   1.453   1.521   4.054
 2427TIP3   OH2 7223   1.866   1.028   4.663
 2427TIP3    H1 7224   1.925   0.966   4.616
 2427TIP3    H2 7225   1.824   1.075   4.588
 2428TIP3   OH2 7226   1.305   0.915   3.450
 2428TIP3    H1 7227   1.336   0.865   3.528
 2428TIP3    H2 7228   1.274   0.846   3.388
 2429TIP3   OH2 7229   1.737   1.165   4.465
 2429TIP3    H1 7230   1.652   1.211   4.477
 2429TIP3    H2 7231   1.707   1.090   4.408
 2430TIP3   OH2 7232   0.939   2.329   3.315
 2430TIP3    H1 7233   0.989   2.323   3.231
 2430TIP3    H2 7234   0.984   2.404   3.359
 2431TIP3   OH2 7235   0.663   2.421   4.376
 2431TIP3    H1 7236   0.701   2.420   4.467
 2431TIP3    H2 7237   0.731   2.472   4.328
 2432TIP3   OH2 7238   0.851   2.572   4.243
 2432TIP3    H1 7239   0.931   2.555   4.192
 2432TIP3    H2 7240   0.888   2.634   4.310
 2433TIP3   OH2 7241   1.646   0.940   4.329
 2433TIP3    H1 7242   1.553   0.935   4.303
 2433TIP3    H2 7243   1.674   0.846   4.326
 2434TIP3   OH2 7244   0.577   2.431   3.908
 2434TIP3    H1 7245   0.496   2.452   3.857
 2434TIP3    H2 7246   0.597   2.518   3.948
 2435TIP3   OH2 7247   1.015   2.563   3.895
 2435TIP3    H1 7248   1.017   2.659   3.873
 2435TIP3    H2 7249   1.055   2.526   3.814
 2436TIP3   OH2 7250   0.020   2.050   3.826
 2436TIP3    H1 7251   0.009   1.990   3.903
 2436TIP3    H2 7252   0.016   2.135   3.877
 2437TIP3   OH2 7253   0.298   2.213   3.852
 2437TIP3    H1 7254   0.274   2.120   3.846
 2437TIP3    H2 7255   0.306   2.223   3.948
 2438TIP3   OH2 7256   0.846   0.859   3.961
 2438TIP3    H1 7257   0.805   0.789   4.015
 2438TIP3    H2 7258   0.914   0.810   3.911
 2439TIP3   OH2 7259   1.367   0.736   3.880
 2439TIP3    H1 7260   1.409   0.781   3.803
 2439TIP3    H2 7261   1.272   0.747   3.859
 2440TIP3   OH2 7262   1.481   0.823   3.647
 2440TIP3    H1 7263   1.550   0.777   3.596
 2440TIP3    H2 7264   1.504   0.917   3.626
 2441TIP3   OH2 7265   1.083   0.736   3.837
 2441TIP3    H1 7266   1.089   0.701   3.747
 2441TIP3    H2 7267   1.075   0.653   3.888
 2442TIP3   OH2 7268   0.376   2.191   3.001
 2442TIP3    H1 7269   0.461   2.190   2.951
 2442TIP3    H2 7270   0.313   2.164   2.932
 2443TIP3   OH2 7271   1.086   2.307   3.080
 2443TIP3    H1 7272   1.080   2.209   3.069
 2443TIP3    H2 7273   1.041   2.338   2.999
 2444TIP3   OH2 7274   1.316   2.451   4.271
 2444TIP3    H1 7275   1.240   2.436   4.212
 2444TIP3    H2 7276   1.346   2.540   4.239
 2445TIP3   OH2 7277   2.579   1.818   3.027
 2445TIP3    H1 7278   2.547   1.908   3.008
 2445TIP3    H2 7279   2.504   1.767   2.993
 2446TIP3   OH2 7280   2.581   1.827   3.413
 2446TIP3    H1 7281   2.603   1.813   3.507
 2446TIP3    H2 7282   2.538   1.744   3.390
 2447TIP3   OH2 7283   1.878   1.713   3.773
 2447TIP3    H1 7284   1.903   1.644   3.837
 2447TIP3    H2 7285   1.957   1.770   3.778
 2448TIP3   OH2 7286   2.832   2.122   3.097
 2448TIP3    H1 7287   2.806   2.062   3.168
 2448TIP3    H2 7288   2.849   2.205   3.146
 2449TIP3   OH2 7289   1.560   1.333   3.281
 2449TIP3    H1 7290   1.509   1.415   3.299
 2449TIP3    H2 7291   1.490   1.274   3.251
 2450TIP3   OH2 7292   1.613   1.618   3.465
 2450TIP3    H1 7293   1.664   1.541   3.498
 2450TIP3    H2 7294   1.670   1.649   3.393
 2451TIP3   OH2 7295   2.461   2.581   3.114
 2451TIP3    H1 7296   2.513   2.512   3.067
 2451TIP3    H2 7297   2.486   2.567   3.207
 2452TIP3   OH2 7298   2.373   2.050   3.426
 2452TIP3    H1 7299   2.433   1.978   3.400
 2452TIP3    H2 7300   2.423   2.087   3.500
 2453TIP3   OH2 7301   3.391   1.366   3.455
 2453TIP3    H1 7302   3.422   1.447   3.500
 2453TIP3    H2 7303   3.444   1.369   3.372
 2454TIP3   OH2 7304   2.781   1.543   3.492
 2454TIP3    H1 7305   2.827   1.459   3.508
 2454TIP3    H2 7306   2.754   1.532   3.399
 2455TIP3   OH2 7307   2.133   1.207   3.453
 2455TIP3    H1 7308   2.109   1.281   3.392
 2455TIP3    H2 7309   2.083   1.134   3.410
 2456TIP3   OH2 7310   2.826   1.301   3.076
 2456TIP3    H1 7311   2.897   1.287   3.143
 2456TIP3    H2 7312   2.878   1.338   3.003
 2457TIP3   OH2 7313   1.762   1.410   3.563
 2457TIP3    H1 7314   1.844   1.392   3.611
 2457TIP3    H2 7315   1.776   1.354   3.484
 2458TIP3   OH2 7316   2.199   1.608   3.362
 2458TIP3    H1 7317   2.293   1.584   3.373
 2458TIP3    H2 7318   2.160   1.524   3.330
 2459TIP3   OH2 7319   3.464   1.572   3.628
 2459TIP3    H1 7320   3.378   1.618   3.618
 2459TIP3    H2 7321   3.487   1.596   3.719
 2460TIP3   OH2 7322   2.125   1.193   3.891
 2460TIP3    H1 7323   2.066   1.231   3.823
 2460TIP3    H2 7324   2.072   1.211   3.971
 2461TIP3   OH2 7325   2.458   2.031   2.898
 2461TIP3    H1 7326   2.430   2.014   2.806
 2461TIP3    H2 7327   2.474   2.126   2.896
 2462TIP3   OH2 7328   3.030   1.305   3.256
 2462TIP3    H1 7329   3.010   1.272   3.344
 2462TIP3    H2 7330   3.089   1.380   3.275
 2463TIP3   OH2 7331   1.997   1.306   3.673
 2463TIP3    H1 7332   2.056   1.382   3.697
 2463TIP3    H2 7333   2.049   1.268   3.599
 2464TIP3   OH2 7334   1.453   1.855   3.019
 2464TIP3    H1 7335   1.412   1.880   2.934
 2464TIP3    H2 7336   1.483   1.941   3.053
 2465TIP3   OH2 7337   2.884   2.354   3.252
 2465TIP3    H1 7338   2.800   2.361   3.302
 2465TIP3    H2 7339   2.884   2.442   3.207
 2466TIP3   OH2 7340   3.180   1.265   3.617
 2466TIP3    H1 7341   3.097   1.298   3.580
 2466TIP3    H2 7342   3.247   1.300   3.555
 2467TIP3   OH2 7343   2.480   0.907   3.611
 2467TIP3    H1 7344   2.459   0.813   3.624
 2467TIP3    H2 7345   2.403   0.949   3.655
 2468TIP3   OH2 7346   2.577   2.400   2.936
 2468TIP3    H1 7347   2.630   2.322   2.908
 2468TIP3    H2 7348   2.630   2.470   2.891
 2469TIP3   OH2 7349   2.721   2.183   2.849
 2469TIP3    H1 7350   2.731   2.108   2.788
 2469TIP3    H2 7351   2.771   2.154   2.928
 2470TIP3   OH2 7352   3.120   2.281   3.601
 2470TIP3    H1 7353   3.102   2.211   3.536
 2470TIP3    H2 7354   3.094   2.362   3.551
 2471TIP3   OH2 7355   2.409   1.673   2.860
 2471TIP3    H1 7356   2.330   1.728   2.840
 2471TIP3    H2 7357   2.456   1.675   2.775
 2472TIP3   OH2 7358   2.370   1.460   2.578
 2472TIP3    H1 7359   2.435   1.514   2.627
 2472TIP3    H2 7360   2.432   1.401   2.529
 2473TIP3   OH2 7361   3.305   1.920   3.466
 2473TIP3    H1 7362   3.226   1.977   3.450
 2473TIP3    H2 7363   3.321   1.881   3.379
 2474TIP3   OH2 7364   2.759   1.755   2.831
 2474TIP3    H1 7365   2.704   1.779   2.909
 2474TIP3    H2 7366   2.843   1.730   2.875
 2475TIP3   OH2 7367   3.001   1.790   3.754
 2475TIP3    H1 7368   2.996   1.874   3.805
 2475TIP3    H2 7369   2.912   1.792   3.711
 2476TIP3   OH2 7370   1.997   1.756   3.244
 2476TIP3    H1 7371   1.951   1.696   3.181
 2476TIP3    H2 7372   2.068   1.699   3.280
 2477TIP3   OH2 7373   2.164   2.175   3.310
 2477TIP3    H1 7374   2.107   2.098   3.332
 2477TIP3    H2 7375   2.243   2.145   3.362
 2478TIP3   OH2 7376   2.145   1.741   3.607
 2478TIP3    H1 7377   2.170   1.710   3.518
 2478TIP3    H2 7378   2.212   1.808   3.627
 2479TIP3   OH2 7379   2.653   2.373   3.397
 2479TIP3    H1 7380   2.671   2.439   3.466
 2479TIP3    H2 7381   2.634   2.294   3.451
 2480TIP3   OH2 7382   2.247   2.287   3.913
 2480TIP3    H1 7383   2.200   2.338   3.979
 2480TIP3    H2 7384   2.245   2.196   3.946
 2481TIP3   OH2 7385   2.597   1.614   2.659
 2481TIP3    H1 7386   2.656   1.675   2.709
 2481TIP3    H2 7387   2.623   1.635   2.566
 2482TIP3   OH2 7388   2.016   1.838   4.028
 2482TIP3    H1 7389   2.024   1.926   4.068
 2482TIP3    H2 7390   1.921   1.820   4.045
 2483TIP3   OH2 7391   2.304   2.350   2.969
 2483TIP3    H1 7392   2.400   2.370   2.952
 2483TIP3    H2 7393   2.268   2.393   2.887
 2484TIP3   OH2 7394   2.010   2.438   3.978
 2484TIP3    H1 7395   2.006   2.535   3.978
 2484TIP3    H2 7396   1.966   2.417   4.063
 2485TIP3   OH2 7397   1.856   1.599   3.055
 2485TIP3    H1 7398   1.789   1.644   2.999
 2485TIP3    H2 7399   1.815   1.512   3.067
 2486TIP3   OH2 7400   2.911   2.224   2.251
 2486TIP3    H1 7401   2.919   2.321   2.239
 2486TIP3    H2 7402   3.005   2.196   2.244
 2487TIP3   OH2 7403   1.638   1.985   3.956
 2487TIP3    H1 7404   1.576   1.949   3.890
 2487TIP3    H2 7405   1.685   1.905   3.987
 2488TIP3   OH2 7406   1.476   2.176   3.618
 2488TIP3    H1 7407   1.554   2.194   3.566
 2488TIP3    H2 7408   1.444   2.265   3.641
 2489TIP3   OH2 7409   3.355   2.629   3.656
 2489TIP3    H1 7410   3.352   2.534   3.676
 2489TIP3    H2 7411   3.270   2.657   3.697
 2490TIP3   OH2 7412   2.417   2.434   3.746
 2490TIP3    H1 7413   2.459   2.505   3.795
 2490TIP3    H2 7414   2.379   2.377   3.815
 2491TIP3   OH2 7415   2.205   2.516   2.760
 2491TIP3    H1 7416   2.189   2.506   2.665
 2491TIP3    H2 7417   2.193   2.612   2.773
 2492TIP3   OH2 7418   1.648   2.392   3.129
 2492TIP3    H1 7419   1.702   2.385   3.209
 2492TIP3    H2 7420   1.605   2.305   3.125
 2493TIP3   OH2 7421   3.245   1.756   3.931
 2493TIP3    H1 7422   3.166   1.772   3.876
 2493TIP3    H2 7423   3.262   1.661   3.914
 2494TIP3   OH2 7424   2.243   0.988   3.736
 2494TIP3    H1 7425   2.154   0.957   3.708
 2494TIP3    H2 7426   2.216   1.069   3.783
 2495TIP3   OH2 7427   2.780   1.113   3.973
 2495TIP3    H1 7428   2.813   1.024   3.992
 2495TIP3    H2 7429   2.684   1.099   3.983
 2496TIP3   OH2 7430   2.985   1.528   3.843
 2496TIP3    H1 7431   2.957   1.555   3.932
 2496TIP3    H2 7432   2.988   1.615   3.798
 2497TIP3   OH2 7433   2.673   1.655   2.404
 2497TIP3    H1 7434   2.639   1.635   2.315
 2497TIP3    H2 7435   2.752   1.708   2.381
 2498TIP3   OH2 7436   2.383   1.038   2.704
 2498TIP3    H1 7437   2.353   1.035   2.797
 2498TIP3    H2 7438   2.348   0.953   2.672
 2499TIP3   OH2 7439   2.168   1.507   3.748
 2499TIP3    H1 7440   2.127   1.530   3.833
 2499TIP3    H2 7441   2.159   1.593   3.701
 2500TIP3   OH2 7442   2.056   1.390   3.268
 2500TIP3    H1 7443   1.964   1.364   3.287
 2500TIP3    H2 7444   2.069   1.348   3.180
 2501TIP3   OH2 7445   2.547   1.474   2.993
 2501TIP3    H1 7446   2.495   1.545   2.951
 2501TIP3    H2 7447   2.603   1.443   2.919
 2502TIP3   OH2 7448   2.748   1.731   4.054
 2502TIP3    H1 7449   2.699   1.691   4.130
 2502TIP3    H2 7450   2.824   1.772   4.098
 2503TIP3   OH2 7451   2.703   1.502   3.232
 2503TIP3    H1 7452   2.642   1.534   3.163
 2503TIP3    H2 7453   2.737   1.422   3.185
 2504TIP3   OH2 7454   1.989   1.531   3.962
 2504TIP3    H1 7455   2.024   1.597   4.023
 2504TIP3    H2 7456   1.983   1.451   4.017
 2505TIP3   OH2 7457   2.050   0.994   2.685
 2505TIP3    H1 7458   2.042   0.994   2.782
 2505TIP3    H2 7459   1.977   1.056   2.662
 2506TIP3   OH2 7460   1.586   1.052   3.547
 2506TIP3    H1 7461   1.663   1.085   3.597
 2506TIP3    H2 7462   1.624   1.023   3.463
 2507TIP3   OH2 7463   1.583   1.061   3.076
 2507TIP3    H1 7464   1.623   1.076   2.988
 2507TIP3    H2 7465   1.514   1.129   3.080
 2508TIP3   OH2 7466   2.742   1.757   3.656
 2508TIP3    H1 7467   2.754   1.676   3.602
 2508TIP3    H2 7468   2.674   1.729   3.720
 2509TIP3   OH2 7469   2.388   1.205   3.326
 2509TIP3    H1 7470   2.304   1.207   3.377
 2509TIP3    H2 7471   2.454   1.213   3.397
 2510TIP3   OH2 7472   1.820   1.268   3.334
 2510TIP3    H1 7473   1.726   1.278   3.305
 2510TIP3    H2 7474   1.839   1.175   3.312
 2511TIP3   OH2 7475   2.091   1.264   3.030
 2511TIP3    H1 7476   2.183   1.283   3.006
 2511TIP3    H2 7477   2.040   1.290   2.949
 2512TIP3   OH2 7478   2.875   1.284   3.525
 2512TIP3    H1 7479   2.845   1.296   3.618
 2512TIP3    H2 7480   2.805   1.225   3.492
 2513TIP3   OH2 7481   1.938   1.307   2.813
 2513TIP3    H1 7482   1.863   1.259   2.773
 2513TIP3    H2 7483   1.986   1.339   2.733
 2514TIP3   OH2 7484   3.048   2.967   3.748
 2514TIP3    H1 7485   3.044   2.994   3.654
 2514TIP3    H2 7486   3.121   3.021   3.782
 2515TIP3   OH2 7487   2.017   2.086   4.160
 2515TIP3    H1 7488   2.089   2.109   4.222
 2515TIP3    H2 7489   1.940   2.093   4.220
 2516TIP3   OH2 7490   2.465   1.540   3.422
 2516TIP3    H1 7491   2.543   1.507   3.376
 2516TIP3    H2 7492   2.474   1.501   3.510
 2517TIP3   OH2 7493   1.989   1.024   3.306
 2517TIP3    H1 7494   1.948   0.950   3.355
 2517TIP3    H2 7495   2.026   0.978   3.229
 2518TIP3   OH2 7496   2.437   1.435   3.717
 2518TIP3    H1 7497   2.348   1.474   3.727
 2518TIP3    H2 7498   2.494   1.499   3.764
 2519TIP3   OH2 7499   2.180   1.826   2.815
 2519TIP3    H1 7500   2.106   1.763   2.803
 2519TIP3    H2 7501   2.159   1.866   2.903
 2520TIP3   OH2 7502   3.077   2.077   3.409
 2520TIP3    H1 7503   3.039   2.132   3.340
 2520TIP3    H2 7504   3.003   2.013   3.421
 2521TIP3   OH2 7505   2.639   1.133   2.682
 2521TIP3    H1 7506   2.541   1.121   2.684
 2521TIP3    H2 7507   2.649   1.229   2.697
 2522TIP3   OH2 7508   2.708   1.386   2.775
 2522TIP3    H1 7509   2.804   1.397   2.791
 2522TIP3    H2 7510   2.687   1.467   2.725
 2523TIP3   OH2 7511   1.876   1.852   3.482
 2523TIP3    H1 7512   1.917   1.820   3.400
 2523TIP3    H2 7513   1.917   1.796   3.550
 2524TIP3   OH2 7514   2.334   1.983   2.652
 2524TIP3    H1 7515   2.283   2.067   2.647
 2524TIP3    H2 7516   2.274   1.927   2.705
 2525TIP3   OH2 7517   1.754   1.776   4.101
 2525TIP3    H1 7518   1.781   1.762   4.194
 2525TIP3    H2 7519   1.686   1.708   4.089
 2526TIP3   OH2 7520   2.494   1.878   4.122
 2526TIP3    H1 7521   2.424   1.866   4.054
 2526TIP3    H2 7522   2.572   1.871   4.065
 2527TIP3   OH2 7523   3.145   1.477   2.610
 2527TIP3    H1 7524   3.083   1.433   2.547
 2527TIP3    H2 7525   3.142   1.567   2.569
 2528TIP3   OH2 7526   3.369   2.335   3.696
 2528TIP3    H1 7527   3.271   2.332   3.686
 2528TIP3    H2 7528   3.397   2.309   3.606
 2529TIP3   OH2 7529   2.878   2.288   2.526
 2529TIP3    H1 7530   2.815   2.235   2.578
 2529TIP3    H2 7531   2.870   2.250   2.437
 2530TIP3   OH2 7532   2.849   1.923   3.358
 2530TIP3    H1 7533   2.755   1.900   3.374
 2530TIP3    H2 7534   2.879   1.844   3.309
 2531TIP3   OH2 7535   1.548   1.455   2.837
 2531TIP3    H1 7536   1.587   1.544   2.850
 2531TIP3    H2 7537   1.463   1.466   2.884
 2532TIP3   OH2 7538   2.106   1.937   3.062
 2532TIP3    H1 7539   2.017   1.970   3.047
 2532TIP3    H2 7540   2.092   1.872   3.133
 2533TIP3   OH2 7541   2.233   2.487   3.557
 2533TIP3    H1 7542   2.284   2.560   3.514
 2533TIP3    H2 7543   2.298   2.461   3.626
 2534TIP3   OH2 7544   2.630   2.131   3.554
 2534TIP3    H1 7545   2.594   2.111   3.642
 2534TIP3    H2 7546   2.707   2.072   3.550
 2535TIP3   OH2 7547   2.610   2.024   2.419
 2535TIP3    H1 7548   2.647   2.001   2.507
 2535TIP3    H2 7549   2.518   1.994   2.427
 2536TIP3   OH2 7550   2.938   2.500   2.247
 2536TIP3    H1 7551   2.959   2.575   2.190
 2536TIP3    H2 7552   2.857   2.533   2.290
 2537TIP3   OH2 7553   1.965   1.272   4.105
 2537TIP3    H1 7554   1.868   1.277   4.120
 2537TIP3    H2 7555   1.994   1.221   4.182
 2538TIP3   OH2 7556   2.767   1.967   2.653
 2538TIP3    H1 7557   2.760   1.891   2.715
 2538TIP3    H2 7558   2.861   1.960   2.626
 2539TIP3   OH2 7559   1.905   2.015   2.741
 2539TIP3    H1 7560   1.991   1.985   2.713
 2539TIP3    H2 7561   1.907   2.110   2.717
 2540TIP3   OH2 7562   1.652   1.705   2.898
 2540TIP3    H1 7563   1.586   1.754   2.952
 2540TIP3    H2 7564   1.666   1.771   2.827
 2541TIP3   OH2 7565   2.804   1.330   3.786
 2541TIP3    H1 7566   2.878   1.389   3.811
 2541TIP3    H2 7567   2.802   1.264   3.858
 2542TIP3   OH2 7568   2.703   1.080   2.954
 2542TIP3    H1 7569   2.673   1.108   2.865
 2542TIP3    H2 7570   2.732   1.166   2.992
 2543TIP3   OH2 7571   2.182   2.208   2.651
 2543TIP3    H1 7572   2.093   2.235   2.681
 2543TIP3    H2 7573   2.202   2.281   2.590
 2544TIP3   OH2 7574   2.373   1.270   3.056
 2544TIP3    H1 7575   2.434   1.345   3.039
 2544TIP3    H2 7576   2.376   1.263   3.154
 2545TIP3   OH2 7577   2.622   1.587   3.852
 2545TIP3    H1 7578   2.654   1.646   3.923
 2545TIP3    H2 7579   2.687   1.515   3.853
 2546TIP3   OH2 7580   2.515   0.997   3.159
 2546TIP3    H1 7581   2.500   1.076   3.215
 2546TIP3    H2 7582   2.579   1.032   3.094
 2547TIP3   OH2 7583   1.926   2.291   2.709
 2547TIP3    H1 7584   1.902   2.343   2.628
 2547TIP3    H2 7585   1.894   2.353   2.776
 2548TIP3   OH2 7586   2.037   1.005   2.958
 2548TIP3    H1 7587   2.036   1.097   2.994
 2548TIP3    H2 7588   2.133   0.987   2.965
 2549TIP3   OH2 7589   3.262   1.498   3.842
 2549TIP3    H1 7590   3.167   1.482   3.828
 2549TIP3    H2 7591   3.302   1.441   3.774
 2550TIP3   OH2 7592   2.931   1.682   3.231
 2550TIP3    H1 7593   2.856   1.623   3.245
 2550TIP3    H2 7594   3.004   1.636   3.278
 2551TIP3   OH2 7595   1.644   1.911   2.702
 2551TIP3    H1 7596   1.719   1.971   2.720
 2551TIP3    H2 7597   1.687   1.855   2.634
 2552TIP3   OH2 7598   1.625   1.192   2.811
 2552TIP3    H1 7599   1.612   1.286   2.835
 2552TIP3    H2 7600   1.535   1.168   2.781
 2553TIP3   OH2 7601   2.904   2.609   3.156
 2553TIP3    H1 7602   2.857   2.676   3.102
 2553TIP3    H2 7603   2.994   2.648   3.155
 2554TIP3   OH2 7604   1.980   0.907   3.710
 2554TIP3    H1 7605   1.945   0.876   3.623
 2554TIP3    H2 7606   1.966   0.829   3.766
 2555TIP3   OH2 7607   1.512   2.124   3.090
 2555TIP3    H1 7608   1.442   2.159   3.146
 2555TIP3    H2 7609   1.488   2.165   3.004
 2556TIP3   OH2 7610   1.720   2.666   4.107
 2556TIP3    H1 7611   1.768   2.670   4.191
 2556TIP3    H2 7612   1.626   2.653   4.135
 2557TIP3   OH2 7613   2.154   2.625   4.209
 2557TIP3    H1 7614   2.249   2.630   4.227
 2557TIP3    H2 7615   2.154   2.564   4.135
 2558TIP3   OH2 7616   2.762   2.573   3.981
 2558TIP3    H1 7617   2.773   2.483   4.018
 2558TIP3    H2 7618   2.848   2.591   3.941
 2559TIP3   OH2 7619   2.560   2.253   2.234
 2559TIP3    H1 7620   2.600   2.207   2.309
 2559TIP3    H2 7621   2.630   2.253   2.167
 2560TIP3   OH2 7622   1.808   2.079   4.355
 2560TIP3    H1 7623   1.823   1.983   4.366
 2560TIP3    H2 7624   1.720   2.080   4.311
 2561TIP3   OH2 7625   1.784   1.727   2.564
 2561TIP3    H1 7626   1.849   1.703   2.632
 2561TIP3    H2 7627   1.845   1.736   2.487
 2562TIP3   OH2 7628   2.407   2.152   4.124
 2562TIP3    H1 7629   2.414   2.164   4.029
 2562TIP3    H2 7630   2.452   2.066   4.133
 2563TIP3   OH2 7631   2.317   1.920   2.362
 2563TIP3    H1 7632   2.281   1.944   2.449
 2563TIP3    H2 7633   2.290   1.827   2.355
 2564TIP3   OH2 7634   2.904   2.168   3.741
 2564TIP3    H1 7635   2.977   2.222   3.705
 2564TIP3    H2 7636   2.830   2.229   3.733
 2565TIP3   OH2 7637   1.931   1.798   4.342
 2565TIP3    H1 7638   2.016   1.759   4.319
 2565TIP3    H2 7639   1.952   1.837   4.429
 2566TIP3   OH2 7640   1.991   1.627   2.780
 2566TIP3    H1 7641   1.958   1.583   2.860
 2566TIP3    H2 7642   2.027   1.552   2.729
 2567TIP3   OH2 7643   2.255   1.691   3.987
 2567TIP3    H1 7644   2.181   1.751   4.009
 2567TIP3    H2 7645   2.301   1.750   3.922
 2568TIP3   OH2 7646   2.092   1.420   2.617
 2568TIP3    H1 7647   2.065   1.432   2.524
 2568TIP3    H2 7648   2.189   1.429   2.610
 2569TIP3   OH2 7649   2.768   2.081   4.149
 2569TIP3    H1 7650   2.849   2.071   4.099
 2569TIP3    H2 7651   2.780   2.019   4.224
 2570TIP3   OH2 7652   2.911   1.751   2.283
 2570TIP3    H1 7653   2.888   1.709   2.198
 2570TIP3    H2 7654   2.879   1.842   2.264
 2571TIP3   OH2 7655   2.385   1.489   4.131
 2571TIP3    H1 7656   2.381   1.411   4.073
 2571TIP3    H2 7657   2.344   1.558   4.075
 2572TIP3   OH2 7658   2.385   1.266   3.938
 2572TIP3    H1 7659   2.410   1.313   3.856
 2572TIP3    H2 7660   2.290   1.246   3.921
 2573TIP3   OH2 7661   2.998   1.763   4.184
 2573TIP3    H1 7662   3.064   1.715   4.238
 2573TIP3    H2 7663   3.053   1.832   4.143
 2574TIP3   OH2 7664   3.034   2.019   3.926
 2574TIP3    H1 7665   2.975   2.074   3.868
 2574TIP3    H2 7666   3.121   2.044   3.887
 2575TIP3   OH2 7667   2.220   1.611   4.345
 2575TIP3    H1 7668   2.175   1.530   4.373
 2575TIP3    H2 7669   2.283   1.577   4.278
 2576TIP3   OH2 7670   2.517   1.031   4.001
 2576TIP3    H1 7671   2.464   1.111   3.980
 2576TIP3    H2 7672   2.448   0.961   3.992
 2577TIP3   OH2 7673   2.637   1.544   4.224
 2577TIP3    H1 7674   2.625   1.547   4.320
 2577TIP3    H2 7675   2.546   1.521   4.194
 2578TIP3   OH2 7676   2.868   1.460   4.121
 2578TIP3    H1 7677   2.774   1.485   4.138
 2578TIP3    H2 7678   2.911   1.546   4.137
 2579TIP3   OH2 7679   3.086   1.339   4.282
 2579TIP3    H1 7680   3.175   1.307   4.298
 2579TIP3    H2 7681   3.090   1.428   4.325
 2580TIP3   OH2 7682   2.097   1.371   4.419
 2580TIP3    H1 7683   2.106   1.279   4.389
 2580TIP3    H2 7684   2.136   1.364   4.509
 2581TIP3   OH2 7685   2.620   1.045   4.259
 2581TIP3    H1 7686   2.686   0.974   4.249
 2581TIP3    H2 7687   2.572   1.038   4.175
 2582TIP3   OH2 7688   2.682   1.280   4.389
 2582TIP3    H1 7689   2.657   1.192   4.353
 2582TIP3    H2 7690   2.601   1.300   4.439
 2583TIP3   OH2 7691   1.899   2.482   2.517
 2583TIP3    H1 7692   1.995   2.477   2.502
 2583TIP3    H2 7693   1.871   2.533   2.439
 2584TIP3   OH2 7694   1.379   1.869   2.745
 2584TIP3    H1 7695   1.472   1.893   2.726
 2584TIP3    H2 7696   1.372   1.782   2.701
 2585TIP3   OH2 7697   1.291   2.480   3.152
 2585TIP3    H1 7698   1.225   2.419   3.113
 2585TIP3    H2 7699   1.339   2.420   3.212
 2586TIP3   OH2 7700   1.426   2.326   3.337
 2586TIP3    H1 7701   1.389   2.265   3.402
 2586TIP3    H2 7702   1.474   2.390   3.393
 2587TIP3   OH2 7703   3.160   2.714   3.141
 2587TIP3    H1 7704   3.171   2.741   3.234
 2587TIP3    H2 7705   3.193   2.792   3.095
 2588TIP3   OH2 7706   3.196   2.746   3.419
 2588TIP3    H1 7707   3.135   2.670   3.418
 2588TIP3    H2 7708   3.253   2.721   3.493
 2589TIP3   OH2 7709   3.233   2.424   3.994
 2589TIP3    H1 7710   3.160   2.435   4.058
 2589TIP3    H2 7711   3.274   2.513   3.996
 2590TIP3   OH2 7712   3.043   1.939   2.610
 2590TIP3    H1 7713   3.105   2.008   2.579
 2590TIP3    H2 7714   3.084   1.914   2.696
 2591TIP3   OH2 7715   3.157   1.831   2.835
 2591TIP3    H1 7716   3.086   1.779   2.878
 2591TIP3    H2 7717   3.235   1.798   2.883
 2592TIP3   OH2 7718   3.065   2.495   3.430
 2592TIP3    H1 7719   2.996   2.528   3.493
 2592TIP3    H2 7720   3.006   2.458   3.362
 2593TIP3   OH2 7721   3.110   1.714   2.466
 2593TIP3    H1 7722   3.041   1.715   2.396
 2593TIP3    H2 7723   3.082   1.792   2.517
 2594TIP3   OH2 7724   2.980   1.386   2.416
 2594TIP3    H1 7725   2.936   1.428   2.341
 2594TIP3    H2 7726   2.959   1.292   2.400
 2595TIP3   OH2 7727   2.983   1.662   2.961
 2595TIP3    H1 7728   2.998   1.566   2.954
 2595TIP3    H2 7729   2.972   1.675   3.058
 2596TIP3   OH2 7730   1.612   1.744   3.714
 2596TIP3    H1 7731   1.608   1.709   3.622
 2596TIP3    H2 7732   1.709   1.743   3.729
 2597TIP3   OH2 7733   3.276   2.090   3.820
 2597TIP3    H1 7734   3.348   2.024   3.809
 2597TIP3    H2 7735   3.305   2.162   3.762
 2598TIP3   OH2 7736   3.458   1.891   3.831
 2598TIP3    H1 7737   3.387   1.841   3.875
 2598TIP3    H2 7738   3.534   1.830   3.846
 2599TIP3   OH2 7739   2.928   1.117   2.384
 2599TIP3    H1 7740   3.001   1.094   2.445
 2599TIP3    H2 7741   2.852   1.066   2.417
 2600TIP3   OH2 7742   2.985   1.384   2.855
 2600TIP3    H1 7743   3.025   1.295   2.870
 2600TIP3    H2 7744   3.043   1.417   2.785
 2601TIP3   OH2 7745   3.152   1.559   3.346
 2601TIP3    H1 7746   3.236   1.585   3.303
 2601TIP3    H2 7747   3.168   1.591   3.436
 2602TIP3   OH2 7748   3.211   1.694   3.587
 2602TIP3    H1 7749   3.135   1.728   3.638
 2602TIP3    H2 7750   3.249   1.778   3.553
 2603TIP3   OH2 7751   1.828   1.416   4.377
 2603TIP3    H1 7752   1.926   1.419   4.386
 2603TIP3    H2 7753   1.809   1.331   4.421
 2604TIP3   OH2 7754   3.089   1.132   2.899
 2604TIP3    H1 7755   3.142   1.124   2.981
 2604TIP3    H2 7756   3.046   1.046   2.896
 2605TIP3   OH2 7757   1.794   1.115   3.716
 2605TIP3    H1 7758   1.857   1.041   3.725
 2605TIP3    H2 7759   1.856   1.190   3.708
 2606TIP3   OH2 7760   1.594   1.387   3.789
 2606TIP3    H1 7761   1.643   1.384   3.704
 2606TIP3    H2 7762   1.624   1.471   3.826
 2607TIP3   OH2 7763   3.538   1.443   3.935
 2607TIP3    H1 7764   3.454   1.459   3.981
 2607TIP3    H2 7765   3.531   1.348   3.915
 2608TIP3   OH2 7766   3.168   1.071   2.518
 2608TIP3    H1 7767   3.224   0.996   2.494
 2608TIP3    H2 7768   3.234   1.143   2.528
 2609TIP3   OH2 7769   1.581   0.905   3.296
 2609TIP3    H1 7770   1.489   0.906   3.326
 2609TIP3    H2 7771   1.577   0.958   3.214
 2610TIP3   OH2 7772   2.732   2.587   2.808
 2610TIP3    H1 7773   2.766   2.580   2.717
 2610TIP3    H2 7774   2.789   2.657   2.844
 2611TIP3   OH2 7775   1.799   0.962   4.097
 2611TIP3    H1 7776   1.752   0.970   4.183
 2611TIP3    H2 7777   1.735   1.007   4.038
 2612TIP3   OH2 7778   1.842   2.377   4.172
 2612TIP3    H1 7779   1.743   2.382   4.160
 2612TIP3    H2 7780   1.845   2.376   4.268
 2613TIP3   OH2 7781   2.489   2.704   3.859
 2613TIP3    H1 7782   2.511   2.701   3.955
 2613TIP3    H2 7783   2.577   2.694   3.821
 2614TIP3   OH2 7784   3.444   1.193   3.810
 2614TIP3    H1 7785   3.349   1.179   3.804
 2614TIP3    H2 7786   3.477   1.101   3.815
 2615TIP3   OH2 7787   1.683   2.672   3.740
 2615TIP3    H1 7788   1.593   2.711   3.734
 2615TIP3    H2 7789   1.699   2.686   3.835
 2616TIP3   OH2 7790   1.925   2.660   3.606
 2616TIP3    H1 7791   1.839   2.674   3.652
 2616TIP3    H2 7792   1.908   2.702   3.519
 2617TIP3   OH2 7793   2.340   2.691   3.404
 2617TIP3    H1 7794   2.289   2.740   3.338
 2617TIP3    H2 7795   2.385   2.764   3.452
 2618TIP3   OH2 7796   2.894   2.860   3.344
 2618TIP3    H1 7797   2.828   2.920   3.307
 2618TIP3    H2 7798   2.849   2.774   3.347
 2619TIP3   OH2 7799   1.603   2.491   3.497
 2619TIP3    H1 7800   1.640   2.538   3.575
 2619TIP3    H2 7801   1.682   2.447   3.460
 2620TIP3   OH2 7802   1.808   2.356   3.364
 2620TIP3    H1 7803   1.835   2.267   3.342
 2620TIP3    H2 7804   1.893   2.405   3.355
 2621TIP3   OH2 7805   2.075   2.435   3.349
 2621TIP3    H1 7806   2.105   2.344   3.368
 2621TIP3    H2 7807   2.117   2.480   3.426
 2622TIP3   OH2 7808   2.644   1.107   3.452
 2622TIP3    H1 7809   2.597   1.036   3.499
 2622TIP3    H2 7810   2.716   1.059   3.406
 2623TIP3   OH2 7811   3.157   0.968   3.333
 2623TIP3    H1 7812   3.200   1.031   3.270
 2623TIP3    H2 7813   3.069   1.008   3.344
 2624TIP3   OH2 7814   3.261   1.091   3.107
 2624TIP3    H1 7815   3.335   1.036   3.072
 2624TIP3    H2 7816   3.302   1.180   3.095
 2625TIP3   OH2 7817   1.886   0.821   3.467
 2625TIP3    H1 7818   1.796   0.785   3.449
 2625TIP3    H2 7819   1.939   0.739   3.457
 2626TIP3   OH2 7820   1.781   0.739   3.199
 2626TIP3    H1 7821   1.747   0.740   3.108
 2626TIP3    H2 7822   1.719   0.801   3.243
 2627TIP3   OH2 7823   2.339   0.843   3.338
 2627TIP3    H1 7824   2.395   0.899   3.281
 2627TIP3    H2 7825   2.346   0.887   3.423
 2628TIP3   OH2 7826   2.872   0.996   3.329
 2628TIP3    H1 7827   2.864   0.959   3.240
 2628TIP3    H2 7828   2.862   0.915   3.385
 2629TIP3   OH2 7829   2.909   0.895   2.878
 2629TIP3    H1 7830   2.842   0.963   2.893
 2629TIP3    H2 7831   2.897   0.840   2.959
 2630TIP3   OH2 7832   1.392   2.260   2.890
 2630TIP3    H1 7833   1.306   2.230   2.856
 2630TIP3    H2 7834   1.387   2.354   2.865
 2631TIP3   OH2 7835   1.791   0.869   2.907
 2631TIP3    H1 7836   1.855   0.797   2.901
 2631TIP3    H2 7837   1.847   0.939   2.944
 2632TIP3   OH2 7838   2.311   1.020   2.969
 2632TIP3    H1 7839   2.368   0.975   3.035
 2632TIP3    H2 7840   2.329   1.113   2.994
 2633TIP3   OH2 7841   2.171   2.430   2.466
 2633TIP3    H1 7842   2.246   2.479   2.430
 2633TIP3    H2 7843   2.141   2.380   2.389
 2634TIP3   OH2 7844   2.891   2.561   2.569
 2634TIP3    H1 7845   2.889   2.465   2.551
 2634TIP3    H2 7846   2.812   2.591   2.518
 2635TIP3   OH2 7847   2.097   1.090   4.345
 2635TIP3    H1 7848   2.058   1.027   4.408
 2635TIP3    H2 7849   2.190   1.090   4.375
 2636TIP3   OH2 7850   2.346   1.085   4.465
 2636TIP3    H1 7851   2.435   1.058   4.437
 2636TIP3    H2 7852   2.329   1.022   4.538
 2637TIP3   OH2 7853   1.474   2.275   2.523
 2637TIP3    H1 7854   1.479   2.301   2.616
 2637TIP3    H2 7855   1.564   2.236   2.508
 2638TIP3   OH2 7856   3.105   2.699   3.744
 2638TIP3    H1 7857   3.023   2.657   3.709
 2638TIP3    H2 7858   3.077   2.793   3.748
 2639TIP3   OH2 7859   4.379   2.082   2.511
 2639TIP3    H1 7860   4.347   2.173   2.492
 2639TIP3    H2 7861   4.301   2.030   2.484
 2640TIP3   OH2 7862   4.376   2.079   2.901
 2640TIP3    H1 7863   4.411   2.056   2.989
 2640TIP3    H2 7864   4.332   1.996   2.875
 2641TIP3   OH2 7865   3.659   1.993   3.264
 2641TIP3    H1 7866   3.673   1.911   3.314
 2641TIP3    H2 7867   3.751   2.018   3.247
 2642TIP3   OH2 7868   4.620   2.386   2.580
 2642TIP3    H1 7869   4.604   2.316   2.644
 2642TIP3    H2 7870   4.651   2.459   2.637
 2643TIP3   OH2 7871   3.654   2.360   2.984
 2643TIP3    H1 7872   3.690   2.271   2.984
 2643TIP3    H2 7873   3.741   2.410   2.980
 2644TIP3   OH2 7874   3.321   1.614   2.779
 2644TIP3    H1 7875   3.262   1.681   2.743
 2644TIP3    H2 7876   3.289   1.533   2.737
 2645TIP3   OH2 7877   4.273   2.845   2.598
 2645TIP3    H1 7878   4.315   2.773   2.546
 2645TIP3    H2 7879   4.263   2.805   2.685
 2646TIP3   OH2 7880   4.173   2.309   2.945
 2646TIP3    H1 7881   4.211   2.230   2.904
 2646TIP3    H2 7882   4.256   2.354   2.970
 2647TIP3   OH2 7883   5.189   1.625   2.944
 2647TIP3    H1 7884   5.219   1.708   2.987
 2647TIP3    H2 7885   5.214   1.642   2.851
 2648TIP3   OH2 7886   4.589   1.807   2.975
 2648TIP3    H1 7887   4.630   1.721   2.997
 2648TIP3    H2 7888   4.556   1.789   2.885
 2649TIP3   OH2 7889   4.621   1.556   2.562
 2649TIP3    H1 7890   4.691   1.542   2.630
 2649TIP3    H2 7891   4.675   1.593   2.490
 2650TIP3   OH2 7892   3.994   1.870   2.850
 2650TIP3    H1 7893   4.087   1.842   2.861
 2650TIP3    H2 7894   3.952   1.787   2.819
 2651TIP3   OH2 7895   5.262   1.833   3.115
 2651TIP3    H1 7896   5.177   1.879   3.096
 2651TIP3    H2 7897   5.282   1.867   3.203
 2652TIP3   OH2 7898   3.914   1.459   3.363
 2652TIP3    H1 7899   3.849   1.492   3.299
 2652TIP3    H2 7900   3.865   1.471   3.446
 2653TIP3   OH2 7901   4.271   2.306   2.379
 2653TIP3    H1 7902   4.221   2.283   2.299
 2653TIP3    H2 7903   4.223   2.385   2.409
 2654TIP3   OH2 7904   4.031   2.224   3.170
 2654TIP3    H1 7905   3.970   2.291   3.208
 2654TIP3    H2 7906   4.074   2.274   3.097
 2655TIP3   OH2 7907   4.826   1.563   2.741
 2655TIP3    H1 7908   4.806   1.522   2.826
 2655TIP3    H2 7909   4.878   1.641   2.768
 2656TIP3   OH2 7910   3.857   2.420   3.264
 2656TIP3    H1 7911   3.834   2.511   3.235
 2656TIP3    H2 7912   3.780   2.403   3.323
 2657TIP3   OH2 7913   3.245   2.111   2.505
 2657TIP3    H1 7914   3.203   2.136   2.420
 2657TIP3    H2 7915   3.273   2.199   2.539
 2658TIP3   OH2 7916   4.687   2.628   2.744
 2658TIP3    H1 7917   4.598   2.617   2.785
 2658TIP3    H2 7918   4.678   2.715   2.701
 2659TIP3   OH2 7919   4.982   1.522   3.109
 2659TIP3    H1 7920   4.895   1.552   3.078
 2659TIP3    H2 7921   5.043   1.556   3.039
 2660TIP3   OH2 7922   4.275   1.167   3.094
 2660TIP3    H1 7923   4.258   1.073   3.111
 2660TIP3    H2 7924   4.199   1.208   3.141
 2661TIP3   OH2 7925   4.388   2.671   2.415
 2661TIP3    H1 7926   4.439   2.588   2.399
 2661TIP3    H2 7927   4.451   2.736   2.377
 2662TIP3   OH2 7928   4.535   2.454   2.327
 2662TIP3    H1 7929   4.478   2.379   2.306
 2662TIP3    H2 7930   4.575   2.424   2.412
 2663TIP3   OH2 7931   4.914   2.537   3.089
 2663TIP3    H1 7932   4.902   2.459   3.031
 2663TIP3    H2 7933   4.898   2.611   3.027
 2664TIP3   OH2 7934   4.207   1.931   2.348
 2664TIP3    H1 7935   4.125   1.982   2.329
 2664TIP3    H2 7936   4.251   1.930   2.262
 2665TIP3   OH2 7937   4.164   1.720   2.058
 2665TIP3    H1 7938   4.230   1.769   2.110
 2665TIP3    H2 7939   4.223   1.656   2.012
 2666TIP3   OH2 7940   5.109   2.175   2.935
 2666TIP3    H1 7941   5.026   2.227   2.939
 2666TIP3    H2 7942   5.140   2.199   2.845
 2667TIP3   OH2 7943   4.556   2.015   2.316
 2667TIP3    H1 7944   4.501   2.039   2.394
 2667TIP3    H2 7945   4.640   1.990   2.361
 2668TIP3   OH2 7946   4.788   2.052   3.235
 2668TIP3    H1 7947   4.786   2.135   3.286
 2668TIP3    H2 7948   4.702   2.056   3.189
 2669TIP3   OH2 7949   3.779   2.015   2.742
 2669TIP3    H1 7950   3.743   1.958   2.673
 2669TIP3    H2 7951   3.855   1.962   2.776
 2670TIP3   OH2 7952   3.914   2.423   2.883
 2670TIP3    H1 7953   3.899   2.388   2.794
 2670TIP3    H2 7954   4.003   2.388   2.904
 2671TIP3   OH2 7955   3.892   1.997   3.082
 2671TIP3    H1 7956   3.935   1.956   3.002
 2671TIP3    H2 7957   3.955   2.066   3.107
 2672TIP3   OH2 7958   4.447   2.620   2.867
 2672TIP3    H1 7959   4.437   2.699   2.922
 2672TIP3    H2 7960   4.432   2.547   2.930
 2673TIP3   OH2 7961   4.062   2.538   3.413
 2673TIP3    H1 7962   4.001   2.599   3.460
 2673TIP3    H2 7963   3.997   2.484   3.363
 2674TIP3   OH2 7964   4.394   1.872   2.144
 2674TIP3    H1 7965   4.453   1.933   2.195
 2674TIP3    H2 7966   4.421   1.894   2.052
 2675TIP3   OH2 7967   3.820   2.097   3.519
 2675TIP3    H1 7968   3.821   2.184   3.562
 2675TIP3    H2 7969   3.725   2.074   3.527
 2676TIP3   OH2 7970   4.139   2.548   2.420
 2676TIP3    H1 7971   4.220   2.602   2.430
 2676TIP3    H2 7972   4.078   2.610   2.379
 2677TIP3   OH2 7973   3.855   2.701   3.503
 2677TIP3    H1 7974   3.816   2.706   3.413
 2677TIP3    H2 7975   3.776   2.681   3.558
 2678TIP3   OH2 7976   4.909   1.111   2.193
 2678TIP3    H1 7977   4.828   1.133   2.244
 2678TIP3    H2 7978   4.924   1.195   2.144
 2679TIP3   OH2 7979   3.660   1.862   2.532
 2679TIP3    H1 7980   3.581   1.892   2.482
 2679TIP3    H2 7981   3.631   1.778   2.569
 2680TIP3   OH2 7982   4.701   2.486   1.738
 2680TIP3    H1 7983   4.697   2.584   1.734
 2680TIP3    H2 7984   4.788   2.470   1.703
 2681TIP3   OH2 7985   3.441   2.236   3.452
 2681TIP3    H1 7986   3.366   2.197   3.406
 2681TIP3    H2 7987   3.486   2.157   3.488
 2682TIP3   OH2 7988   3.345   2.392   3.080
 2682TIP3    H1 7989   3.407   2.466   3.093
 2682TIP3    H2 7990   3.266   2.432   3.121
 2683TIP3   OH2 7991   5.152   2.884   3.136
 2683TIP3    H1 7992   5.152   2.788   3.152
 2683TIP3    H2 7993   5.069   2.910   3.183
 2684TIP3   OH2 7994   4.255   2.670   3.270
 2684TIP3    H1 7995   4.253   2.762   3.304
 2684TIP3    H2 7996   4.185   2.628   3.325
 2685TIP3   OH2 7997   4.024   2.798   2.222
 2685TIP3    H1 7998   3.973   2.779   2.142
 2685TIP3    H2 7999   3.987   2.883   2.251
 2686TIP3   OH2 8000   3.459   2.646   2.608
 2686TIP3    H1 8001   3.504   2.637   2.695
 2686TIP3    H2 8002   3.395   2.574   2.613
 2687TIP3   OH2 8003   4.221   2.701   1.861
 2687TIP3    H1 8004   4.279   2.630   1.827
 2687TIP3    H2 8005   4.254   2.710   1.953
 2688TIP3   OH2 8006   4.273   2.746   2.131
 2688TIP3    H1 8007   4.184   2.758   2.170
 2688TIP3    H2 8008   4.321   2.707   2.206
 2689TIP3   OH2 8009   5.041   2.012   3.413
 2689TIP3    H1 8010   4.958   2.022   3.364
 2689TIP3    H2 8011   5.057   1.916   3.403
 2690TIP3   OH2 8012   3.640   2.424   3.430
 2690TIP3    H1 8013   3.689   2.414   3.515
 2690TIP3    H2 8014   3.568   2.360   3.442
 2691TIP3   OH2 8015   4.039   1.248   3.222
 2691TIP3    H1 8016   3.949   1.217   3.196
 2691TIP3    H2 8017   4.012   1.331   3.267
 2692TIP3   OH2 8018   4.573   1.358   3.416
 2692TIP3    H1 8019   4.641   1.331   3.481
 2692TIP3    H2 8020   4.489   1.340   3.464
 2693TIP3   OH2 8021   4.809   1.789   3.335
 2693TIP3    H1 8022   4.758   1.786   3.419
 2693TIP3    H2 8023   4.785   1.876   3.298
 2694TIP3   OH2 8024   4.472   1.916   1.888
 2694TIP3    H1 8025   4.438   1.892   1.800
 2694TIP3    H2 8026   4.554   1.963   1.864
 2695TIP3   OH2 8027   4.183   1.292   2.193
 2695TIP3    H1 8028   4.150   1.289   2.285
 2695TIP3    H2 8029   4.142   1.210   2.159
 2696TIP3   OH2 8030   3.986   1.777   3.248
 2696TIP3    H1 8031   3.914   1.767   3.312
 2696TIP3    H2 8032   3.941   1.828   3.178
 2697TIP3   OH2 8033   3.860   1.648   2.763
 2697TIP3    H1 8034   3.792   1.618   2.826
 2697TIP3    H2 8035   3.847   1.588   2.687
 2698TIP3   OH2 8036   4.346   1.734   2.484
 2698TIP3    H1 8037   4.293   1.804   2.440
 2698TIP3    H2 8038   4.399   1.699   2.409
 2699TIP3   OH2 8039   4.518   2.007   3.566
 2699TIP3    H1 8040   4.496   1.935   3.629
 2699TIP3    H2 8041   4.612   2.022   3.589
 2700TIP3   OH2 8042   4.501   1.758   2.719
 2700TIP3    H1 8043   4.438   1.785   2.650
 2700TIP3    H2 8044   4.536   1.677   2.675
 2701TIP3   OH2 8045   3.781   1.784   3.443
 2701TIP3    H1 8046   3.821   1.848   3.504
 2701TIP3    H2 8047   3.775   1.704   3.497
 2702TIP3   OH2 8048   3.838   1.267   2.155
 2702TIP3    H1 8049   3.831   1.265   2.253
 2702TIP3    H2 8050   3.762   1.323   2.133
 2703TIP3   OH2 8051   3.398   1.310   3.023
 2703TIP3    H1 8052   3.449   1.373   3.077
 2703TIP3    H2 8053   3.444   1.319   2.938
 2704TIP3   OH2 8054   3.347   1.290   2.547
 2704TIP3    H1 8055   3.399   1.326   2.472
 2704TIP3    H2 8056   3.289   1.365   2.565
 2705TIP3   OH2 8057   4.511   2.005   3.139
 2705TIP3    H1 8058   4.545   1.933   3.081
 2705TIP3    H2 8059   4.481   1.952   3.216
 2706TIP3   OH2 8060   4.185   1.462   2.806
 2706TIP3    H1 8061   4.099   1.484   2.844
 2706TIP3    H2 8062   4.244   1.466   2.883
 2707TIP3   OH2 8063   3.880   1.511   2.512
 2707TIP3    H1 8064   3.972   1.538   2.493
 2707TIP3    H2 8065   3.832   1.536   2.430
 2708TIP3   OH2 8066   4.671   1.543   3.014
 2708TIP3    H1 8067   4.643   1.557   3.107
 2708TIP3    H2 8068   4.601   1.484   2.983
 2709TIP3   OH2 8069   3.727   1.558   2.288
 2709TIP3    H1 8070   3.655   1.513   2.240
 2709TIP3    H2 8071   3.779   1.593   2.213
 2710TIP3   OH2 8072   4.846   3.233   3.238
 2710TIP3    H1 8073   4.845   3.258   3.144
 2710TIP3    H2 8074   4.927   3.278   3.270
 2711TIP3   OH2 8075   3.801   2.346   3.656
 2711TIP3    H1 8076   3.881   2.374   3.705
 2711TIP3    H2 8077   3.736   2.344   3.728
 2712TIP3   OH2 8078   4.262   1.797   2.914
 2712TIP3    H1 8079   4.338   1.756   2.870
 2712TIP3    H2 8080   4.265   1.756   3.003
 2713TIP3   OH2 8081   3.792   1.266   2.753
 2713TIP3    H1 8082   3.760   1.218   2.831
 2713TIP3    H2 8083   3.874   1.222   2.731
 2714TIP3   OH2 8084   4.243   1.699   3.196
 2714TIP3    H1 8085   4.153   1.732   3.215
 2714TIP3    H2 8086   4.299   1.758   3.249
 2715TIP3   OH2 8087   3.977   2.083   2.296
 2715TIP3    H1 8088   3.905   2.017   2.284
 2715TIP3    H2 8089   3.956   2.117   2.387
 2716TIP3   OH2 8090   4.875   2.321   2.923
 2716TIP3    H1 8091   4.899   2.371   2.842
 2716TIP3    H2 8092   4.791   2.278   2.897
 2717TIP3   OH2 8093   4.432   1.396   2.156
 2717TIP3    H1 8094   4.337   1.376   2.170
 2717TIP3    H2 8095   4.441   1.489   2.187
 2718TIP3   OH2 8096   4.378   2.406   3.292
 2718TIP3    H1 8097   4.403   2.381   3.382
 2718TIP3    H2 8098   4.336   2.492   3.305
 2719TIP3   OH2 8099   4.502   1.643   2.264
 2719TIP3    H1 8100   4.598   1.649   2.282
 2719TIP3    H2 8101   4.484   1.725   2.214
 2720TIP3   OH2 8102   3.635   2.086   2.974
 2720TIP3    H1 8103   3.676   2.052   2.887
 2720TIP3    H2 8104   3.691   2.031   3.034
 2721TIP3   OH2 8105   4.120   2.233   2.119
 2721TIP3    H1 8106   4.072   2.319   2.123
 2721TIP3    H2 8107   4.066   2.178   2.179
 2722TIP3   OH2 8108   3.553   2.032   3.592
 2722TIP3    H1 8109   3.580   2.019   3.685
 2722TIP3    H2 8110   3.486   1.963   3.581
 2723TIP3   OH2 8111   4.276   2.143   3.605
 2723TIP3    H1 8112   4.213   2.083   3.562
 2723TIP3    H2 8113   4.362   2.105   3.574
 2724TIP3   OH2 8114   4.534   2.668   3.186
 2724TIP3    H1 8115   4.438   2.662   3.203
 2724TIP3    H2 8116   4.564   2.715   3.266
 2725TIP3   OH2 8117   4.939   1.734   2.100
 2725TIP3    H1 8118   4.879   1.690   2.035
 2725TIP3    H2 8119   4.938   1.824   2.060
 2726TIP3   OH2 8120   5.165   2.595   3.178
 2726TIP3    H1 8121   5.067   2.588   3.170
 2726TIP3    H2 8122   5.191   2.564   3.088
 2727TIP3   OH2 8123   4.653   2.552   2.013
 2727TIP3    H1 8124   4.616   2.492   2.080
 2727TIP3    H2 8125   4.651   2.498   1.932
 2728TIP3   OH2 8126   4.642   2.184   2.838
 2728TIP3    H1 8127   4.548   2.159   2.854
 2728TIP3    H2 8128   4.675   2.103   2.796
 2729TIP3   OH2 8129   3.769   2.413   2.599
 2729TIP3    H1 8130   3.770   2.493   2.545
 2729TIP3    H2 8131   3.675   2.394   2.604
 2730TIP3   OH2 8132   3.334   1.713   2.303
 2730TIP3    H1 8133   3.379   1.797   2.324
 2730TIP3    H2 8134   3.258   1.717   2.365
 2731TIP3   OH2 8135   3.904   2.175   2.540
 2731TIP3    H1 8136   3.869   2.264   2.561
 2731TIP3    H2 8137   3.871   2.123   2.615
 2732TIP3   OH2 8138   4.042   2.754   3.064
 2732TIP3    H1 8139   4.087   2.825   3.015
 2732TIP3    H2 8140   4.116   2.717   3.115
 2733TIP3   OH2 8141   3.689   2.649   2.449
 2733TIP3    H1 8142   3.603   2.657   2.495
 2733TIP3    H2 8143   3.720   2.742   2.451
 2734TIP3   OH2 8144   4.426   2.388   3.025
 2734TIP3    H1 8145   4.414   2.388   3.123
 2734TIP3    H2 8146   4.505   2.334   3.016
 2735TIP3   OH2 8147   4.402   2.286   1.908
 2735TIP3    H1 8148   4.456   2.258   1.986
 2735TIP3    H2 8149   4.314   2.255   1.935
 2736TIP3   OH2 8150   4.676   2.919   3.076
 2736TIP3    H1 8151   4.597   2.860   3.073
 2736TIP3    H2 8152   4.656   2.982   3.003
 2737TIP3   OH2 8153   4.739   2.758   1.727
 2737TIP3    H1 8154   4.775   2.832   1.675
 2737TIP3    H2 8155   4.659   2.803   1.763
 2738TIP3   OH2 8156   3.765   1.531   3.592
 2738TIP3    H1 8157   3.668   1.529   3.606
 2738TIP3    H2 8158   3.796   1.475   3.666
 2739TIP3   OH2 8159   4.566   2.210   2.116
 2739TIP3    H1 8160   4.553   2.149   2.192
 2739TIP3    H2 8161   4.663   2.209   2.110
 2740TIP3   OH2 8162   3.492   2.606   3.220
 2740TIP3    H1 8163   3.547   2.544   3.271
 2740TIP3    H2 8164   3.478   2.676   3.286
 2741TIP3   OH2 8165   3.769   2.261   1.908
 2741TIP3    H1 8166   3.779   2.167   1.882
 2741TIP3    H2 8167   3.748   2.252   2.003
 2742TIP3   OH2 8168   3.713   2.267   2.178
 2742TIP3    H1 8169   3.783   2.238   2.238
 2742TIP3    H2 8170   3.716   2.365   2.188
 2743TIP3   OH2 8171   3.441   1.957   2.384
 2743TIP3    H1 8172   3.376   2.004   2.441
 2743TIP3    H2 8173   3.456   2.026   2.316
 2744TIP3   OH2 8174   4.604   1.592   3.274
 2744TIP3    H1 8175   4.681   1.634   3.317
 2744TIP3    H2 8176   4.588   1.513   3.330
 2745TIP3   OH2 8177   4.485   1.342   2.444
 2745TIP3    H1 8178   4.468   1.367   2.351
 2745TIP3    H2 8179   4.522   1.425   2.481
 2746TIP3   OH2 8180   3.981   2.465   2.128
 2746TIP3    H1 8181   3.893   2.486   2.165
 2746TIP3    H2 8182   3.993   2.541   2.069
 2747TIP3   OH2 8183   4.169   1.527   2.539
 2747TIP3    H1 8184   4.231   1.602   2.526
 2747TIP3    H2 8185   4.172   1.517   2.636
 2748TIP3   OH2 8186   4.441   1.846   3.348
 2748TIP3    H1 8187   4.460   1.899   3.427
 2748TIP3    H2 8188   4.491   1.764   3.365
 2749TIP3   OH2 8189   4.309   1.249   2.645
 2749TIP3    H1 8190   4.296   1.327   2.701
 2749TIP3    H2 8191   4.372   1.284   2.578
 2750TIP3   OH2 8192   3.727   2.539   2.198
 2750TIP3    H1 8193   3.695   2.608   2.136
 2750TIP3    H2 8194   3.708   2.581   2.285
 2751TIP3   OH2 8195   3.824   1.248   2.426
 2751TIP3    H1 8196   3.813   1.330   2.480
 2751TIP3    H2 8197   3.920   1.234   2.440
 2752TIP3   OH2 8198   5.076   1.745   3.334
 2752TIP3    H1 8199   4.977   1.743   3.340
 2752TIP3    H2 8200   5.088   1.705   3.247
 2753TIP3   OH2 8201   4.728   1.940   2.718
 2753TIP3    H1 8202   4.651   1.881   2.732
 2753TIP3    H2 8203   4.799   1.893   2.767
 2754TIP3   OH2 8204   3.442   2.164   2.188
 2754TIP3    H1 8205   3.509   2.234   2.196
 2754TIP3    H2 8206   3.486   2.108   2.121
 2755TIP3   OH2 8207   3.383   1.442   2.318
 2755TIP3    H1 8208   3.388   1.540   2.318
 2755TIP3    H2 8209   3.295   1.426   2.282
 2756TIP3   OH2 8210   4.696   2.899   2.667
 2756TIP3    H1 8211   4.654   2.947   2.592
 2756TIP3    H2 8212   4.791   2.918   2.647
 2757TIP3   OH2 8213   3.777   1.167   3.197
 2757TIP3    H1 8214   3.743   1.139   3.109
 2757TIP3    H2 8215   3.760   1.089   3.252
 2758TIP3   OH2 8216   3.303   2.377   2.575
 2758TIP3    H1 8217   3.237   2.411   2.636
 2758TIP3    H2 8218   3.275   2.420   2.491
 2759TIP3   OH2 8219   3.458   2.914   3.650
 2759TIP3    H1 8220   3.548   2.922   3.689
 2759TIP3    H2 8221   3.441   2.819   3.658
 2760TIP3   OH2 8222   3.948   2.888   3.689
 2760TIP3    H1 8223   4.042   2.870   3.698
 2760TIP3    H2 8224   3.922   2.824   3.620
 2761TIP3   OH2 8225   3.930   2.463   1.817
 2761TIP3    H1 8226   3.873   2.393   1.857
 2761TIP3    H2 8227   4.006   2.409   1.788
 2762TIP3   OH2 8228   4.592   2.794   3.423
 2762TIP3    H1 8229   4.582   2.725   3.493
 2762TIP3    H2 8230   4.667   2.846   3.456
 2763TIP3   OH2 8231   4.366   2.503   1.734
 2763TIP3    H1 8232   4.401   2.433   1.793
 2763TIP3    H2 8233   4.424   2.496   1.656
 2764TIP3   OH2 8234   3.601   2.332   3.849
 2764TIP3    H1 8235   3.615   2.236   3.857
 2764TIP3    H2 8236   3.513   2.335   3.806
 2765TIP3   OH2 8237   3.579   1.979   2.043
 2765TIP3    H1 8238   3.634   1.948   2.117
 2765TIP3    H2 8239   3.646   1.985   1.972
 2766TIP3   OH2 8240   4.208   2.418   3.621
 2766TIP3    H1 8241   4.165   2.436   3.535
 2766TIP3    H2 8242   4.237   2.325   3.612
 2767TIP3   OH2 8243   4.095   2.182   1.849
 2767TIP3    H1 8244   4.092   2.193   1.946
 2767TIP3    H2 8245   4.092   2.084   1.843
 2768TIP3   OH2 8246   4.698   2.428   3.229
 2768TIP3    H1 8247   4.774   2.473   3.185
 2768TIP3    H2 8248   4.628   2.493   3.213
 2769TIP3   OH2 8249   3.718   2.066   3.831
 2769TIP3    H1 8250   3.794   2.012   3.806
 2769TIP3    H2 8251   3.746   2.100   3.918
 2770TIP3   OH2 8252   3.783   1.889   2.262
 2770TIP3    H1 8253   3.753   1.855   2.349
 2770TIP3    H2 8254   3.818   1.808   2.219
 2771TIP3   OH2 8255   4.056   1.955   3.501
 2771TIP3    H1 8256   3.976   2.011   3.497
 2771TIP3    H2 8257   4.101   1.979   3.417
 2772TIP3   OH2 8258   3.886   1.680   2.101
 2772TIP3    H1 8259   3.861   1.689   2.007
 2772TIP3    H2 8260   3.984   1.684   2.095
 2773TIP3   OH2 8261   4.571   2.353   3.625
 2773TIP3    H1 8262   4.650   2.322   3.578
 2773TIP3    H2 8263   4.563   2.288   3.697
 2774TIP3   OH2 8264   4.710   2.012   1.766
 2774TIP3    H1 8265   4.690   1.967   1.682
 2774TIP3    H2 8266   4.673   2.100   1.745
 2775TIP3   OH2 8267   4.181   1.740   3.614
 2775TIP3    H1 8268   4.175   1.661   3.557
 2775TIP3    H2 8269   4.134   1.808   3.560
 2776TIP3   OH2 8270   4.176   1.524   3.421
 2776TIP3    H1 8271   4.206   1.568   3.339
 2776TIP3    H2 8272   4.082   1.507   3.401
 2777TIP3   OH2 8273   4.206   2.060   3.301
 2777TIP3    H1 8274   4.290   2.070   3.254
 2777TIP3    H2 8275   4.148   2.124   3.255
 2778TIP3   OH2 8276   4.786   2.026   3.677
 2778TIP3    H1 8277   4.835   1.943   3.690
 2778TIP3    H2 8278   4.854   2.084   3.642
 2779TIP3   OH2 8279   4.829   2.280   3.414
 2779TIP3    H1 8280   4.771   2.335   3.356
 2779TIP3    H2 8281   4.916   2.302   3.375
 2780TIP3   OH2 8282   4.057   1.846   3.851
 2780TIP3    H1 8283   3.989   1.776   3.865
 2780TIP3    H2 8284   4.088   1.824   3.761
 2781TIP3   OH2 8285   4.310   1.288   3.494
 2781TIP3    H1 8286   4.260   1.369   3.470
 2781TIP3    H2 8287   4.241   1.219   3.483
 2782TIP3   OH2 8288   4.438   1.790   3.709
 2782TIP3    H1 8289   4.421   1.776   3.804
 2782TIP3    H2 8290   4.349   1.767   3.674
 2783TIP3   OH2 8291   4.675   1.740   3.563
 2783TIP3    H1 8292   4.600   1.743   3.627
 2783TIP3    H2 8293   4.749   1.711   3.620
 2784TIP3   OH2 8294   4.906   1.684   3.713
 2784TIP3    H1 8295   4.918   1.588   3.729
 2784TIP3    H2 8296   4.901   1.721   3.803
 2785TIP3   OH2 8297   3.897   1.627   3.903
 2785TIP3    H1 8298   3.895   1.535   3.871
 2785TIP3    H2 8299   3.931   1.614   3.994
 2786TIP3   OH2 8300   4.407   1.298   3.751
 2786TIP3    H1 8301   4.471   1.225   3.744
 2786TIP3    H2 8302   4.364   1.294   3.663
 2787TIP3   OH2 8303   4.472   1.513   3.911
 2787TIP3    H1 8304   4.450   1.442   3.846
 2787TIP3    H2 8305   4.394   1.571   3.904
 2788TIP3   OH2 8306   3.695   2.743   2.011
 2788TIP3    H1 8307   3.789   2.735   1.989
 2788TIP3    H2 8308   3.664   2.793   1.934
 2789TIP3   OH2 8309   3.173   2.123   2.227
 2789TIP3    H1 8310   3.267   2.144   2.212
 2789TIP3    H2 8311   3.166   2.035   2.185
 2790TIP3   OH2 8312   3.093   2.738   2.634
 2790TIP3    H1 8313   3.023   2.680   2.595
 2790TIP3    H2 8314   3.133   2.677   2.700
 2791TIP3   OH2 8315   3.229   2.586   2.822
 2791TIP3    H1 8316   3.190   2.526   2.886
 2791TIP3    H2 8317   3.274   2.650   2.881
 2792TIP3   OH2 8318   4.951   2.990   2.627
 2792TIP3    H1 8319   4.977   3.016   2.717
 2792TIP3    H2 8320   5.021   3.029   2.573
 2793TIP3   OH2 8321   4.981   3.005   2.908
 2793TIP3    H1 8322   4.935   2.919   2.906
 2793TIP3    H2 8323   5.054   2.983   2.967
 2794TIP3   OH2 8324   5.025   2.683   3.482
 2794TIP3    H1 8325   4.954   2.693   3.548
 2794TIP3    H2 8326   5.068   2.771   3.486
 2795TIP3   OH2 8327   4.848   2.194   2.100
 2795TIP3    H1 8328   4.918   2.259   2.080
 2795TIP3    H2 8329   4.885   2.154   2.182
 2796TIP3   OH2 8330   4.969   2.064   2.306
 2796TIP3    H1 8331   4.905   2.022   2.367
 2796TIP3    H2 8332   5.038   2.098   2.367
 2797TIP3   OH2 8333   5.025   2.457   2.735
 2797TIP3    H1 8334   5.080   2.389   2.691
 2797TIP3    H2 8335   5.020   2.527   2.667
 2798TIP3   OH2 8336   4.854   2.758   2.929
 2798TIP3    H1 8337   4.783   2.798   2.983
 2798TIP3    H2 8338   4.803   2.710   2.860
 2799TIP3   OH2 8339   4.908   1.971   1.949
 2799TIP3    H1 8340   4.833   1.973   1.884
 2799TIP3    H2 8341   4.881   2.044   2.007
 2800TIP3   OH2 8342   4.780   1.645   1.898
 2800TIP3    H1 8343   4.730   1.676   1.822
 2800TIP3    H2 8344   4.758   1.550   1.896
 2801TIP3   OH2 8345   4.782   1.922   2.450
 2801TIP3    H1 8346   4.790   1.825   2.444
 2801TIP3    H2 8347   4.768   1.935   2.547
 2802TIP3   OH2 8348   5.074   2.347   3.308
 2802TIP3    H1 8349   5.145   2.279   3.298
 2802TIP3    H2 8350   5.101   2.415   3.244
 2803TIP3   OH2 8351   5.256   2.147   3.319
 2803TIP3    H1 8352   5.182   2.098   3.360
 2803TIP3    H2 8353   5.329   2.084   3.335
 2804TIP3   OH2 8354   4.722   1.380   1.888
 2804TIP3    H1 8355   4.796   1.348   1.943
 2804TIP3    H2 8356   4.649   1.321   1.911
 2805TIP3   OH2 8357   4.780   1.637   2.342
 2805TIP3    H1 8358   4.820   1.549   2.358
 2805TIP3    H2 8359   4.839   1.669   2.272
 2806TIP3   OH2 8360   4.939   1.808   2.840
 2806TIP3    H1 8361   5.025   1.833   2.799
 2806TIP3    H2 8362   4.954   1.845   2.929
 2807TIP3   OH2 8363   5.011   1.954   3.071
 2807TIP3    H1 8364   4.934   1.988   3.120
 2807TIP3    H2 8365   5.044   2.035   3.026
 2808TIP3   OH2 8366   3.633   1.688   3.871
 2808TIP3    H1 8367   3.730   1.677   3.876
 2808TIP3    H2 8368   3.604   1.600   3.905
 2809TIP3   OH2 8369   5.462   1.548   3.627
 2809TIP3    H1 8370   5.523   1.483   3.585
 2809TIP3    H2 8371   5.431   1.600   3.550
 2810TIP3   OH2 8372   4.889   1.388   2.382
 2810TIP3    H1 8373   4.937   1.373   2.466
 2810TIP3    H2 8374   4.828   1.311   2.382
 2811TIP3   OH2 8375   3.582   1.368   3.254
 2811TIP3    H1 8376   3.655   1.306   3.238
 2811TIP3    H2 8377   3.606   1.441   3.192
 2812TIP3   OH2 8378   3.402   1.667   3.252
 2812TIP3    H1 8379   3.445   1.635   3.169
 2812TIP3    H2 8380   3.483   1.697   3.295
 2813TIP3   OH2 8381   5.331   1.683   3.431
 2813TIP3    H1 8382   5.245   1.727   3.451
 2813TIP3    H2 8383   5.299   1.611   3.374
 2814TIP3   OH2 8384   4.965   1.320   2.015
 2814TIP3    H1 8385   5.008   1.248   1.964
 2814TIP3    H2 8386   5.035   1.389   2.017
 2815TIP3   OH2 8387   3.364   1.123   2.760
 2815TIP3    H1 8388   3.281   1.147   2.803
 2815TIP3    H2 8389   3.373   1.196   2.694
 2816TIP3   OH2 8390   4.536   2.855   2.283
 2816TIP3    H1 8391   4.588   2.845   2.201
 2816TIP3    H2 8392   4.588   2.920   2.332
 2817TIP3   OH2 8393   3.600   1.226   3.583
 2817TIP3    H1 8394   3.550   1.225   3.667
 2817TIP3    H2 8395   3.535   1.266   3.523
 2818TIP3   OH2 8396   3.635   2.652   3.666
 2818TIP3    H1 8397   3.540   2.633   3.653
 2818TIP3    H2 8398   3.645   2.641   3.762
 2819TIP3   OH2 8399   3.816   2.689   3.212
 2819TIP3    H1 8400   3.764   2.764   3.176
 2819TIP3    H2 8401   3.902   2.708   3.168
 2820TIP3   OH2 8402   4.253   2.938   3.352
 2820TIP3    H1 8403   4.295   2.934   3.440
 2820TIP3    H2 8404   4.320   2.989   3.302
 2821TIP3   OH2 8405   4.435   3.090   3.211
 2821TIP3    H1 8406   4.506   3.035   3.174
 2821TIP3    H2 8407   4.486   3.146   3.274
 2822TIP3   OH2 8408   5.231   1.447   3.312
 2822TIP3    H1 8409   5.141   1.439   3.276
 2822TIP3    H2 8410   5.264   1.355   3.302
 2823TIP3   OH2 8411   3.493   2.966   3.243
 2823TIP3    H1 8412   3.404   2.999   3.220
 2823TIP3    H2 8413   3.484   2.958   3.339
 2824TIP3   OH2 8414   3.724   2.927   3.097
 2824TIP3    H1 8415   3.641   2.946   3.148
 2824TIP3    H2 8416   3.702   2.965   3.010
 2825TIP3   OH2 8417   4.153   2.953   2.895
 2825TIP3    H1 8418   4.081   2.972   2.832
 2825TIP3    H2 8419   4.162   3.040   2.939
 2826TIP3   OH2 8420   4.421   2.892   2.947
 2826TIP3    H1 8421   4.327   2.909   2.927
 2826TIP3    H2 8422   4.464   2.968   2.905
 2827TIP3   OH2 8423   4.627   3.085   2.861
 2827TIP3    H1 8424   4.613   3.169   2.812
 2827TIP3    H2 8425   4.653   3.024   2.789
 2828TIP3   OH2 8426   3.407   2.743   2.979
 2828TIP3    H1 8427   3.427   2.717   3.072
 2828TIP3    H2 8428   3.480   2.697   2.932
 2829TIP3   OH2 8429   3.599   2.608   2.842
 2829TIP3    H1 8430   3.616   2.524   2.887
 2829TIP3    H2 8431   3.689   2.648   2.838
 2830TIP3   OH2 8432   3.865   2.706   2.847
 2830TIP3    H1 8433   3.896   2.614   2.835
 2830TIP3    H2 8434   3.912   2.728   2.929
 2831TIP3   OH2 8435   4.441   1.363   2.937
 2831TIP3    H1 8436   4.395   1.293   2.985
 2831TIP3    H2 8437   4.512   1.315   2.891
 2832TIP3   OH2 8438   4.957   1.240   2.833
 2832TIP3    H1 8439   4.994   1.294   2.760
 2832TIP3    H2 8440   4.862   1.263   2.829
 2833TIP3   OH2 8441   5.053   1.343   2.598
 2833TIP3    H1 8442   5.128   1.291   2.561
 2833TIP3    H2 8443   5.088   1.434   2.584
 2834TIP3   OH2 8444   3.691   1.071   2.952
 2834TIP3    H1 8445   3.596   1.047   2.946
 2834TIP3    H2 8446   3.734   0.983   2.943
 2835TIP3   OH2 8447   3.486   0.939   2.601
 2835TIP3    H1 8448   3.510   0.998   2.528
 2835TIP3    H2 8449   3.447   1.004   2.665
 2836TIP3   OH2 8450   4.131   1.100   2.828
 2836TIP3    H1 8451   4.189   1.149   2.767
 2836TIP3    H2 8452   4.150   1.143   2.912
 2837TIP3   OH2 8453   4.673   1.251   2.811
 2837TIP3    H1 8454   4.674   1.211   2.723
 2837TIP3    H2 8455   4.661   1.172   2.868
 2838TIP3   OH2 8456   4.705   1.176   2.374
 2838TIP3    H1 8457   4.620   1.221   2.393
 2838TIP3    H2 8458   4.690   1.090   2.419
 2839TIP3   OH2 8459   3.190   2.515   2.371
 2839TIP3    H1 8460   3.101   2.483   2.344
 2839TIP3    H2 8461   3.179   2.609   2.348
 2840TIP3   OH2 8462   3.591   1.096   2.359
 2840TIP3    H1 8463   3.643   1.039   2.300
 2840TIP3    H2 8464   3.660   1.154   2.397
 2841TIP3   OH2 8465   4.103   1.275   2.456
 2841TIP3    H1 8466   4.164   1.235   2.520
 2841TIP3    H2 8467   4.116   1.370   2.480
 2842TIP3   OH2 8468   3.961   2.697   1.956
 2842TIP3    H1 8469   4.049   2.721   1.920
 2842TIP3    H2 8470   3.938   2.623   1.896
 2843TIP3   OH2 8471   4.683   2.821   2.051
 2843TIP3    H1 8472   4.676   2.723   2.042
 2843TIP3    H2 8473   4.633   2.851   1.972
 2844TIP3   OH2 8474   3.892   1.357   3.833
 2844TIP3    H1 8475   3.853   1.283   3.883
 2844TIP3    H2 8476   3.985   1.352   3.866
 2845TIP3   OH2 8477   4.141   1.351   3.959
 2845TIP3    H1 8478   4.226   1.321   3.921
 2845TIP3    H2 8479   4.123   1.279   4.024
 2846TIP3   OH2 8480   3.263   2.537   2.010
 2846TIP3    H1 8481   3.256   2.560   2.104
 2846TIP3    H2 8482   3.352   2.496   2.004
 2847TIP3   OH2 8483   4.969   1.413   3.744
 2847TIP3    H1 8484   4.987   1.382   3.836
 2847TIP3    H2 8485   5.059   1.408   3.704
 2848TIP3   OH2 8486   4.905   2.964   3.236
 2848TIP3    H1 8487   4.826   2.933   3.187
 2848TIP3    H2 8488   4.885   3.059   3.244
 2849TIP3   OH2 8489   6.182   2.343   1.991
 2849TIP3    H1 8490   6.146   2.432   1.979
 2849TIP3    H2 8491   6.102   2.290   2.003
 2850TIP3   OH2 8492   6.190   2.339   2.380
 2850TIP3    H1 8493   6.209   2.303   2.468
 2850TIP3    H2 8494   6.108   2.290   2.357
 2851TIP3   OH2 8495   5.466   2.232   2.756
 2851TIP3    H1 8496   5.496   2.164   2.819
 2851TIP3    H2 8497   5.552   2.267   2.725
 2852TIP3   OH2 8498   6.415   2.646   2.064
 2852TIP3    H1 8499   6.397   2.571   2.123
 2852TIP3    H2 8500   6.446   2.714   2.127
 2853TIP3   OH2 8501   5.441   2.637   2.468
 2853TIP3    H1 8502   5.434   2.539   2.469
 2853TIP3    H2 8503   5.538   2.647   2.471
 2854TIP3   OH2 8504   5.147   1.842   2.249
 2854TIP3    H1 8505   5.103   1.925   2.274
 2854TIP3    H2 8506   5.072   1.790   2.215
 2855TIP3   OH2 8507   5.208   2.128   2.431
 2855TIP3    H1 8508   5.255   2.050   2.468
 2855TIP3    H2 8509   5.278   2.170   2.380
 2856TIP3   OH2 8510   6.067   3.100   2.083
 2856TIP3    H1 8511   6.111   3.027   2.035
 2856TIP3    H2 8512   6.058   3.063   2.172
 2857TIP3   OH2 8513   5.962   2.565   2.435
 2857TIP3    H1 8514   5.980   2.476   2.398
 2857TIP3    H2 8515   6.054   2.597   2.449
 2858TIP3   OH2 8516   6.984   1.882   2.430
 2858TIP3    H1 8517   7.015   1.965   2.471
 2858TIP3    H2 8518   7.009   1.895   2.337
 2859TIP3   OH2 8519   6.388   2.066   2.464
 2859TIP3    H1 8520   6.424   1.977   2.478
 2859TIP3    H2 8521   6.346   2.055   2.376
 2860TIP3   OH2 8522   5.721   1.729   2.425
 2860TIP3    H1 8523   5.704   1.807   2.367
 2860TIP3    H2 8524   5.669   1.661   2.378
 2861TIP3   OH2 8525   6.417   1.805   2.048
 2861TIP3    H1 8526   6.486   1.793   2.118
 2861TIP3    H2 8527   6.470   1.848   1.979
 2862TIP3   OH2 8528   5.354   1.924   2.536
 2862TIP3    H1 8529   5.438   1.908   2.584
 2862TIP3    H2 8530   5.370   1.868   2.457
 2863TIP3   OH2 8531   7.059   2.092   2.598
 2863TIP3    H1 8532   6.974   2.136   2.578
 2863TIP3    H2 8533   7.068   2.114   2.692
 2864TIP3   OH2 8534   5.714   1.704   2.864
 2864TIP3    H1 8535   5.659   1.744   2.794
 2864TIP3    H2 8536   5.660   1.725   2.943
 2865TIP3   OH2 8537   6.076   2.574   1.859
 2865TIP3    H1 8538   6.016   2.532   1.796
 2865TIP3    H2 8539   6.020   2.649   1.890
 2866TIP3   OH2 8540   5.825   2.483   2.661
 2866TIP3    H1 8541   5.765   2.553   2.694
 2866TIP3    H2 8542   5.867   2.526   2.583
 2867TIP3   OH2 8543   6.622   1.818   2.227
 2867TIP3    H1 8544   6.599   1.778   2.312
 2867TIP3    H2 8545   6.671   1.898   2.255
 2868TIP3   OH2 8546   5.587   1.818   2.647
 2868TIP3    H1 8547   5.647   1.893   2.671
 2868TIP3    H2 8548   5.637   1.782   2.570
 2869TIP3   OH2 8549   5.652   2.680   2.755
 2869TIP3    H1 8550   5.626   2.768   2.722
 2869TIP3    H2 8551   5.574   2.660   2.811
 2870TIP3   OH2 8552   5.055   2.371   1.995
 2870TIP3    H1 8553   4.990   2.420   1.943
 2870TIP3    H2 8554   5.095   2.445   2.045
 2871TIP3   OH2 8555   6.485   2.885   2.232
 2871TIP3    H1 8556   6.396   2.874   2.273
 2871TIP3    H2 8557   6.474   2.972   2.189
 2872TIP3   OH2 8558   6.777   1.782   2.598
 2872TIP3    H1 8559   6.689   1.806   2.564
 2872TIP3    H2 8560   6.836   1.814   2.526
 2873TIP3   OH2 8561   6.071   1.422   2.579
 2873TIP3    H1 8562   6.054   1.328   2.597
 2873TIP3    H2 8563   5.995   1.463   2.626
 2874TIP3   OH2 8564   6.185   2.925   1.901
 2874TIP3    H1 8565   6.237   2.843   1.889
 2874TIP3    H2 8566   6.248   2.991   1.863
 2875TIP3   OH2 8567   6.335   2.707   1.807
 2875TIP3    H1 8568   6.263   2.642   1.804
 2875TIP3    H2 8569   6.377   2.682   1.893
 2876TIP3   OH2 8570   6.713   2.794   2.575
 2876TIP3    H1 8571   6.697   2.715   2.518
 2876TIP3    H2 8572   6.694   2.867   2.514
 2877TIP3   OH2 8573   5.997   2.180   1.830
 2877TIP3    H1 8574   5.920   2.237   1.810
 2877TIP3    H2 8575   6.048   2.184   1.748
 2878TIP3   OH2 8576   5.959   1.976   1.544
 2878TIP3    H1 8577   6.024   2.024   1.599
 2878TIP3    H2 8578   6.018   1.913   1.499
 2879TIP3   OH2 8579   6.907   2.438   2.425
 2879TIP3    H1 8580   6.821   2.485   2.429
 2879TIP3    H2 8581   6.933   2.457   2.333
 2880TIP3   OH2 8582   6.356   2.276   1.795
 2880TIP3    H1 8583   6.298   2.298   1.872
 2880TIP3    H2 8584   6.437   2.248   1.842
 2881TIP3   OH2 8585   6.587   2.309   2.720
 2881TIP3    H1 8586   6.580   2.393   2.768
 2881TIP3    H2 8587   6.499   2.306   2.676
 2882TIP3   OH2 8588   5.599   2.258   2.228
 2882TIP3    H1 8589   5.561   2.197   2.161
 2882TIP3    H2 8590   5.681   2.210   2.255
 2883TIP3   OH2 8591   5.717   2.685   2.368
 2883TIP3    H1 8592   5.697   2.634   2.288
 2883TIP3    H2 8593   5.805   2.649   2.392
 2884TIP3   OH2 8594   5.705   2.248   2.585
 2884TIP3    H1 8595   5.761   2.219   2.508
 2884TIP3    H2 8596   5.753   2.331   2.607
 2885TIP3   OH2 8597   6.244   2.877   2.352
 2885TIP3    H1 8598   6.233   2.955   2.410
 2885TIP3    H2 8599   6.229   2.802   2.413
 2886TIP3   OH2 8600   5.858   2.796   2.901
 2886TIP3    H1 8601   5.796   2.856   2.947
 2886TIP3    H2 8602   5.794   2.742   2.850
 2887TIP3   OH2 8603   6.190   2.132   1.632
 2887TIP3    H1 8604   6.250   2.190   1.683
 2887TIP3    H2 8605   6.215   2.154   1.539
 2888TIP3   OH2 8606   5.615   2.352   3.010
 2888TIP3    H1 8607   5.616   2.441   3.051
 2888TIP3    H2 8608   5.520   2.331   3.014
 2889TIP3   OH2 8609   5.934   2.808   1.901
 2889TIP3    H1 8610   6.016   2.858   1.917
 2889TIP3    H2 8611   5.872   2.876   1.873
 2890TIP3   OH2 8612   5.650   2.961   2.988
 2890TIP3    H1 8613   5.614   2.963   2.898
 2890TIP3    H2 8614   5.571   2.940   3.042
 2891TIP3   OH2 8615   6.704   1.363   1.678
 2891TIP3    H1 8616   6.624   1.387   1.729
 2891TIP3    H2 8617   6.720   1.446   1.629
 2892TIP3   OH2 8618   5.454   2.112   2.026
 2892TIP3    H1 8619   5.384   2.151   1.971
 2892TIP3    H2 8620   5.420   2.025   2.049
 2893TIP3   OH2 8621   6.486   2.731   1.201
 2893TIP3    H1 8622   6.498   2.828   1.194
 2893TIP3    H2 8623   6.576   2.701   1.184
 2894TIP3   OH2 8624   5.229   2.496   2.935
 2894TIP3    H1 8625   5.163   2.472   2.867
 2894TIP3    H2 8626   5.269   2.410   2.959
 2895TIP3   OH2 8627   5.085   2.691   2.559
 2895TIP3    H1 8628   5.181   2.679   2.557
 2895TIP3    H2 8629   5.077   2.764   2.623
 2896TIP3   OH2 8630   6.949   3.142   2.623
 2896TIP3    H1 8631   6.949   3.046   2.638
 2896TIP3    H2 8632   6.866   3.167   2.669
 2897TIP3   OH2 8633   6.051   2.926   2.757
 2897TIP3    H1 8634   6.050   3.018   2.790
 2897TIP3    H2 8635   5.981   2.885   2.812
 2898TIP3   OH2 8636   5.817   3.056   1.709
 2898TIP3    H1 8637   5.764   3.041   1.629
 2898TIP3    H2 8638   5.785   3.143   1.740
 2899TIP3   OH2 8639   5.254   2.902   2.098
 2899TIP3    H1 8640   5.305   2.895   2.182
 2899TIP3    H2 8641   5.196   2.824   2.107
 2900TIP3   OH2 8642   6.027   2.946   1.357
 2900TIP3    H1 8643   6.073   2.863   1.373
 2900TIP3    H2 8644   6.042   2.989   1.443
 2901TIP3   OH2 8645   6.067   3.006   1.620
 2901TIP3    H1 8646   5.978   3.015   1.661
 2901TIP3    H2 8647   6.117   2.968   1.694
 2902TIP3   OH2 8648   6.837   2.271   2.896
 2902TIP3    H1 8649   6.753   2.280   2.848
 2902TIP3    H2 8650   6.854   2.175   2.887
 2903TIP3   OH2 8651   5.433   2.679   2.920
 2903TIP3    H1 8652   5.483   2.663   3.002
 2903TIP3    H2 8653   5.360   2.615   2.928
 2904TIP3   OH2 8654   5.834   1.498   2.709
 2904TIP3    H1 8655   5.744   1.471   2.682
 2904TIP3    H2 8656   5.812   1.583   2.753
 2905TIP3   OH2 8657   6.370   1.615   2.902
 2905TIP3    H1 8658   6.438   1.587   2.967
 2905TIP3    H2 8659   6.286   1.595   2.949
 2906TIP3   OH2 8660   6.609   2.047   2.825
 2906TIP3    H1 8661   6.555   2.043   2.907
 2906TIP3    H2 8662   6.581   2.131   2.784
 2907TIP3   OH2 8663   6.263   2.182   1.376
 2907TIP3    H1 8664   6.229   2.150   1.290
 2907TIP3    H2 8665   6.348   2.223   1.350
 2908TIP3   OH2 8666   5.978   1.551   1.681
 2908TIP3    H1 8667   5.945   1.546   1.773
 2908TIP3    H2 8668   5.941   1.467   1.646
 2909TIP3   OH2 8669   5.754   2.017   2.720
 2909TIP3    H1 8670   5.713   2.045   2.805
 2909TIP3    H2 8671   5.744   2.099   2.667
 2910TIP3   OH2 8672   5.631   1.898   2.234
 2910TIP3    H1 8673   5.542   1.863   2.255
 2910TIP3    H2 8674   5.649   1.856   2.148
 2911TIP3   OH2 8675   6.136   1.982   1.966
 2911TIP3    H1 8676   6.085   2.055   1.926
 2911TIP3    H2 8677   6.193   1.953   1.892
 2912TIP3   OH2 8678   6.316   2.266   3.057
 2912TIP3    H1 8679   6.293   2.192   3.118
 2912TIP3    H2 8680   6.411   2.277   3.077
 2913TIP3   OH2 8681   6.315   2.024   2.201
 2913TIP3    H1 8682   6.231   2.051   2.160
 2913TIP3    H2 8683   6.331   1.940   2.154
 2914TIP3   OH2 8684   5.579   2.049   2.938
 2914TIP3    H1 8685   5.622   2.108   3.001
 2914TIP3    H2 8686   5.574   1.965   2.988
 2915TIP3   OH2 8687   5.641   1.520   1.645
 2915TIP3    H1 8688   5.628   1.520   1.742
 2915TIP3    H2 8689   5.561   1.569   1.616
 2916TIP3   OH2 8690   5.180   1.566   2.515
 2916TIP3    H1 8691   5.252   1.601   2.572
 2916TIP3    H2 8692   5.227   1.535   2.436
 2917TIP3   OH2 8693   5.143   1.544   2.036
 2917TIP3    H1 8694   5.192   1.581   1.960
 2917TIP3    H2 8695   5.084   1.619   2.056
 2918TIP3   OH2 8696   6.323   2.266   2.630
 2918TIP3    H1 8697   6.349   2.194   2.567
 2918TIP3    H2 8698   6.286   2.211   2.703
 2919TIP3   OH2 8699   5.980   1.713   2.299
 2919TIP3    H1 8700   5.897   1.722   2.351
 2919TIP3    H2 8701   6.045   1.748   2.363
 2920TIP3   OH2 8702   5.403   1.772   2.314
 2920TIP3    H1 8703   5.310   1.779   2.281
 2920TIP3    H2 8704   5.430   1.682   2.288
 2921TIP3   OH2 8705   5.676   1.769   1.995
 2921TIP3    H1 8706   5.772   1.789   1.987
 2921TIP3    H2 8707   5.637   1.805   1.913
 2922TIP3   OH2 8708   6.468   1.799   2.503
 2922TIP3    H1 8709   6.436   1.815   2.595
 2922TIP3    H2 8710   6.396   1.742   2.470
 2923TIP3   OH2 8711   5.512   1.832   1.776
 2923TIP3    H1 8712   5.462   1.764   1.726
 2923TIP3    H2 8713   5.573   1.863   1.705
 2924TIP3   OH2 8714   6.642   3.489   2.725
 2924TIP3    H1 8715   6.640   3.515   2.631
 2924TIP3    H2 8716   6.720   3.539   2.757
 2925TIP3   OH2 8717   5.596   2.603   3.143
 2925TIP3    H1 8718   5.676   2.630   3.191
 2925TIP3    H2 8719   5.531   2.599   3.216
 2926TIP3   OH2 8720   5.574   1.543   2.278
 2926TIP3    H1 8721   5.543   1.465   2.328
 2926TIP3    H2 8722   5.633   1.503   2.213
 2927TIP3   OH2 8723   6.033   1.932   2.724
 2927TIP3    H1 8724   5.955   1.975   2.685
 2927TIP3    H2 8725   6.098   2.004   2.729
 2928TIP3   OH2 8726   5.771   2.346   1.778
 2928TIP3    H1 8727   5.704   2.274   1.769
 2928TIP3    H2 8728   5.752   2.376   1.870
 2929TIP3   OH2 8729   6.670   2.577   2.411
 2929TIP3    H1 8730   6.692   2.627   2.329
 2929TIP3    H2 8731   6.586   2.532   2.386
 2930TIP3   OH2 8732   6.226   1.655   1.638
 2930TIP3    H1 8733   6.132   1.634   1.656
 2930TIP3    H2 8734   6.237   1.746   1.672
 2931TIP3   OH2 8735   6.182   2.667   2.776
 2931TIP3    H1 8736   6.197   2.634   2.866
 2931TIP3    H2 8737   6.132   2.749   2.790
 2932TIP3   OH2 8738   6.300   1.899   1.748
 2932TIP3    H1 8739   6.396   1.904   1.768
 2932TIP3    H2 8740   6.284   1.982   1.699
 2933TIP3   OH2 8741   5.469   2.357   2.451
 2933TIP3    H1 8742   5.511   2.329   2.367
 2933TIP3    H2 8743   5.525   2.310   2.514
 2934TIP3   OH2 8744   5.914   2.491   1.600
 2934TIP3    H1 8745   5.866   2.577   1.608
 2934TIP3    H2 8746   5.862   2.434   1.661
 2935TIP3   OH2 8747   5.346   2.287   3.074
 2935TIP3    H1 8748   5.367   2.271   3.168
 2935TIP3    H2 8749   5.280   2.217   3.057
 2936TIP3   OH2 8750   6.075   2.400   3.092
 2936TIP3    H1 8751   6.016   2.345   3.038
 2936TIP3    H2 8752   6.162   2.363   3.065
 2937TIP3   OH2 8753   6.331   2.932   2.669
 2937TIP3    H1 8754   6.236   2.918   2.687
 2937TIP3    H2 8755   6.359   2.976   2.753
 2938TIP3   OH2 8756   6.738   1.990   1.585
 2938TIP3    H1 8757   6.676   1.948   1.522
 2938TIP3    H2 8758   6.739   2.080   1.546
 2939TIP3   OH2 8759   6.963   2.855   2.663
 2939TIP3    H1 8760   6.865   2.846   2.657
 2939TIP3    H2 8761   6.988   2.821   2.574
 2940TIP3   OH2 8762   6.410   2.770   1.474
 2940TIP3    H1 8763   6.396   2.760   1.571
 2940TIP3    H2 8764   6.505   2.752   1.467
 2941TIP3   OH2 8765   6.441   2.441   2.323
 2941TIP3    H1 8766   6.349   2.413   2.341
 2941TIP3    H2 8767   6.475   2.359   2.282
 2942TIP3   OH2 8768   5.565   2.667   2.080
 2942TIP3    H1 8769   5.562   2.749   2.028
 2942TIP3    H2 8770   5.472   2.655   2.104
 2943TIP3   OH2 8771   5.128   2.001   1.793
 2943TIP3    H1 8772   5.173   2.062   1.852
 2943TIP3    H2 8773   5.045   1.982   1.848
 2944TIP3   OH2 8774   5.699   2.431   2.021
 2944TIP3    H1 8775   5.661   2.516   2.048
 2944TIP3    H2 8776   5.684   2.376   2.100
 2945TIP3   OH2 8777   5.837   3.011   2.552
 2945TIP3    H1 8778   5.882   3.082   2.503
 2945TIP3    H2 8779   5.912   2.971   2.600
 2946TIP3   OH2 8780   5.482   2.909   1.932
 2946TIP3    H1 8781   5.398   2.916   1.982
 2946TIP3    H2 8782   5.515   3.001   1.938
 2947TIP3   OH2 8783   6.223   2.644   2.508
 2947TIP3    H1 8784   6.213   2.644   2.606
 2947TIP3    H2 8785   6.294   2.578   2.496
 2948TIP3   OH2 8786   6.203   2.562   1.391
 2948TIP3    H1 8787   6.248   2.522   1.470
 2948TIP3    H2 8788   6.116   2.519   1.400
 2949TIP3   OH2 8789   6.473   3.175   2.563
 2949TIP3    H1 8790   6.396   3.115   2.563
 2949TIP3    H2 8791   6.451   3.237   2.490
 2950TIP3   OH2 8792   6.531   3.003   1.216
 2950TIP3    H1 8793   6.571   3.068   1.157
 2950TIP3    H2 8794   6.456   3.057   1.249
 2951TIP3   OH2 8795   5.555   1.790   3.079
 2951TIP3    H1 8796   5.459   1.792   3.091
 2951TIP3    H2 8797   5.584   1.733   3.151
 2952TIP3   OH2 8798   6.361   2.467   1.587
 2952TIP3    H1 8799   6.340   2.411   1.664
 2952TIP3    H2 8800   6.459   2.463   1.591
 2953TIP3   OH2 8801   5.274   2.870   2.711
 2953TIP3    H1 8802   5.328   2.799   2.748
 2953TIP3    H2 8803   5.298   2.944   2.769
 2954TIP3   OH2 8804   5.560   2.516   1.393
 2954TIP3    H1 8805   5.577   2.423   1.366
 2954TIP3    H2 8806   5.549   2.504   1.489
 2955TIP3   OH2 8807   5.511   2.518   1.661
 2955TIP3    H1 8808   5.581   2.486   1.720
 2955TIP3    H2 8809   5.513   2.615   1.677
 2956TIP3   OH2 8810   5.250   2.224   1.868
 2956TIP3    H1 8811   5.185   2.275   1.923
 2956TIP3    H2 8812   5.277   2.294   1.804
 2957TIP3   OH2 8813   6.397   1.854   2.765
 2957TIP3    H1 8814   6.479   1.889   2.804
 2957TIP3    H2 8815   6.382   1.773   2.817
 2958TIP3   OH2 8816   6.279   1.597   1.929
 2958TIP3    H1 8817   6.265   1.625   1.838
 2958TIP3    H2 8818   6.319   1.677   1.970
 2959TIP3   OH2 8819   5.774   2.723   1.611
 2959TIP3    H1 8820   5.687   2.740   1.654
 2959TIP3    H2 8821   5.787   2.806   1.565
 2960TIP3   OH2 8822   5.955   1.785   2.032
 2960TIP3    H1 8823   6.019   1.858   2.015
 2960TIP3    H2 8824   5.963   1.777   2.130
 2961TIP3   OH2 8825   6.240   2.107   2.832
 2961TIP3    H1 8826   6.261   2.154   2.915
 2961TIP3    H2 8827   6.283   2.021   2.843
 2962TIP3   OH2 8828   6.103   1.505   2.132
 2962TIP3    H1 8829   6.088   1.583   2.190
 2962TIP3    H2 8830   6.167   1.542   2.068
 2963TIP3   OH2 8831   5.518   2.793   1.685
 2963TIP3    H1 8832   5.489   2.864   1.624
 2963TIP3    H2 8833   5.503   2.835   1.773
 2964TIP3   OH2 8834   5.620   1.509   1.920
 2964TIP3    H1 8835   5.621   1.599   1.959
 2964TIP3    H2 8836   5.715   1.488   1.928
 2965TIP3   OH2 8837   6.874   2.002   2.817
 2965TIP3    H1 8838   6.776   2.004   2.828
 2965TIP3    H2 8839   6.880   1.952   2.734
 2966TIP3   OH2 8840   6.530   2.201   2.204
 2966TIP3    H1 8841   6.450   2.144   2.213
 2966TIP3    H2 8842   6.596   2.150   2.254
 2967TIP3   OH2 8843   5.249   2.416   1.656
 2967TIP3    H1 8844   5.246   2.501   1.701
 2967TIP3    H2 8845   5.335   2.425   1.612
 2968TIP3   OH2 8846   5.175   1.702   1.815
 2968TIP3    H1 8847   5.181   1.798   1.803
 2968TIP3    H2 8848   5.096   1.677   1.767
 2969TIP3   OH2 8849   6.492   3.156   2.153
 2969TIP3    H1 8850   6.450   3.202   2.077
 2969TIP3    H2 8851   6.587   3.174   2.133
 2970TIP3   OH2 8852   5.567   1.421   2.681
 2970TIP3    H1 8853   5.538   1.387   2.594
 2970TIP3    H2 8854   5.557   1.342   2.739
 2971TIP3   OH2 8855   5.101   2.635   2.061
 2971TIP3    H1 8856   5.042   2.668   2.131
 2971TIP3    H2 8857   5.066   2.681   1.982
 2972TIP3   OH2 8858   5.267   3.187   3.133
 2972TIP3    H1 8859   5.353   3.188   3.181
 2972TIP3    H2 8860   5.249   3.091   3.133
 2973TIP3   OH2 8861   5.743   3.143   3.179
 2973TIP3    H1 8862   5.838   3.126   3.186
 2973TIP3    H2 8863   5.718   3.082   3.107
 2974TIP3   OH2 8864   5.728   2.709   1.304
 2974TIP3    H1 8865   5.657   2.656   1.347
 2974TIP3    H2 8866   5.791   2.637   1.291
 2975TIP3   OH2 8867   6.385   3.052   2.912
 2975TIP3    H1 8868   6.377   2.982   2.981
 2975TIP3    H2 8869   6.461   3.104   2.944
 2976TIP3   OH2 8870   5.395   2.589   3.335
 2976TIP3    H1 8871   5.411   2.493   3.342
 2976TIP3    H2 8872   5.308   2.591   3.289
 2977TIP3   OH2 8873   6.001   2.674   3.109
 2977TIP3    H1 8874   5.960   2.693   3.022
 2977TIP3    H2 8875   6.032   2.582   3.099
 2978TIP3   OH2 8876   5.881   2.439   1.335
 2978TIP3    H1 8877   5.884   2.448   1.432
 2978TIP3    H2 8878   5.882   2.340   1.328
 2979TIP3   OH2 8879   6.497   2.685   2.720
 2979TIP3    H1 8880   6.569   2.732   2.673
 2979TIP3    H2 8881   6.421   2.742   2.701
 2980TIP3   OH2 8882   5.514   2.325   3.318
 2980TIP3    H1 8883   5.591   2.275   3.289
 2980TIP3    H2 8884   5.544   2.357   3.406
 2981TIP3   OH2 8885   5.589   2.144   1.762
 2981TIP3    H1 8886   5.566   2.100   1.846
 2981TIP3    H2 8887   5.619   2.069   1.706
 2982TIP3   OH2 8888   5.843   2.201   2.978
 2982TIP3    H1 8889   5.769   2.266   2.980
 2982TIP3    H2 8890   5.899   2.238   2.906
 2983TIP3   OH2 8891   5.683   1.941   1.594
 2983TIP3    H1 8892   5.660   1.951   1.500
 2983TIP3    H2 8893   5.781   1.941   1.588
 2984TIP3   OH2 8894   6.369   2.610   3.113
 2984TIP3    H1 8895   6.443   2.576   3.061
 2984TIP3    H2 8896   6.361   2.544   3.183
 2985TIP3   OH2 8897   6.495   2.281   1.254
 2985TIP3    H1 8898   6.467   2.226   1.177
 2985TIP3    H2 8899   6.546   2.349   1.209
 2986TIP3   OH2 8900   5.974   1.997   3.104
 2986TIP3    H1 8901   5.973   1.915   3.050
 2986TIP3    H2 8902   5.930   2.061   3.044
 2987TIP3   OH2 8903   5.970   1.773   2.933
 2987TIP3    H1 8904   6.000   1.824   2.854
 2987TIP3    H2 8905   5.878   1.752   2.906
 2988TIP3   OH2 8906   6.000   2.323   2.799
 2988TIP3    H1 8907   6.076   2.309   2.741
 2988TIP3    H2 8908   5.944   2.383   2.745
 2989TIP3   OH2 8909   6.583   2.283   3.165
 2989TIP3    H1 8910   6.629   2.198   3.174
 2989TIP3    H2 8911   6.651   2.339   3.127
 2990TIP3   OH2 8912   6.625   2.539   2.906
 2990TIP3    H1 8913   6.567   2.593   2.847
 2990TIP3    H2 8914   6.712   2.558   2.866
 2991TIP3   OH2 8915   5.853   2.103   3.337
 2991TIP3    H1 8916   5.784   2.034   3.351
 2991TIP3    H2 8917   5.885   2.080   3.248
 2992TIP3   OH2 8918   6.110   1.540   2.982
 2992TIP3    H1 8919   6.059   1.622   2.963
 2992TIP3    H2 8920   6.041   1.472   2.969
 2993TIP3   OH2 8921   6.233   2.046   3.196
 2993TIP3    H1 8922   6.216   2.031   3.291
 2993TIP3    H2 8923   6.144   2.024   3.160
 2994TIP3   OH2 8924   6.473   2.001   3.053
 2994TIP3    H1 8925   6.397   2.000   3.115
 2994TIP3    H2 8926   6.547   1.969   3.109
 2995TIP3   OH2 8927   6.704   1.941   3.201
 2995TIP3    H1 8928   6.716   1.845   3.216
 2995TIP3    H2 8929   6.699   1.977   3.292
 2996TIP3   OH2 8930   5.689   1.884   3.391
 2996TIP3    H1 8931   5.695   1.793   3.357
 2996TIP3    H2 8932   5.727   1.872   3.481
 2997TIP3   OH2 8933   6.200   1.553   3.241
 2997TIP3    H1 8934   6.267   1.483   3.234
 2997TIP3    H2 8935   6.161   1.550   3.151
 2998TIP3   OH2 8936   6.268   1.769   3.398
 2998TIP3    H1 8937   6.247   1.698   3.333
 2998TIP3    H2 8938   6.190   1.828   3.390
 2999TIP3   OH2 8939   5.489   2.996   1.496
 2999TIP3    H1 8940   5.584   2.989   1.476
 2999TIP3    H2 8941   5.461   3.049   1.419
 3000TIP3   OH2 8942   4.888   2.991   2.128
 3000TIP3    H1 8943   4.820   2.931   2.090
 3000TIP3    H2 8944   4.930   2.931   2.194
 3001TIP3   OH2 8945   5.023   2.835   2.312
 3001TIP3    H1 8946   5.011   2.768   2.381
 3001TIP3    H2 8947   5.074   2.901   2.364
 3002TIP3   OH2 8948   6.747   3.244   2.114
 3002TIP3    H1 8949   6.772   3.272   2.204
 3002TIP3    H2 8950   6.815   3.287   2.059
 3003TIP3   OH2 8951   6.777   3.262   2.394
 3003TIP3    H1 8952   6.729   3.176   2.392
 3003TIP3    H2 8953   6.848   3.238   2.456
 3004TIP3   OH2 8954   6.822   2.940   2.969
 3004TIP3    H1 8955   6.750   2.949   3.034
 3004TIP3    H2 8956   6.864   3.029   2.973
 3005TIP3   OH2 8957   6.640   2.458   1.586
 3005TIP3    H1 8958   6.714   2.517   1.560
 3005TIP3    H2 8959   6.678   2.418   1.668
 3006TIP3   OH2 8960   6.763   2.324   1.792
 3006TIP3    H1 8961   6.698   2.279   1.850
 3006TIP3    H2 8962   6.829   2.357   1.856
 3007TIP3   OH2 8963   6.824   2.716   2.224
 3007TIP3    H1 8964   6.876   2.646   2.180
 3007TIP3    H2 8965   6.815   2.783   2.154
 3008TIP3   OH2 8966   6.650   3.015   2.416
 3008TIP3    H1 8967   6.579   3.054   2.470
 3008TIP3    H2 8968   6.600   2.967   2.347
 3009TIP3   OH2 8969   6.703   2.231   1.438
 3009TIP3    H1 8970   6.624   2.226   1.380
 3009TIP3    H2 8971   6.677   2.305   1.497
 3010TIP3   OH2 8972   6.571   1.906   1.386
 3010TIP3    H1 8973   6.524   1.923   1.303
 3010TIP3    H2 8974   6.552   1.810   1.395
 3011TIP3   OH2 8975   6.579   2.179   1.935
 3011TIP3    H1 8976   6.584   2.082   1.930
 3011TIP3    H2 8977   6.565   2.193   2.032
 3012TIP3   OH2 8978   5.204   2.254   2.683
 3012TIP3    H1 8979   5.205   2.218   2.592
 3012TIP3    H2 8980   5.301   2.255   2.703
 3013TIP3   OH2 8981   6.871   2.603   2.796
 3013TIP3    H1 8982   6.941   2.535   2.785
 3013TIP3    H2 8983   6.893   2.668   2.728
 3014TIP3   OH2 8984   7.055   2.405   2.805
 3014TIP3    H1 8985   6.979   2.357   2.843
 3014TIP3    H2 8986   7.126   2.340   2.824
 3015TIP3   OH2 8987   6.514   1.643   1.388
 3015TIP3    H1 8988   6.592   1.603   1.431
 3015TIP3    H2 8989   6.446   1.574   1.396
 3016TIP3   OH2 8990   6.576   1.895   1.829
 3016TIP3    H1 8991   6.614   1.805   1.846
 3016TIP3    H2 8992   6.636   1.925   1.758
 3017TIP3   OH2 8993   6.737   2.062   2.327
 3017TIP3    H1 8994   6.822   2.089   2.287
 3017TIP3    H2 8995   6.750   2.099   2.417
 3018TIP3   OH2 8996   6.809   2.212   2.557
 3018TIP3    H1 8997   6.731   2.244   2.606
 3018TIP3    H2 8998   6.840   2.294   2.513
 3019TIP3   OH2 8999   5.422   1.935   3.358
 3019TIP3    H1 9000   5.520   1.930   3.362
 3019TIP3    H2 9001   5.399   1.849   3.398
 3020TIP3   OH2 9002   7.259   1.805   3.113
 3020TIP3    H1 9003   7.318   1.739   3.071
 3020TIP3    H2 9004   7.228   1.857   3.035
 3021TIP3   OH2 9005   6.685   1.645   1.868
 3021TIP3    H1 9006   6.733   1.630   1.952
 3021TIP3    H2 9007   6.624   1.569   1.868
 3022TIP3   OH2 9008   5.383   1.631   2.692
 3022TIP3    H1 9009   5.445   1.555   2.699
 3022TIP3    H2 9010   5.446   1.704   2.680
 3023TIP3   OH2 9011   5.184   1.902   2.760
 3023TIP3    H1 9012   5.237   1.898   2.677
 3023TIP3    H2 9013   5.218   1.983   2.800
 3024TIP3   OH2 9014   7.127   1.941   2.916
 3024TIP3    H1 9015   7.040   1.983   2.932
 3024TIP3    H2 9016   7.098   1.867   2.860
 3025TIP3   OH2 9017   6.763   1.574   1.502
 3025TIP3    H1 9018   6.805   1.503   1.450
 3025TIP3    H2 9019   6.831   1.645   1.501
 3026TIP3   OH2 9020   5.171   1.399   2.262
 3026TIP3    H1 9021   5.079   1.399   2.294
 3026TIP3    H2 9022   5.166   1.461   2.186
 3027TIP3   OH2 9023   6.329   3.110   1.766
 3027TIP3    H1 9024   6.387   3.106   1.687
 3027TIP3    H2 9025   6.375   3.176   1.822
 3028TIP3   OH2 9026   5.391   1.485   3.077
 3028TIP3    H1 9027   5.340   1.483   3.160
 3028TIP3    H2 9028   5.326   1.524   3.016
 3029TIP3   OH2 9029   5.430   2.918   3.153
 3029TIP3    H1 9030   5.338   2.890   3.138
 3029TIP3    H2 9031   5.442   2.896   3.246
 3030TIP3   OH2 9032   5.610   2.950   2.701
 3030TIP3    H1 9033   5.564   3.027   2.662
 3030TIP3    H2 9034   5.696   2.962   2.657
 3031TIP3   OH2 9035   6.051   3.193   2.839
 3031TIP3    H1 9036   6.093   3.190   2.927
 3031TIP3    H2 9037   6.117   3.244   2.788
 3032TIP3   OH2 9038   6.231   3.345   2.699
 3032TIP3    H1 9039   6.301   3.292   2.660
 3032TIP3    H2 9040   6.283   3.401   2.761
 3033TIP3   OH2 9041   7.026   1.703   2.800
 3033TIP3    H1 9042   6.937   1.692   2.764
 3033TIP3    H2 9043   7.061   1.611   2.790
 3034TIP3   OH2 9044   5.284   3.205   2.725
 3034TIP3    H1 9045   5.193   3.238   2.706
 3034TIP3    H2 9046   5.300   3.247   2.811
 3035TIP3   OH2 9047   5.521   3.184   2.585
 3035TIP3    H1 9048   5.434   3.195   2.629
 3035TIP3    H2 9049   5.502   3.215   2.495
 3036TIP3   OH2 9050   5.948   3.211   2.381
 3036TIP3    H1 9051   5.876   3.230   2.318
 3036TIP3    H2 9052   5.959   3.297   2.426
 3037TIP3   OH2 9053   6.216   3.150   2.433
 3037TIP3    H1 9054   6.122   3.167   2.414
 3037TIP3    H2 9055   6.260   3.227   2.393
 3038TIP3   OH2 9056   6.423   3.341   2.348
 3038TIP3    H1 9057   6.410   3.425   2.299
 3038TIP3    H2 9058   6.449   3.279   2.276
 3039TIP3   OH2 9059   5.198   2.996   2.469
 3039TIP3    H1 9060   5.223   2.969   2.560
 3039TIP3    H2 9061   5.270   2.952   2.419
 3040TIP3   OH2 9062   5.394   2.868   2.329
 3040TIP3    H1 9063   5.407   2.784   2.378
 3040TIP3    H2 9064   5.485   2.903   2.327
 3041TIP3   OH2 9065   5.661   2.960   2.334
 3041TIP3    H1 9066   5.689   2.866   2.326
 3041TIP3    H2 9067   5.708   2.983   2.416
 3042TIP3   OH2 9068   6.249   1.622   2.428
 3042TIP3    H1 9069   6.193   1.553   2.469
 3042TIP3    H2 9070   6.315   1.569   2.379
 3043TIP3   OH2 9071   6.754   1.497   2.320
 3043TIP3    H1 9072   6.791   1.552   2.247
 3043TIP3    H2 9073   6.659   1.519   2.315
 3044TIP3   OH2 9074   6.850   1.601   2.085
 3044TIP3    H1 9075   6.925   1.550   2.049
 3044TIP3    H2 9076   6.884   1.693   2.071
 3045TIP3   OH2 9077   5.481   1.327   2.432
 3045TIP3    H1 9078   5.388   1.294   2.437
 3045TIP3    H2 9079   5.530   1.242   2.429
 3046TIP3   OH2 9080   5.264   1.198   2.082
 3046TIP3    H1 9081   5.298   1.256   2.011
 3046TIP3    H2 9082   5.240   1.264   2.151
 3047TIP3   OH2 9083   5.925   1.360   2.317
 3047TIP3    H1 9084   5.980   1.408   2.253
 3047TIP3    H2 9085   5.950   1.402   2.400
 3048TIP3   OH2 9086   6.473   1.505   2.295
 3048TIP3    H1 9087   6.471   1.465   2.207
 3048TIP3    H2 9088   6.460   1.426   2.353
 3049TIP3   OH2 9089   6.502   1.432   1.861
 3049TIP3    H1 9090   6.417   1.476   1.878
 3049TIP3    H2 9091   6.488   1.347   1.908
 3050TIP3   OH2 9092   4.984   2.768   1.857
 3050TIP3    H1 9093   4.894   2.746   1.826
 3050TIP3    H2 9094   4.982   2.864   1.839
 3051TIP3   OH2 9095   5.388   1.358   1.843
 3051TIP3    H1 9096   5.437   1.294   1.787
 3051TIP3    H2 9097   5.462   1.412   1.879
 3052TIP3   OH2 9098   5.897   1.533   1.944
 3052TIP3    H1 9099   5.959   1.488   2.004
 3052TIP3    H2 9100   5.916   1.626   1.970
 3053TIP3   OH2 9101   5.756   2.952   1.440
 3053TIP3    H1 9102   5.840   2.981   1.400
 3053TIP3    H2 9103   5.736   2.875   1.382
 3054TIP3   OH2 9104   6.476   3.068   1.534
 3054TIP3    H1 9105   6.453   2.976   1.516
 3054TIP3    H2 9106   6.432   3.113   1.458
 3055TIP3   OH2 9107   5.688   1.607   3.324
 3055TIP3    H1 9108   5.653   1.537   3.382
 3055TIP3    H2 9109   5.782   1.607   3.352
 3056TIP3   OH2 9110   5.938   1.606   3.444
 3056TIP3    H1 9111   6.023   1.583   3.403
 3056TIP3    H2 9112   5.928   1.534   3.510
 3057TIP3   OH2 9113   5.055   2.781   1.499
 3057TIP3    H1 9114   5.060   2.820   1.588
 3057TIP3    H2 9115   5.147   2.748   1.485
 3058TIP3   OH2 9116   6.765   1.670   3.231
 3058TIP3    H1 9117   6.783   1.638   3.322
 3058TIP3    H2 9118   6.854   1.664   3.191
 3059TIP3   OH2 9119   6.703   3.220   2.722
 3059TIP3    H1 9120   6.623   3.189   2.674
 3059TIP3    H2 9121   6.681   3.315   2.730
 3060TIP3   OH2 9122   7.263   2.484   2.236
 3060TIP3    H1 9123   7.287   2.414   2.300
 3060TIP3    H2 9124   7.343   2.538   2.237
 3061TIP3   OH2 9125   7.237   2.900   1.960
 3061TIP3    H1 9126   7.229   2.802   1.961
 3061TIP3    H2 9127   7.333   2.910   1.953
 3062TIP3   OH2 9128   6.945   2.103   1.740
 3062TIP3    H1 9129   6.894   2.183   1.760
 3062TIP3    H2 9130   6.875   2.044   1.707
 3063TIP3   OH2 9131   7.003   2.386   1.920
 3063TIP3    H1 9132   7.050   2.307   1.957
 3063TIP3    H2 9133   7.063   2.413   1.850
 3064TIP3   OH2 9134   7.872   3.319   1.550
 3064TIP3    H1 9135   7.967   3.296   1.550
 3064TIP3    H2 9136   7.856   3.329   1.644
 3065TIP3   OH2 9137   7.768   2.810   1.919
 3065TIP3    H1 9138   7.777   2.773   1.830
 3065TIP3    H2 9139   7.850   2.863   1.929
 3066TIP3   OH2 9140   7.489   1.982   1.929
 3066TIP3    H1 9141   7.507   2.046   1.857
 3066TIP3    H2 9142   7.458   1.905   1.878
 3067TIP3   OH2 9143   7.152   2.182   2.021
 3067TIP3    H1 9144   7.232   2.161   2.074
 3067TIP3    H2 9145   7.169   2.126   1.942
 3068TIP3   OH2 9146   7.575   2.382   1.816
 3068TIP3    H1 9147   7.667   2.349   1.829
 3068TIP3    H2 9148   7.532   2.299   1.785
 3069TIP3   OH2 9149   7.516   1.971   2.361
 3069TIP3    H1 9150   7.457   2.001   2.290
 3069TIP3    H2 9151   7.461   1.989   2.439
 3070TIP3   OH2 9152   7.625   2.736   2.151
 3070TIP3    H1 9153   7.561   2.801   2.189
 3070TIP3    H2 9154   7.665   2.788   2.079
 3071TIP3   OH2 9155   7.378   2.083   2.148
 3071TIP3    H1 9156   7.445   2.150   2.168
 3071TIP3    H2 9157   7.420   2.039   2.070
 3072TIP3   OH2 9158   7.453   2.933   2.245
 3072TIP3    H1 9159   7.425   3.020   2.209
 3072TIP3    H2 9160   7.373   2.913   2.299
 3073TIP3   OH2 9161   6.840   2.627   1.479
 3073TIP3    H1 9162   6.808   2.659   1.393
 3073TIP3    H2 9163   6.877   2.709   1.518
 3074TIP3   OH2 9164   7.369   2.527   1.707
 3074TIP3    H1 9165   7.330   2.467   1.639
 3074TIP3    H2 9166   7.445   2.473   1.739
 3075TIP3   OH2 9167   7.501   2.941   1.853
 3075TIP3    H1 9168   7.477   2.906   1.766
 3075TIP3    H2 9169   7.585   2.896   1.873
 3076TIP3   OH2 9170   7.511   2.497   2.063
 3076TIP3    H1 9171   7.540   2.469   1.973
 3076TIP3    H2 9172   7.555   2.583   2.076
 3077TIP3   OH2 9173   7.650   3.056   2.398
 3077TIP3    H1 9174   7.583   3.117   2.437
 3077TIP3    H2 9175   7.591   2.999   2.345
 3078TIP3   OH2 9176   7.401   2.620   2.486
 3078TIP3    H1 9177   7.403   2.704   2.535
 3078TIP3    H2 9178   7.310   2.590   2.504
 3079TIP3   OH2 9179   7.737   3.102   1.428
 3079TIP3    H1 9180   7.767   3.190   1.455
 3079TIP3    H2 9181   7.679   3.121   1.352
 3080TIP3   OH2 9182   7.443   3.221   2.477
 3080TIP3    H1 9183   7.408   3.223   2.386
 3080TIP3    H2 9184   7.364   3.197   2.530
 3081TIP3   OH2 9185   7.246   2.367   1.511
 3081TIP3    H1 9186   7.175   2.405   1.455
 3081TIP3    H2 9187   7.210   2.280   1.533
 3082TIP3   OH2 9188   7.027   2.753   2.420
 3082TIP3    H1 9189   6.958   2.731   2.355
 3082TIP3    H2 9190   7.063   2.665   2.444
 3083TIP3   OH2 9191   6.880   2.949   2.044
 3083TIP3    H1 9192   6.976   2.938   2.044
 3083TIP3    H2 9193   6.869   3.021   2.107
 3084TIP3   OH2 9194   7.837   3.168   2.233
 3084TIP3    H1 9195   7.841   3.259   2.268
 3084TIP3    H2 9196   7.769   3.129   2.291
 3085TIP3   OH2 9197   7.611   3.304   1.198
 3085TIP3    H1 9198   7.569   3.289   1.112
 3085TIP3    H2 9199   7.581   3.395   1.220
 3086TIP3   OH2 9200   7.048   3.159   1.584
 3086TIP3    H1 9201   7.098   3.152   1.668
 3086TIP3    H2 9202   6.997   3.077   1.586
 3087TIP3   OH2 9203   7.878   3.270   1.134
 3087TIP3    H1 9204   7.785   3.282   1.161
 3087TIP3    H2 9205   7.892   3.176   1.152
 3088TIP3   OH2 9206   7.231   2.935   2.406
 3088TIP3    H1 9207   7.279   2.919   2.490
 3088TIP3    H2 9208   7.157   2.871   2.412
 3089TIP3   OH2 9209   7.614   1.747   2.219
 3089TIP3    H1 9210   7.528   1.725   2.179
 3089TIP3    H2 9211   7.595   1.835   2.256
 3090TIP3   OH2 9212   7.558   2.280   2.218
 3090TIP3    H1 9213   7.503   2.296   2.297
 3090TIP3    H2 9214   7.537   2.359   2.163
 3091TIP3   OH2 9215   7.446   2.162   1.720
 3091TIP3    H1 9216   7.357   2.128   1.746
 3091TIP3    H2 9217   7.458   2.117   1.634
 3092TIP3   OH2 9218   7.370   2.299   2.423
 3092TIP3    H1 9219   7.422   2.350   2.487
 3092TIP3    H2 9220   7.359   2.214   2.470
 3093TIP3   OH2 9221   7.400   1.729   1.125
 3093TIP3    H1 9222   7.411   1.755   1.218
 3093TIP3    H2 9223   7.354   1.805   1.088
 3094TIP3   OH2 9224   6.977   1.824   1.997
 3094TIP3    H1 9225   7.048   1.856   2.056
 3094TIP3    H2 9226   7.024   1.783   1.923
 3095TIP3   OH2 9227   6.940   1.802   1.522
 3095TIP3    H1 9228   6.987   1.842   1.446
 3095TIP3    H2 9229   6.879   1.875   1.543
 3096TIP3   OH2 9230   7.209   2.041   1.790
 3096TIP3    H1 9231   7.113   2.045   1.764
 3096TIP3    H2 9232   7.232   1.947   1.777
 3097TIP3   OH2 9233   7.485   2.037   1.476
 3097TIP3    H1 9234   7.567   2.046   1.427
 3097TIP3    H2 9235   7.419   2.051   1.403
 3098TIP3   OH2 9236   7.324   2.063   1.262
 3098TIP3    H1 9237   7.246   2.029   1.214
 3098TIP3    H2 9238   7.375   2.102   1.188
 3099TIP3   OH2 9239   7.394   2.861   2.631
 3099TIP3    H1 9240   7.471   2.892   2.681
 3099TIP3    H2 9241   7.328   2.853   2.702
 3100TIP3   OH2 9242   7.368   1.797   1.762
 3100TIP3    H1 9243   7.331   1.727   1.822
 3100TIP3    H2 9244   7.422   1.743   1.704
 3101TIP3   OH2 9245   7.827   2.206   2.219
 3101TIP3    H1 9246   7.734   2.230   2.200
 3101TIP3    H2 9247   7.870   2.292   2.230
 3102TIP3   OH2 9248   7.534   2.626   1.269
 3102TIP3    H1 9249   7.487   2.540   1.265
 3102TIP3    H2 9250   7.543   2.639   1.366
 3103TIP3   OH2 9251   7.920   2.883   2.303
 3103TIP3    H1 9252   7.976   2.871   2.379
 3103TIP3    H2 9253   7.917   2.980   2.292
 3104TIP3   OH2 9254   7.264   2.627   1.946
 3104TIP3    H1 9255   7.298   2.592   1.860
 3104TIP3    H2 9256   7.298   2.561   2.009
 3105TIP3   OH2 9257   7.675   2.743   1.065
 3105TIP3    H1 9258   7.650   2.834   1.091
 3105TIP3    H2 9259   7.644   2.693   1.143
 3106TIP3   OH2 9260   7.143   2.540   2.559
 3106TIP3    H1 9261   7.157   2.521   2.654
 3106TIP3    H2 9262   7.075   2.474   2.537
 3107TIP3   OH2 9263   7.873   2.653   2.577
 3107TIP3    H1 9264   7.815   2.607   2.515
 3107TIP3    H2 9265   7.956   2.605   2.562
 3108TIP3   OH2 9266   7.366   2.925   1.576
 3108TIP3    H1 9267   7.365   3.004   1.518
 3108TIP3    H2 9268   7.272   2.904   1.580
 3109TIP3   OH2 9269   6.923   2.231   1.272
 3109TIP3    H1 9270   6.972   2.312   1.298
 3109TIP3    H2 9271   6.849   2.232   1.337
 3110TIP3   OH2 9272   7.514   2.691   1.536
 3110TIP3    H1 9273   7.471   2.778   1.542
 3110TIP3    H2 9274   7.461   2.638   1.599
 3111TIP3   OH2 9275   7.631   3.264   2.039
 3111TIP3    H1 9276   7.667   3.340   1.991
 3111TIP3    H2 9277   7.709   3.232   2.088
 3112TIP3   OH2 9278   7.281   3.164   1.423
 3112TIP3    H1 9279   7.196   3.174   1.470
 3112TIP3    H2 9280   7.315   3.256   1.425
 3113TIP3   OH2 9281   7.348   2.050   2.568
 3113TIP3    H1 9282   7.251   2.048   2.578
 3113TIP3    H2 9283   7.375   1.987   2.637
 3114TIP3   OH2 9284   7.071   3.127   2.196
 3114TIP3    H1 9285   7.124   3.054   2.232
 3114TIP3    H2 9286   7.092   3.198   2.258
 3115TIP3   OH2 9287   7.355   2.773   0.885
 3115TIP3    H1 9288   7.359   2.680   0.857
 3115TIP3    H2 9289   7.337   2.764   0.981
 3116TIP3   OH2 9290   7.305   2.775   1.158
 3116TIP3    H1 9291   7.388   2.743   1.197
 3116TIP3    H2 9292   7.313   2.873   1.169
 3117TIP3   OH2 9293   7.037   2.470   1.359
 3117TIP3    H1 9294   6.973   2.517   1.416
 3117TIP3    H2 9295   7.055   2.539   1.292
 3118TIP3   OH2 9296   7.573   2.989   1.112
 3118TIP3    H1 9297   7.482   3.011   1.140
 3118TIP3    H2 9298   7.594   3.065   1.057
 3119TIP3   OH2 9299   7.311   3.052   1.170
 3119TIP3    H1 9300   7.281   3.122   1.109
 3119TIP3    H2 9301   7.299   3.096   1.257
 3120TIP3   OH2 9302   7.417   1.773   1.404
 3120TIP3    H1 9303   7.407   1.856   1.456
 3120TIP3    H2 9304   7.507   1.785   1.370
 3121TIP3   OH2 9305   7.028   2.678   1.160
 3121TIP3    H1 9306   7.099   2.744   1.174
 3121TIP3    H2 9307   7.074   2.622   1.094
 3122TIP3   OH2 9308   6.979   1.964   1.307
 3122TIP3    H1 9309   6.972   2.061   1.296
 3122TIP3    H2 9310   6.907   1.932   1.251
 3123TIP3   OH2 9311   7.347   1.680   2.169
 3123TIP3    H1 9312   7.333   1.641   2.080
 3123TIP3    H2 9313   7.347   1.600   2.226
 3124TIP3   OH2 9314   6.900   2.891   1.546
 3124TIP3    H1 9315   6.842   2.928   1.615
 3124TIP3    H2 9316   6.867   2.938   1.465
 3125TIP3   OH2 9317   7.062   3.442   2.618
 3125TIP3    H1 9318   7.148   3.441   2.666
 3125TIP3    H2 9319   7.039   3.347   2.621
 3126TIP3   OH2 9320   7.537   3.380   2.685
 3126TIP3    H1 9321   7.632   3.389   2.671
 3126TIP3    H2 9322   7.510   3.328   2.606
 3127TIP3   OH2 9323   7.515   2.976   0.793
 3127TIP3    H1 9324   7.454   2.905   0.826
 3127TIP3    H2 9325   7.601   2.935   0.813
 3128TIP3   OH2 9326   7.192   2.845   2.820
 3128TIP3    H1 9327   7.207   2.749   2.829
 3128TIP3    H2 9328   7.104   2.847   2.776
 3129TIP3   OH2 9329   7.172   2.493   1.015
 3129TIP3    H1 9330   7.227   2.463   1.089
 3129TIP3    H2 9331   7.240   2.497   0.944
 3130TIP3   OH2 9332   7.811   2.927   2.590
 3130TIP3    H1 9333   7.764   2.942   2.505
 3130TIP3    H2 9334   7.831   2.831   2.586
 3131TIP3   OH2 9335   7.664   2.673   0.808
 3131TIP3    H1 9336   7.684   2.710   0.898
 3131TIP3    H2 9337   7.591   2.616   0.833
 3132TIP3   OH2 9338   7.315   2.586   2.803
 3132TIP3    H1 9339   7.382   2.521   2.782
 3132TIP3    H2 9340   7.342   2.615   2.893
 3133TIP3   OH2 9341   7.371   2.396   1.232
 3133TIP3    H1 9342   7.348   2.355   1.317
 3133TIP3    H2 9343   7.416   2.323   1.185
 3134TIP3   OH2 9344   7.608   2.447   2.485
 3134TIP3    H1 9345   7.539   2.517   2.485
 3134TIP3    H2 9346   7.670   2.484   2.418
 3135TIP3   OH2 9347   7.481   2.188   1.072
 3135TIP3    H1 9348   7.451   2.201   0.980
 3135TIP3    H2 9349   7.573   2.160   1.053
 3136TIP3   OH2 9350   7.780   2.259   2.586
 3136TIP3    H1 9351   7.779   2.171   2.542
 3136TIP3    H2 9352   7.712   2.309   2.536
 3137TIP3   OH2 9353   7.781   2.032   2.421
 3137TIP3    H1 9354   7.789   2.079   2.336
 3137TIP3    H2 9355   7.693   1.989   2.408
 3138TIP3   OH2 9356   7.772   2.568   2.312
 3138TIP3    H1 9357   7.841   2.552   2.246
 3138TIP3    H2 9358   7.716   2.635   2.264
 3139TIP3   OH2 9359   7.653   2.362   2.822
 3139TIP3    H1 9360   7.585   2.293   2.837
 3139TIP3    H2 9361   7.685   2.340   2.733
 3140TIP3   OH2 9362   7.489   2.144   2.876
 3140TIP3    H1 9363   7.490   2.053   2.841
 3140TIP3    H2 9364   7.524   2.129   2.966
 3141TIP3   OH2 9365   7.276   3.256   0.985
 3141TIP3    H1 9366   7.372   3.250   0.973
 3141TIP3    H2 9367   7.253   3.308   0.905
 3142TIP3   OH2 9368   6.753   2.639   1.194
 3142TIP3    H1 9369   6.848   2.664   1.183
 3142TIP3    H2 9370   6.755   2.547   1.157
 3143TIP3   OH2 9371   6.681   3.246   1.616
 3143TIP3    H1 9372   6.617   3.184   1.576
 3143TIP3    H2 9373   6.726   3.188   1.681
 3144TIP3   OH2 9374   6.816   3.093   1.801
 3144TIP3    H1 9375   6.807   3.024   1.870
 3144TIP3    H2 9376   6.867   3.159   1.851
 3145TIP3   OH2 9377   6.999   2.510   2.170
 3145TIP3    H1 9378   6.997   2.473   2.079
 3145TIP3    H2 9379   7.096   2.509   2.188
 3146TIP3   OH2 9380   7.222   2.196   2.853
 3146TIP3    H1 9381   7.319   2.187   2.851
 3146TIP3    H2 9382   7.197   2.108   2.887
 3147TIP3   OH2 9383   7.174   1.891   2.178
 3147TIP3    H1 9384   7.231   1.812   2.184
 3147TIP3    H2 9385   7.241   1.961   2.175
 3148TIP3   OH2 9386   6.981   2.161   2.247
 3148TIP3    H1 9387   7.031   2.152   2.164
 3148TIP3    H2 9388   7.019   2.240   2.285
 3149TIP3   OH2 9389   6.965   1.657   1.748
 3149TIP3    H1 9390   6.874   1.656   1.780
 3149TIP3    H2 9391   6.960   1.718   1.672
 3150TIP3   OH2 9392   7.187   1.752   2.569
 3150TIP3    H1 9393   7.132   1.742   2.649
 3150TIP3    H2 9394   7.120   1.784   2.505
 3151TIP3   OH2 9395   7.227   3.169   2.646
 3151TIP3    H1 9396   7.135   3.146   2.622
 3151TIP3    H2 9397   7.227   3.148   2.740
 3152TIP3   OH2 9398   7.407   3.205   2.191
 3152TIP3    H1 9399   7.358   3.280   2.151
 3152TIP3    H2 9400   7.492   3.218   2.144
 3153TIP3   OH2 9401   7.837   3.432   2.332
 3153TIP3    H1 9402   7.885   3.444   2.417
 3153TIP3    H2 9403   7.884   3.494   2.271
 3154TIP3   OH2 9404   7.971   3.599   2.150
 3154TIP3    H1 9405   8.023   3.593   2.067
 3154TIP3    H2 9406   8.029   3.656   2.204
 3155TIP3   OH2 9407   7.081   3.463   2.212
 3155TIP3    H1 9408   6.990   3.494   2.191
 3155TIP3    H2 9409   7.093   3.503   2.299
 3156TIP3   OH2 9410   7.317   3.438   2.072
 3156TIP3    H1 9411   7.229   3.450   2.116
 3156TIP3    H2 9412   7.297   3.469   1.982
 3157TIP3   OH2 9413   7.714   3.474   1.874
 3157TIP3    H1 9414   7.642   3.486   1.809
 3157TIP3    H2 9415   7.727   3.565   1.905
 3158TIP3   OH2 9416   7.965   3.371   1.853
 3158TIP3    H1 9417   7.875   3.408   1.861
 3158TIP3    H2 9418   8.019   3.448   1.879
 3159TIP3   OH2 9419   6.993   3.254   1.957
 3159TIP3    H1 9420   7.019   3.225   2.047
 3159TIP3    H2 9421   7.064   3.210   1.905
 3160TIP3   OH2 9422   7.187   3.127   1.815
 3160TIP3    H1 9423   7.201   3.043   1.866
 3160TIP3    H2 9424   7.278   3.162   1.812
 3161TIP3   OH2 9425   7.453   3.221   1.820
 3161TIP3    H1 9426   7.481   3.128   1.806
 3161TIP3    H2 9427   7.502   3.240   1.903
 3162TIP3   OH2 9428   7.273   1.592   1.913
 3162TIP3    H1 9429   7.183   1.553   1.922
 3162TIP3    H2 9430   7.326   1.509   1.912
 3163TIP3   OH2 9431   7.056   1.454   1.575
 3163TIP3    H1 9432   7.083   1.513   1.502
 3163TIP3    H2 9433   7.032   1.519   1.644
 3164TIP3   OH2 9434   6.775   3.029   1.350
 3164TIP3    H1 9435   6.691   3.001   1.311
 3164TIP3    H2 9436   6.773   3.123   1.325
 3165TIP3   OH2 9437   7.180   1.614   1.337
 3165TIP3    H1 9438   7.232   1.540   1.303
 3165TIP3    H2 9439   7.250   1.674   1.369
 3166TIP3   OH2 9440   7.543   3.211   0.940
 3166TIP3    H1 9441   7.635   3.222   0.908
 3166TIP3    H2 9442   7.515   3.141   0.877
 3167TIP3   OH2 9443   7.476   1.869   2.807
 3167TIP3    H1 9444   7.442   1.797   2.862
 3167TIP3    H2 9445   7.570   1.869   2.835
 3168TIP3   OH2 9446   7.716   1.866   2.939
 3168TIP3    H1 9447   7.795   1.829   2.894
 3168TIP3    H2 9448   7.701   1.797   3.007
 3169TIP3   OH2 9449   6.855   3.044   0.987
 3169TIP3    H1 9450   6.868   3.076   1.077
 3169TIP3    H2 9451   6.942   3.003   0.967
 3170TIP3   OH2 9452   0.423   3.382   3.176
 3170TIP3    H1 9453   0.391   3.473   3.156
 3170TIP3    H2 9454   0.346   3.330   3.150
 3171TIP3   OH2 9455   0.419   3.381   3.566
 3171TIP3    H1 9456   0.456   3.356   3.653
 3171TIP3    H2 9457   0.377   3.298   3.538
 3172TIP3   OH2 9458  -0.249   3.262   3.888
 3172TIP3    H1 9459  -0.274   3.200   3.959
 3172TIP3    H2 9460  -0.204   3.331   3.937
 3173TIP3   OH2 9461   0.664   3.686   3.245
 3173TIP3    H1 9462   0.650   3.615   3.309
 3173TIP3    H2 9463   0.697   3.758   3.302
 3174TIP3   OH2 9464  -0.302   3.667   3.581
 3174TIP3    H1 9465  -0.320   3.572   3.602
 3174TIP3    H2 9466  -0.220   3.679   3.631
 3175TIP3   OH2 9467  -0.527   3.175   3.561
 3175TIP3    H1 9468  -0.498   3.125   3.639
 3175TIP3    H2 9469  -0.463   3.247   3.559
 3176TIP3   OH2 9470   0.317   4.144   3.265
 3176TIP3    H1 9471   0.357   4.077   3.206
 3176TIP3    H2 9472   0.316   4.097   3.349
 3177TIP3   OH2 9473   0.220   3.608   3.609
 3177TIP3    H1 9474   0.258   3.528   3.570
 3177TIP3    H2 9475   0.304   3.653   3.633
 3178TIP3   OH2 9476   1.234   2.926   3.612
 3178TIP3    H1 9477   1.264   3.010   3.654
 3178TIP3    H2 9478   1.255   2.944   3.519
 3179TIP3   OH2 9479   0.633   3.110   3.638
 3179TIP3    H1 9480   0.673   3.024   3.661
 3179TIP3    H2 9481   0.599   3.091   3.548
 3180TIP3   OH2 9482  -0.024   2.769   3.600
 3180TIP3    H1 9483  -0.049   2.841   3.540
 3180TIP3    H2 9484  -0.073   2.694   3.561
 3181TIP3   OH2 9485   0.667   2.858   3.226
 3181TIP3    H1 9486   0.738   2.843   3.294
 3181TIP3    H2 9487   0.721   2.893   3.154
 3182TIP3   OH2 9488  -0.392   2.972   3.715
 3182TIP3    H1 9489  -0.313   2.960   3.770
 3182TIP3    H2 9490  -0.365   2.926   3.634
 3183TIP3   OH2 9491   0.049   3.168   3.491
 3183TIP3    H1 9492   0.140   3.141   3.516
 3183TIP3    H2 9493   0.008   3.082   3.470
 3184TIP3   OH2 9494   1.309   3.141   3.771
 3184TIP3    H1 9495   1.224   3.184   3.748
 3184TIP3    H2 9496   1.297   3.135   3.867
 3185TIP3   OH2 9497  -0.028   2.753   4.046
 3185TIP3    H1 9498  -0.087   2.788   3.976
 3185TIP3    H2 9499  -0.085   2.764   4.124
 3186TIP3   OH2 9500   0.309   3.603   3.048
 3186TIP3    H1 9501   0.267   3.586   2.963
 3186TIP3    H2 9502   0.264   3.685   3.076
 3187TIP3   OH2 9503   0.072   3.533   3.837
 3187TIP3    H1 9504   0.012   3.598   3.879
 3187TIP3    H2 9505   0.112   3.584   3.763
 3188TIP3   OH2 9506   0.871   2.864   3.406
 3188TIP3    H1 9507   0.848   2.826   3.492
 3188TIP3    H2 9508   0.923   2.942   3.432
 3189TIP3   OH2 9509  -0.154   2.864   3.824
 3189TIP3    H1 9510  -0.094   2.937   3.852
 3189TIP3    H2 9511  -0.100   2.825   3.751
 3190TIP3   OH2 9512  -0.115   3.712   3.956
 3190TIP3    H1 9513  -0.177   3.761   3.898
 3190TIP3    H2 9514  -0.180   3.666   4.012
 3191TIP3   OH2 9515   0.732   3.929   3.410
 3191TIP3    H1 9516   0.641   3.919   3.448
 3191TIP3    H2 9517   0.723   4.015   3.364
 3192TIP3   OH2 9518   1.021   2.820   3.773
 3192TIP3    H1 9519   0.937   2.853   3.739
 3192TIP3    H2 9520   1.086   2.855   3.708
 3193TIP3   OH2 9521   0.327   2.468   3.756
 3193TIP3    H1 9522   0.309   2.375   3.782
 3193TIP3    H2 9523   0.249   2.511   3.799
 3194TIP3   OH2 9524   0.430   3.974   3.079
 3194TIP3    H1 9525   0.480   3.890   3.062
 3194TIP3    H2 9526   0.494   4.038   3.040
 3195TIP3   OH2 9527   0.576   3.758   2.994
 3195TIP3    H1 9528   0.539   3.677   2.957
 3195TIP3    H2 9529   0.615   3.725   3.079
 3196TIP3   OH2 9530   0.959   3.838   3.753
 3196TIP3    H1 9531   0.947   3.760   3.695
 3196TIP3    H2 9532   0.943   3.912   3.691
 3197TIP3   OH2 9533   0.251   3.232   3.012
 3197TIP3    H1 9534   0.172   3.285   2.990
 3197TIP3    H2 9535   0.299   3.230   2.928
 3198TIP3   OH2 9536   0.213   3.029   2.728
 3198TIP3    H1 9537   0.283   3.075   2.777
 3198TIP3    H2 9538   0.266   2.957   2.686
 3199TIP3   OH2 9539   1.155   3.481   3.599
 3199TIP3    H1 9540   1.071   3.531   3.603
 3199TIP3    H2 9541   1.185   3.503   3.508
 3200TIP3   OH2 9542   0.601   3.316   2.980
 3200TIP3    H1 9543   0.546   3.339   3.059
 3200TIP3    H2 9544   0.685   3.291   3.023
 3201TIP3   OH2 9545   0.834   3.352   3.899
 3201TIP3    H1 9546   0.830   3.435   3.951
 3201TIP3    H2 9547   0.748   3.355   3.853
 3202TIP3   OH2 9548  -0.164   3.308   3.395
 3202TIP3    H1 9549  -0.205   3.247   3.330
 3202TIP3    H2 9550  -0.085   3.256   3.424
 3203TIP3   OH2 9551  -0.017   3.744   3.538
 3203TIP3    H1 9552  -0.055   3.688   3.469
 3203TIP3    H2 9553   0.068   3.699   3.556
 3204TIP3   OH2 9554   0.020   3.275   3.749
 3204TIP3    H1 9555   0.023   3.265   3.653
 3204TIP3    H2 9556   0.028   3.371   3.765
 3205TIP3   OH2 9557   0.489   3.923   3.530
 3205TIP3    H1 9558   0.483   4.000   3.590
 3205TIP3    H2 9559   0.477   3.847   3.591
 3206TIP3   OH2 9560   0.100   3.847   4.072
 3206TIP3    H1 9561   0.046   3.901   4.132
 3206TIP3    H2 9562   0.032   3.790   4.032
 3207TIP3   OH2 9563   0.437   3.177   2.809
 3207TIP3    H1 9564   0.497   3.236   2.860
 3207TIP3    H2 9565   0.465   3.198   2.717
 3208TIP3   OH2 9566  -0.151   3.399   4.178
 3208TIP3    H1 9567  -0.145   3.481   4.232
 3208TIP3    H2 9568  -0.247   3.392   4.167
 3209TIP3   OH2 9569   0.183   3.852   3.081
 3209TIP3    H1 9570   0.267   3.901   3.091
 3209TIP3    H2 9571   0.125   3.917   3.042
 3210TIP3   OH2 9572  -0.122   4.020   4.166
 3210TIP3    H1 9573  -0.138   4.021   4.069
 3210TIP3    H2 9574  -0.195   3.964   4.198
 3211TIP3   OH2 9575   0.955   2.414   2.860
 3211TIP3    H1 9576   0.873   2.436   2.907
 3211TIP3    H2 9577   0.970   2.496   2.808
 3212TIP3   OH2 9578  -0.290   3.147   3.198
 3212TIP3    H1 9579  -0.360   3.184   3.140
 3212TIP3    H2 9580  -0.329   3.064   3.226
 3213TIP3   OH2 9581   0.755   3.779   2.406
 3213TIP3    H1 9582   0.765   3.876   2.391
 3213TIP3    H2 9583   0.848   3.749   2.393
 3214TIP3   OH2 9584   1.197   4.185   3.801
 3214TIP3    H1 9585   1.196   4.089   3.816
 3214TIP3    H2 9586   1.114   4.210   3.847
 3215TIP3   OH2 9587   0.300   3.972   3.931
 3215TIP3    H1 9588   0.298   4.063   3.967
 3215TIP3    H2 9589   0.229   3.930   3.985
 3216TIP3   OH2 9590   0.065   4.097   2.888
 3216TIP3    H1 9591   0.019   4.084   2.803
 3216TIP3    H2 9592   0.036   4.186   2.915
 3217TIP3   OH2 9593   0.265   4.000   2.524
 3217TIP3    H1 9594   0.325   3.930   2.489
 3217TIP3    H2 9595   0.300   4.012   2.615
 3218TIP3   OH2 9596   0.315   4.048   2.794
 3218TIP3    H1 9597   0.228   4.057   2.837
 3218TIP3    H2 9598   0.368   4.010   2.866
 3219TIP3   OH2 9599   1.086   3.318   4.077
 3219TIP3    H1 9600   1.003   3.326   4.028
 3219TIP3    H2 9601   1.109   3.224   4.060
 3220TIP3   OH2 9602   0.097   2.563   3.873
 3220TIP3    H1 9603   0.025   2.498   3.876
 3220TIP3    H2 9604   0.060   2.629   3.935
 3221TIP3   OH2 9605   0.618   2.653   4.074
 3221TIP3    H1 9606   0.682   2.629   4.143
 3221TIP3    H2 9607   0.532   2.636   4.117
 3222TIP3   OH2 9608   0.851   3.086   3.995
 3222TIP3    H1 9609   0.801   3.083   4.081
 3222TIP3    H2 9610   0.829   3.175   3.961
 3223TIP3   OH2 9611   0.514   3.223   2.555
 3223TIP3    H1 9612   0.480   3.200   2.467
 3223TIP3    H2 9613   0.601   3.261   2.532
 3224TIP3   OH2 9614   0.234   2.645   2.866
 3224TIP3    H1 9615   0.203   2.615   2.954
 3224TIP3    H2 9616   0.194   2.578   2.808
 3225TIP3   OH2 9617   0.017   3.059   3.909
 3225TIP3    H1 9618  -0.041   3.082   3.985
 3225TIP3    H2 9619   0.010   3.141   3.854
 3226TIP3   OH2 9620  -0.106   2.951   3.418
 3226TIP3    H1 9621  -0.199   2.926   3.435
 3226TIP3    H2 9622  -0.091   2.907   3.331
 3227TIP3   OH2 9623   0.389   3.032   3.147
 3227TIP3    H1 9624   0.338   3.103   3.103
 3227TIP3    H2 9625   0.445   2.999   3.074
 3228TIP3   OH2 9626   0.564   3.310   4.231
 3228TIP3    H1 9627   0.541   3.237   4.292
 3228TIP3    H2 9628   0.658   3.322   4.252
 3229TIP3   OH2 9629   0.546   3.059   3.382
 3229TIP3    H1 9630   0.482   3.085   3.313
 3229TIP3    H2 9631   0.582   2.979   3.338
 3230TIP3   OH2 9632  -0.158   3.080   4.121
 3230TIP3    H1 9633  -0.153   3.151   4.186
 3230TIP3    H2 9634  -0.168   3.001   4.177
 3231TIP3   OH2 9635  -0.560   2.629   3.703
 3231TIP3    H1 9636  -0.481   2.650   3.756
 3231TIP3    H2 9637  -0.524   2.577   3.631
 3232TIP3   OH2 9638   0.556   3.307   3.804
 3232TIP3    H1 9639   0.589   3.236   3.745
 3232TIP3    H2 9640   0.526   3.253   3.880
 3233TIP3   OH2 9641   0.230   2.770   3.478
 3233TIP3    H1 9642   0.149   2.767   3.532
 3233TIP3    H2 9643   0.299   2.762   3.546
 3234TIP3   OH2 9644  -0.340   2.819   3.481
 3234TIP3    H1 9645  -0.432   2.794   3.465
 3234TIP3    H2 9646  -0.293   2.734   3.468
 3235TIP3   OH2 9647  -0.067   2.820   3.184
 3235TIP3    H1 9648   0.029   2.833   3.167
 3235TIP3    H2 9649  -0.110   2.853   3.102
 3236TIP3   OH2 9650   0.712   2.847   3.676
 3236TIP3    H1 9651   0.684   2.859   3.769
 3236TIP3    H2 9652   0.643   2.786   3.645
 3237TIP3   OH2 9653  -0.218   2.885   2.970
 3237TIP3    H1 9654  -0.295   2.826   2.958
 3237TIP3    H2 9655  -0.183   2.896   2.880
 3238TIP3   OH2 9656   0.890   4.536   3.901
 3238TIP3    H1 9657   0.889   4.557   3.806
 3238TIP3    H2 9658   0.972   4.580   3.930
 3239TIP3   OH2 9659  -0.154   3.637   4.337
 3239TIP3    H1 9660  -0.079   3.666   4.391
 3239TIP3    H2 9661  -0.227   3.683   4.382
 3240TIP3   OH2 9662   0.307   3.101   3.577
 3240TIP3    H1 9663   0.380   3.056   3.532
 3240TIP3    H2 9664   0.307   3.058   3.665
 3241TIP3   OH2 9665  -0.180   2.591   3.453
 3241TIP3    H1 9666  -0.203   2.509   3.502
 3241TIP3    H2 9667  -0.137   2.555   3.374
 3242TIP3   OH2 9668   0.285   3.002   3.857
 3242TIP3    H1 9669   0.193   3.032   3.877
 3242TIP3    H2 9670   0.339   3.061   3.913
 3243TIP3   OH2 9671   0.020   3.385   2.956
 3243TIP3    H1 9672  -0.051   3.318   2.948
 3243TIP3    H2 9673   0.003   3.418   3.048
 3244TIP3   OH2 9674   0.919   3.623   3.587
 3244TIP3    H1 9675   0.944   3.673   3.506
 3244TIP3    H2 9676   0.836   3.579   3.560
 3245TIP3   OH2 9677   0.493   2.705   2.821
 3245TIP3    H1 9678   0.397   2.693   2.836
 3245TIP3    H2 9679   0.508   2.797   2.850
 3246TIP3   OH2 9680   0.425   3.707   3.955
 3246TIP3    H1 9681   0.449   3.677   4.043
 3246TIP3    H2 9682   0.382   3.793   3.971
 3247TIP3   OH2 9683   0.551   2.950   2.931
 3247TIP3    H1 9684   0.648   2.956   2.947
 3247TIP3    H2 9685   0.534   3.031   2.879
 3248TIP3   OH2 9686  -0.280   3.399   3.640
 3248TIP3    H1 9687  -0.233   3.350   3.570
 3248TIP3    H2 9688  -0.272   3.341   3.718
 3249TIP3   OH2 9689   0.163   3.535   2.777
 3249TIP3    H1 9690   0.116   3.621   2.784
 3249TIP3    H2 9691   0.112   3.480   2.841
 3250TIP3   OH2 9692   0.322   3.444   4.271
 3250TIP3    H1 9693   0.258   3.385   4.227
 3250TIP3    H2 9694   0.407   3.406   4.240
 3251TIP3   OH2 9695   0.579   3.973   3.849
 3251TIP3    H1 9696   0.484   3.962   3.865
 3251TIP3    H2 9697   0.607   4.020   3.931
 3252TIP3   OH2 9698   0.987   3.038   2.763
 3252TIP3    H1 9699   0.925   2.994   2.700
 3252TIP3    H2 9700   0.985   3.128   2.722
 3253TIP3   OH2 9701   1.210   3.897   3.841
 3253TIP3    H1 9702   1.112   3.889   3.834
 3253TIP3    H2 9703   1.236   3.865   3.752
 3254TIP3   OH2 9704   0.688   3.855   2.670
 3254TIP3    H1 9705   0.666   3.785   2.733
 3254TIP3    H2 9706   0.705   3.807   2.588
 3255TIP3   OH2 9707   0.686   3.485   3.502
 3255TIP3    H1 9708   0.593   3.459   3.517
 3255TIP3    H2 9709   0.720   3.404   3.460
 3256TIP3   OH2 9710  -0.183   3.710   3.254
 3256TIP3    H1 9711  -0.194   3.792   3.201
 3256TIP3    H2 9712  -0.264   3.707   3.306
 3257TIP3   OH2 9713   7.532   1.406   1.343
 3257TIP3    H1 9714   7.592   1.478   1.371
 3257TIP3    H2 9715   7.459   1.416   1.406
 3258TIP3   OH2 9716  -0.050   3.474   3.200
 3258TIP3    H1 9717  -0.085   3.562   3.220
 3258TIP3    H2 9718  -0.082   3.422   3.276
 3259TIP3   OH2 9719   0.093   4.059   3.730
 3259TIP3    H1 9720   0.140   4.126   3.676
 3259TIP3    H2 9721   0.168   4.016   3.775
 3260TIP3   OH2 9722  -0.270   3.956   3.115
 3260TIP3    H1 9723  -0.347   3.976   3.169
 3260TIP3    H2 9724  -0.227   4.044   3.113
 3261TIP3   OH2 9725   0.473   3.691   3.687
 3261TIP3    H1 9726   0.461   3.689   3.785
 3261TIP3    H2 9727   0.549   3.633   3.676
 3262TIP3   OH2 9728   0.449   3.585   2.575
 3262TIP3    H1 9729   0.506   3.559   2.651
 3262TIP3    H2 9730   0.362   3.556   2.607
 3263TIP3   OH2 9731   0.720   4.223   3.741
 3263TIP3    H1 9732   0.643   4.163   3.737
 3263TIP3    H2 9733   0.701   4.284   3.667
 3264TIP3   OH2 9734   0.786   4.056   2.391
 3264TIP3    H1 9735   0.825   4.130   2.342
 3264TIP3    H2 9736   0.706   4.100   2.425
 3265TIP3   OH2 9737  -0.190   2.822   4.266
 3265TIP3    H1 9738  -0.282   2.791   4.272
 3265TIP3    H2 9739  -0.149   2.767   4.336
 3266TIP3   OH2 9740   0.610   3.516   2.786
 3266TIP3    H1 9741   0.599   3.450   2.858
 3266TIP3    H2 9742   0.708   3.512   2.775
 3267TIP3   OH2 9743  -0.187   3.563   2.571
 3267TIP3    H1 9744  -0.175   3.468   2.550
 3267TIP3    H2 9745  -0.210   3.558   2.666
 3268TIP3   OH2 9746  -0.238   3.572   2.843
 3268TIP3    H1 9747  -0.164   3.540   2.897
 3268TIP3    H2 9748  -0.231   3.669   2.854
 3269TIP3   OH2 9749  -0.496   3.260   3.059
 3269TIP3    H1 9750  -0.516   3.319   3.132
 3269TIP3    H2 9751  -0.481   3.323   2.986
 3270TIP3   OH2 9752   0.645   2.895   3.937
 3270TIP3    H1 9753   0.726   2.936   3.973
 3270TIP3    H2 9754   0.635   2.814   3.992
 3271TIP3   OH2 9755   0.526   2.646   3.108
 3271TIP3    H1 9756   0.513   2.670   3.015
 3271TIP3    H2 9757   0.566   2.728   3.145
 3272TIP3   OH2 9758   0.024   3.766   2.789
 3272TIP3    H1 9759  -0.062   3.791   2.829
 3272TIP3    H2 9760   0.042   3.846   2.737
 3273TIP3   OH2 9761   0.210   2.829   3.209
 3273TIP3    H1 9762   0.275   2.901   3.192
 3273TIP3    H2 9763   0.217   2.820   3.307
 3274TIP3   OH2 9764   0.484   3.147   4.011
 3274TIP3    H1 9765   0.506   3.197   4.092
 3274TIP3    H2 9766   0.535   3.065   4.023
 3275TIP3   OH2 9767   0.359   2.551   3.311
 3275TIP3    H1 9768   0.351   2.629   3.369
 3275TIP3    H2 9769   0.418   2.586   3.241
 3276TIP3   OH2 9770  -0.231   3.843   2.863
 3276TIP3    H1 9771  -0.259   3.913   2.800
 3276TIP3    H2 9772  -0.249   3.886   2.950
 3277TIP3   OH2 9773  -0.122   2.553   3.125
 3277TIP3    H1 9774  -0.123   2.648   3.144
 3277TIP3    H2 9775  -0.026   2.539   3.111
 3278TIP3   OH2 9776   1.123   3.061   3.979
 3278TIP3    H1 9777   1.025   3.058   3.985
 3278TIP3    H2 9778   1.141   2.972   3.944
 3279TIP3   OH2 9779   0.772   3.242   3.383
 3279TIP3    H1 9780   0.696   3.182   3.396
 3279TIP3    H2 9781   0.844   3.194   3.430
 3280TIP3   OH2 9782  -0.504   3.476   2.889
 3280TIP3    H1 9783  -0.424   3.531   2.877
 3280TIP3    H2 9784  -0.490   3.416   2.812
 3281TIP3   OH2 9785   0.741   4.200   3.331
 3281TIP3    H1 9786   0.699   4.248   3.255
 3281TIP3    H2 9787   0.836   4.219   3.311
 3282TIP3   OH2 9788  -0.186   2.465   3.867
 3282TIP3    H1 9789  -0.196   2.400   3.796
 3282TIP3    H2 9790  -0.147   2.408   3.938
 3283TIP3   OH2 9791  -0.015   4.193   4.358
 3283TIP3    H1 9792   0.080   4.179   4.368
 3283TIP3    H2 9793  -0.038   4.128   4.289
 3284TIP3   OH2 9794  -0.025   3.763   2.479
 3284TIP3    H1 9795  -0.083   3.694   2.519
 3284TIP3    H2 9796   0.053   3.710   2.458
 3285TIP3   OH2 9797   0.630   4.098   4.090
 3285TIP3    H1 9798   0.623   4.027   4.158
 3285TIP3    H2 9799   0.710   4.147   4.120
 3286TIP3   OH2 9800   0.411   3.803   2.397
 3286TIP3    H1 9801   0.452   3.739   2.459
 3286TIP3    H2 9802   0.473   3.800   2.321
 3287TIP3   OH2 9803  -0.376   3.293   2.728
 3287TIP3    H1 9804  -0.314   3.257   2.794
 3287TIP3    H2 9805  -0.320   3.296   2.649
 3288TIP3   OH2 9806   0.247   3.718   4.285
 3288TIP3    H1 9807   0.209   3.730   4.196
 3288TIP3    H2 9808   0.281   3.626   4.281
 3289TIP3   OH2 9809   0.133   3.481   2.511
 3289TIP3    H1 9810   0.136   3.497   2.607
 3289TIP3    H2 9811   0.135   3.383   2.510
 3290TIP3   OH2 9812   0.744   3.730   3.893
 3290TIP3    H1 9813   0.819   3.773   3.849
 3290TIP3    H2 9814   0.673   3.794   3.875
 3291TIP3   OH2 9815  -0.240   3.361   4.507
 3291TIP3    H1 9816  -0.178   3.309   4.454
 3291TIP3    H2 9817  -0.183   3.399   4.576
 3292TIP3   OH2 9818  -0.172   3.186   2.922
 3292TIP3    H1 9819  -0.193   3.144   3.008
 3292TIP3    H2 9820  -0.137   3.110   2.872
 3293TIP3   OH2 9821   0.102   3.262   4.165
 3293TIP3    H1 9822   0.018   3.310   4.157
 3293TIP3    H2 9823   0.150   3.290   4.083
 3294TIP3   OH2 9824  -0.063   2.978   2.749
 3294TIP3    H1 9825  -0.056   2.940   2.660
 3294TIP3    H2 9826   0.033   2.992   2.766
 3295TIP3   OH2 9827   0.618   3.655   4.288
 3295TIP3    H1 9828   0.694   3.622   4.239
 3295TIP3    H2 9829   0.610   3.589   4.360
 3296TIP3   OH2 9830   0.747   3.312   2.434
 3296TIP3    H1 9831   0.729   3.265   2.350
 3296TIP3    H2 9832   0.713   3.401   2.410
 3297TIP3   OH2 9833   0.226   3.044   4.279
 3297TIP3    H1 9834   0.223   2.965   4.222
 3297TIP3    H2 9835   0.178   3.110   4.223
 3298TIP3   OH2 9836   0.229   2.831   4.088
 3298TIP3    H1 9837   0.253   2.869   4.002
 3298TIP3    H2 9838   0.135   2.806   4.073
 3299TIP3   OH2 9839   0.251   3.368   3.967
 3299TIP3    H1 9840   0.331   3.369   3.914
 3299TIP3    H2 9841   0.191   3.425   3.915
 3300TIP3   OH2 9842   0.832   3.326   4.341
 3300TIP3    H1 9843   0.878   3.243   4.357
 3300TIP3    H2 9844   0.902   3.381   4.303
 3301TIP3   OH2 9845   0.873   3.583   4.080
 3301TIP3    H1 9846   0.816   3.638   4.020
 3301TIP3    H2 9847   0.961   3.603   4.041
 3302TIP3   OH2 9848   0.103   3.160   4.513
 3302TIP3    H1 9849   0.043   3.084   4.522
 3302TIP3    H2 9850   0.135   3.147   4.422
 3303TIP3   OH2 9851   0.354   2.592   4.157
 3303TIP3    H1 9852   0.308   2.676   4.134
 3303TIP3    H2 9853   0.287   2.526   4.130
 3304TIP3   OH2 9854   0.482   3.093   4.373
 3304TIP3    H1 9855   0.467   3.077   4.468
 3304TIP3    H2 9856   0.393   3.070   4.339
 3305TIP3   OH2 9857   0.718   3.044   4.227
 3305TIP3    H1 9858   0.645   3.046   4.292
 3305TIP3    H2 9859   0.794   3.016   4.283
 3306TIP3   OH2 9860   0.941   2.983   4.376
 3306TIP3    H1 9861   0.959   2.889   4.395
 3306TIP3    H2 9862   0.946   3.024   4.465
 3307TIP3   OH2 9863  -0.045   2.938   4.566
 3307TIP3    H1 9864  -0.050   2.849   4.525
 3307TIP3    H2 9865  -0.012   2.914   4.656
 3308TIP3   OH2 9866   0.443   2.599   4.418
 3308TIP3    H1 9867   0.509   2.528   4.412
 3308TIP3    H2 9868   0.404   2.594   4.328
 3309TIP3   OH2 9869   0.517   2.815   4.573
 3309TIP3    H1 9870   0.494   2.745   4.509
 3309TIP3    H2 9871   0.439   2.875   4.567
 3310TIP3   OH2 9872  -0.261   4.033   2.668
 3310TIP3    H1 9873  -0.165   4.034   2.650
 3310TIP3    H2 9874  -0.292   4.093   2.598
 3311TIP3   OH2 9875   0.995   4.291   3.291
 3311TIP3    H1 9876   1.024   4.321   3.379
 3311TIP3    H2 9877   1.063   4.327   3.233
 3312TIP3   OH2 9878   1.023   4.308   3.574
 3312TIP3    H1 9879   0.979   4.221   3.570
 3312TIP3    H2 9880   1.100   4.285   3.628
 3313TIP3   OH2 9881   1.069   3.986   4.145
 3313TIP3    H1 9882   0.998   3.994   4.212
 3313TIP3    H2 9883   1.112   4.073   4.150
 3314TIP3   OH2 9884   0.887   3.498   2.764
 3314TIP3    H1 9885   0.955   3.562   2.734
 3314TIP3    H2 9886   0.932   3.460   2.844
 3315TIP3   OH2 9887   1.014   3.366   2.969
 3315TIP3    H1 9888   0.949   3.323   3.028
 3315TIP3    H2 9889   1.081   3.400   3.032
 3316TIP3   OH2 9890   1.071   3.759   3.399
 3316TIP3    H1 9891   1.124   3.691   3.354
 3316TIP3    H2 9892   1.067   3.830   3.332
 3317TIP3   OH2 9893   0.899   4.059   3.593
 3317TIP3    H1 9894   0.826   4.097   3.646
 3317TIP3    H2 9895   0.850   4.011   3.523
 3318TIP3   OH2 9896   0.952   3.274   2.614
 3318TIP3    H1 9897   0.880   3.275   2.547
 3318TIP3    H2 9898   0.924   3.349   2.670
 3319TIP3   OH2 9899   0.820   2.948   2.568
 3319TIP3    H1 9900   0.778   2.976   2.486
 3319TIP3    H2 9901   0.802   2.852   2.563
 3320TIP3   OH2 9902   0.826   3.224   3.114
 3320TIP3    H1 9903   0.836   3.127   3.106
 3320TIP3    H2 9904   0.812   3.236   3.210
 3321TIP3   OH2 9905   1.119   3.647   3.973
 3321TIP3    H1 9906   1.189   3.579   3.962
 3321TIP3    H2 9907   1.145   3.713   3.907
 3322TIP3   OH2 9908   1.303   3.449   3.981
 3322TIP3    H1 9909   1.228   3.401   4.022
 3322TIP3    H2 9910   1.374   3.383   3.997
 3323TIP3   OH2 9911   0.772   2.683   2.548
 3323TIP3    H1 9912   0.838   2.645   2.609
 3323TIP3    H2 9913   0.692   2.628   2.564
 3324TIP3   OH2 9914   0.826   2.940   3.006
 3324TIP3    H1 9915   0.866   2.851   3.021
 3324TIP3    H2 9916   0.885   2.972   2.935
 3325TIP3   OH2 9917   0.984   3.108   3.501
 3325TIP3    H1 9918   1.070   3.133   3.460
 3325TIP3    H2 9919   0.998   3.145   3.590
 3326TIP3   OH2 9920   1.054   3.257   3.726
 3326TIP3    H1 9921   0.979   3.289   3.781
 3326TIP3    H2 9922   1.088   3.340   3.687
 3327TIP3   OH2 9923  -0.305   2.912   4.665
 3327TIP3    H1 9924  -0.231   2.935   4.606
 3327TIP3    H2 9925  -0.380   2.943   4.611
 3328TIP3   OH2 9926   0.933   2.691   3.048
 3328TIP3    H1 9927   0.981   2.674   3.131
 3328TIP3    H2 9928   0.873   2.613   3.045
 3329TIP3   OH2 9929  -0.353   2.677   3.870
 3329TIP3    H1 9930  -0.294   2.598   3.881
 3329TIP3    H2 9931  -0.285   2.746   3.855
 3330TIP3   OH2 9932   1.013   2.621   2.685
 3330TIP3    H1 9933   1.050   2.552   2.626
 3330TIP3    H2 9934   1.080   2.692   2.678
 3331TIP3   OH2 9935   0.577   4.158   2.946
 3331TIP3    H1 9936   0.629   4.145   2.863
 3331TIP3    H2 9937   0.633   4.220   2.994
 3332TIP3   OH2 9938  -0.392   2.564   4.256
 3332TIP3    H1 9939  -0.406   2.540   4.348
 3332TIP3    H2 9940  -0.471   2.616   4.234
 3333TIP3   OH2 9941  -0.142   4.031   3.882
 3333TIP3    H1 9942  -0.157   4.101   3.816
 3333TIP3    H2 9943  -0.052   4.004   3.857
 3334TIP3   OH2 9944   0.300   4.237   4.017
 3334TIP3    H1 9945   0.344   4.233   4.105
 3334TIP3    H2 9946   0.368   4.287   3.966
 3335TIP3   OH2 9947   0.480   4.391   3.876
 3335TIP3    H1 9948   0.549   4.337   3.834
 3335TIP3    H2 9949   0.534   4.446   3.937
 3336TIP3   OH2 9950  -0.228   4.253   3.731
 3336TIP3    H1 9951  -0.259   4.341   3.760
 3336TIP3    H2 9952  -0.284   4.235   3.654
 3337TIP3   OH2 9953   0.198   4.255   3.563
 3337TIP3    H1 9954   0.148   4.276   3.482
 3337TIP3    H2 9955   0.212   4.344   3.601
 3338TIP3   OH2 9956   0.466   4.195   3.614
 3338TIP3    H1 9957   0.373   4.212   3.591
 3338TIP3    H2 9958   0.512   4.266   3.566
 3339TIP3   OH2 9959   0.667   4.384   3.523
 3339TIP3    H1 9960   0.656   4.468   3.474
 3339TIP3    H2 9961   0.697   4.324   3.452
 3340TIP3   OH2 9962  -0.355   3.918   3.496
 3340TIP3    H1 9963  -0.350   3.827   3.534
 3340TIP3    H2 9964  -0.262   3.944   3.500
 3341TIP3   OH2 9965  -0.078   4.014   3.511
 3341TIP3    H1 9966  -0.055   3.919   3.495
 3341TIP3    H2 9967  -0.027   4.027   3.593
 3342TIP3   OH2 9968   0.476   2.663   3.595
 3342TIP3    H1 9969   0.434   2.595   3.651
 3342TIP3    H2 9970   0.551   2.616   3.555
 3343TIP3   OH2 9971   1.004   2.531   3.501
 3343TIP3    H1 9972   1.045   2.587   3.431
 3343TIP3    H2 9973   0.912   2.563   3.499
 3344TIP3   OH2 9974   1.098   2.642   3.266
 3344TIP3    H1 9975   1.171   2.592   3.224
 3344TIP3    H2 9976   1.130   2.734   3.251
 3345TIP3   OH2 9977  -0.287   2.364   3.584
 3345TIP3    H1 9978  -0.360   2.312   3.620
 3345TIP3    H2 9979  -0.216   2.296   3.591
 3346TIP3   OH2 9980   0.172   2.411   3.490
 3346TIP3    H1 9981   0.233   2.462   3.435
 3346TIP3    H2 9982   0.193   2.441   3.579
 3347TIP3   OH2 9983   0.720   2.560   3.472
 3347TIP3    H1 9984   0.717   2.523   3.382
 3347TIP3    H2 9985   0.711   2.480   3.528
 3348TIP3   OH2 9986   0.751   2.478   3.040
 3348TIP3    H1 9987   0.664   2.520   3.053
 3348TIP3    H2 9988   0.735   2.391   3.083
 3349TIP3   OH2 9989   0.155   2.576   3.122
 3349TIP3    H1 9990   0.209   2.530   3.189
 3349TIP3    H2 9991   0.172   2.669   3.149
 3350TIP3   OH2 9992   0.008   3.998   2.621
 3350TIP3    H1 9993   0.096   4.021   2.584
 3350TIP3    H2 9994  -0.015   3.924   2.561
 3351TIP3   OH2 9995   0.724   4.122   2.714
 3351TIP3    H1 9996   0.716   4.024   2.703
 3351TIP3    H2 9997   0.679   4.152   2.633
 3352TIP3   OH2 9998  -0.068   2.672   4.498
 3352TIP3    H1 9999  -0.108   2.593   4.536
 3352TIP3    H210000   0.025   2.659   4.527
 3353TIP3   OH210001   0.188   2.636   4.615
 3353TIP3    H110002   0.275   2.644   4.574
 3353TIP3    H210003   0.181   2.540   4.625
 3354TIP3   OH210004   1.018   2.715   4.411
 3354TIP3    H110005   1.029   2.684   4.504
 3354TIP3    H210006   1.109   2.710   4.379
 3355TIP3   OH210007   0.949   4.265   3.901
 3355TIP3    H110008   0.871   4.235   3.850
 3355TIP3    H210009   0.929   4.361   3.907
 3356TIP3   OH210010   2.219   3.640   2.664
 3356TIP3    H110011   2.186   3.730   2.642
 3356TIP3    H210012   2.144   3.586   2.632
 3357TIP3   OH210013   2.216   3.639   3.053
 3357TIP3    H110014   2.252   3.612   3.139
 3357TIP3    H210015   2.177   3.557   3.020
 3358TIP3   OH210016   1.513   3.530   3.415
 3358TIP3    H110017   1.542   3.461   3.476
 3358TIP3    H210018   1.594   3.583   3.406
 3359TIP3   OH210019   2.463   3.942   2.731
 3359TIP3    H110020   2.445   3.872   2.794
 3359TIP3    H210021   2.492   4.015   2.788
 3360TIP3   OH210022   1.488   3.943   3.135
 3360TIP3    H110023   1.480   3.845   3.136
 3360TIP3    H210024   1.585   3.952   3.129
 3361TIP3   OH210025   1.194   3.143   2.918
 3361TIP3    H110026   1.146   3.226   2.936
 3361TIP3    H210027   1.123   3.091   2.877
 3362TIP3   OH210028   1.251   3.431   3.098
 3362TIP3    H110029   1.300   3.353   3.132
 3362TIP3    H210030   1.313   3.466   3.032
 3363TIP3   OH210031   2.113   4.403   2.748
 3363TIP3    H110032   2.155   4.331   2.697
 3363TIP3    H210033   2.101   4.362   2.834
 3364TIP3   OH210034   2.014   3.864   3.097
 3364TIP3    H110035   2.054   3.786   3.055
 3364TIP3    H210036   2.097   3.911   3.121
 3365TIP3   OH210037   3.034   3.184   3.092
 3365TIP3    H110038   3.061   3.267   3.137
 3365TIP3    H210039   3.050   3.207   2.999
 3366TIP3   OH210040   2.427   3.365   3.125
 3366TIP3    H110041   2.470   3.280   3.147
 3366TIP3    H210042   2.395   3.347   3.035
 3367TIP3   OH210043   1.767   3.024   3.093
 3367TIP3    H110044   1.749   3.096   3.029
 3367TIP3    H210045   1.720   2.950   3.049
 3368TIP3   OH210046   2.464   3.116   2.715
 3368TIP3    H110047   2.536   3.100   2.780
 3368TIP3    H210048   2.517   3.147   2.639
 3369TIP3   OH210049   1.400   3.226   3.199
 3369TIP3    H110050   1.483   3.207   3.248
 3369TIP3    H210051   1.414   3.170   3.120
 3370TIP3   OH210052   1.839   3.423   2.998
 3370TIP3    H110053   1.933   3.399   3.008
 3370TIP3    H210054   1.801   3.339   2.964
 3371TIP3   OH210055   3.095   3.403   3.249
 3371TIP3    H110056   3.004   3.440   3.243
 3371TIP3    H210057   3.109   3.402   3.344
 3372TIP3   OH210058   1.761   3.008   3.528
 3372TIP3    H110059   1.700   3.045   3.462
 3372TIP3    H210060   1.709   3.024   3.610
 3373TIP3   OH210061   2.107   3.860   2.533
 3373TIP3    H110062   2.064   3.842   2.449
 3373TIP3    H210063   2.061   3.942   2.561
 3374TIP3   OH210064   1.869   3.784   3.319
 3374TIP3    H110065   1.809   3.852   3.356
 3374TIP3    H210066   1.911   3.832   3.245
 3375TIP3   OH210067   2.670   3.120   2.893
 3375TIP3    H110068   2.656   3.074   2.976
 3375TIP3    H210069   2.721   3.199   2.920
 3376TIP3   OH210070   1.634   3.123   3.311
 3376TIP3    H110071   1.697   3.195   3.335
 3376TIP3    H210072   1.683   3.083   3.236
 3377TIP3   OH210073   1.699   3.980   3.421
 3377TIP3    H110074   1.673   4.067   3.384
 3377TIP3    H210075   1.619   3.962   3.475
 3378TIP3   OH210076   1.088   3.669   2.656
 3378TIP3    H110077   1.049   3.698   2.571
 3378TIP3    H210078   1.122   3.753   2.692
 3379TIP3   OH210079   2.530   4.186   2.896
 3379TIP3    H110080   2.441   4.175   2.935
 3379TIP3    H210081   2.520   4.272   2.850
 3380TIP3   OH210082   2.808   3.121   3.260
 3380TIP3    H110083   2.722   3.130   3.217
 3380TIP3    H210084   2.872   3.132   3.187
 3381TIP3   OH210085   2.107   2.738   3.226
 3381TIP3    H110086   2.109   2.647   3.259
 3381TIP3    H210087   2.030   2.773   3.277
 3382TIP3   OH210088   2.229   4.228   2.567
 3382TIP3    H110089   2.279   4.145   2.549
 3382TIP3    H210090   2.292   4.293   2.528
 3383TIP3   OH210091   2.375   4.014   2.479
 3383TIP3    H110092   2.333   3.934   2.445
 3383TIP3    H210093   2.413   3.980   2.564
 3384TIP3   OH210094   2.755   4.095   3.240
 3384TIP3    H110095   2.742   4.017   3.181
 3384TIP3    H210096   2.737   4.169   3.178
 3385TIP3   OH210097   2.049   3.490   2.499
 3385TIP3    H110098   1.969   3.542   2.476
 3385TIP3    H210099   2.094   3.485   2.413
 3386TIP3   OH210100   2.004   3.277   2.210
 3386TIP3    H110101   2.072   3.327   2.259
 3386TIP3    H210102   2.061   3.212   2.163
 3387TIP3   OH210103   2.952   3.739   3.088
 3387TIP3    H110104   2.866   3.787   3.091
 3387TIP3    H210105   2.980   3.761   2.996
 3388TIP3   OH210106   2.397   3.574   2.467
 3388TIP3    H110107   2.342   3.596   2.545
 3388TIP3    H210108   2.480   3.547   2.511
 3389TIP3   OH210109   2.628   3.612   3.385
 3389TIP3    H110110   2.624   3.694   3.437
 3389TIP3    H210111   2.542   3.614   3.339
 3390TIP3   OH210112   1.628   3.569   2.887
 3390TIP3    H110113   1.587   3.511   2.820
 3390TIP3    H210114   1.704   3.514   2.917
 3391TIP3   OH210115   1.758   3.981   3.034
 3391TIP3    H110116   1.738   3.944   2.947
 3391TIP3    H210117   1.847   3.945   3.051
 3392TIP3   OH210118   1.761   3.541   3.241
 3392TIP3    H110119   1.795   3.514   3.153
 3392TIP3    H210120   1.807   3.626   3.257
 3393TIP3   OH210121   2.290   4.179   3.017
 3393TIP3    H110122   2.276   4.259   3.071
 3393TIP3    H210123   2.273   4.106   3.080
 3394TIP3   OH210124   1.902   4.097   3.567
 3394TIP3    H110125   1.839   4.158   3.610
 3394TIP3    H210126   1.840   4.043   3.514
 3395TIP3   OH210127   2.232   3.433   2.295
 3395TIP3    H110128   2.293   3.492   2.345
 3395TIP3    H210129   2.259   3.454   2.202
 3396TIP3   OH210130   1.657   3.652   3.668
 3396TIP3    H110131   1.660   3.740   3.711
 3396TIP3    H210132   1.563   3.630   3.681
 3397TIP3   OH210133   1.980   4.107   2.571
 3397TIP3    H110134   2.063   4.159   2.580
 3397TIP3    H210135   1.920   4.171   2.529
 3398TIP3   OH210136   1.696   4.263   3.652
 3398TIP3    H110137   1.661   4.267   3.561
 3398TIP3    H210138   1.615   4.241   3.704
 3399TIP3   OH210139   1.494   3.413   2.691
 3399TIP3    H110140   1.424   3.454   2.635
 3399TIP3    H210141   1.461   3.324   2.702
 3400TIP3   OH210142   2.551   4.037   1.892
 3400TIP3    H110143   2.560   4.133   1.878
 3400TIP3    H210144   2.643   4.007   1.880
 3401TIP3   OH210145   1.274   3.796   3.599
 3401TIP3    H110146   1.208   3.774   3.531
 3401TIP3    H210147   1.312   3.709   3.622
 3402TIP3   OH210148   1.130   3.991   3.227
 3402TIP3    H110149   1.226   3.980   3.219
 3402TIP3    H210150   1.124   4.066   3.287
 3403TIP3   OH210151   2.993   4.442   3.288
 3403TIP3    H110152   2.992   4.346   3.303
 3403TIP3    H210153   2.910   4.468   3.334
 3404TIP3   OH210154   2.100   4.224   3.424
 3404TIP3    H110155   2.096   4.317   3.454
 3404TIP3    H210156   2.026   4.185   3.477
 3405TIP3   OH210157   1.863   4.354   2.373
 3405TIP3    H110158   1.815   4.337   2.291
 3405TIP3    H210159   1.828   4.441   2.401
 3406TIP3   OH210160   1.298   4.203   2.760
 3406TIP3    H110161   1.346   4.195   2.845
 3406TIP3    H210162   1.247   4.120   2.760
 3407TIP3   OH210163   2.061   4.257   2.012
 3407TIP3    H110164   2.120   4.186   1.976
 3407TIP3    H210165   2.095   4.267   2.103
 3408TIP3   OH210166   2.113   4.305   2.281
 3408TIP3    H110167   2.025   4.315   2.323
 3408TIP3    H210168   2.164   4.266   2.354
 3409TIP3   OH210169   2.883   3.571   3.560
 3409TIP3    H110170   2.799   3.578   3.513
 3409TIP3    H210171   2.902   3.475   3.551
 3410TIP3   OH210172   1.478   3.980   3.583
 3410TIP3    H110173   1.528   3.962   3.666
 3410TIP3    H210174   1.404   3.915   3.591
 3411TIP3   OH210175   1.878   2.803   3.375
 3411TIP3    H110176   1.790   2.774   3.343
 3411TIP3    H210177   1.852   2.885   3.421
 3412TIP3   OH210178   2.408   2.914   3.563
 3412TIP3    H110179   2.465   2.891   3.638
 3412TIP3    H210180   2.319   2.893   3.598
 3413TIP3   OH210181   2.650   3.349   3.487
 3413TIP3    H110182   2.598   3.344   3.570
 3413TIP3    H210183   2.624   3.435   3.450
 3414TIP3   OH210184   2.312   3.476   2.040
 3414TIP3    H110185   2.276   3.450   1.953
 3414TIP3    H210186   2.396   3.518   2.014
 3415TIP3   OH210187   2.024   2.851   2.345
 3415TIP3    H110188   1.992   2.848   2.437
 3415TIP3    H210189   1.982   2.770   2.310
 3416TIP3   OH210190   1.811   3.319   3.391
 3416TIP3    H110191   1.760   3.339   3.472
 3416TIP3    H210192   1.794   3.400   3.338
 3417TIP3   OH210193   1.694   3.205   2.904
 3417TIP3    H110194   1.602   3.177   2.923
 3417TIP3    H210195   1.706   3.164   2.816
 3418TIP3   OH210196   2.186   3.289   2.635
 3418TIP3    H110197   2.135   3.359   2.589
 3418TIP3    H210198   2.240   3.252   2.562
 3419TIP3   OH210199   2.361   3.568   3.719
 3419TIP3    H110200   2.338   3.494   3.780
 3419TIP3    H210201   2.455   3.578   3.740
 3420TIP3   OH210202   2.341   3.316   2.868
 3420TIP3    H110203   2.278   3.339   2.797
 3420TIP3    H210204   2.379   3.235   2.826
 3421TIP3   OH210205   1.629   3.346   3.598
 3421TIP3    H110206   1.659   3.407   3.667
 3421TIP3    H210207   1.616   3.263   3.649
 3422TIP3   OH210208   1.679   2.825   2.307
 3422TIP3    H110209   1.671   2.822   2.405
 3422TIP3    H210210   1.601   2.877   2.283
 3423TIP3   OH210211   1.222   2.865   3.180
 3423TIP3    H110212   1.297   2.900   3.233
 3423TIP3    H210213   1.264   2.837   3.098
 3424TIP3   OH210214   1.189   2.848   2.699
 3424TIP3    H110215   1.236   2.884   2.621
 3424TIP3    H210216   1.129   2.922   2.717
 3425TIP3   OH210217   2.352   3.562   3.292
 3425TIP3    H110218   2.385   3.491   3.232
 3425TIP3    H210219   2.322   3.508   3.368
 3426TIP3   OH210220   2.027   3.030   2.965
 3426TIP3    H110221   1.946   3.023   3.018
 3426TIP3    H210222   2.097   3.021   3.032
 3427TIP3   OH210223   1.456   3.083   2.972
 3427TIP3    H110224   1.362   3.089   2.943
 3427TIP3    H210225   1.481   2.991   2.948
 3428TIP3   OH210226   1.719   3.078   2.664
 3428TIP3    H110227   1.814   3.090   2.645
 3428TIP3    H210228   1.676   3.099   2.578
 3429TIP3   OH210229   2.514   3.104   3.167
 3429TIP3    H110230   2.483   3.116   3.259
 3429TIP3    H210231   2.446   3.043   3.133
 3430TIP3   OH210232   1.569   3.115   2.438
 3430TIP3    H110233   1.499   3.068   2.389
 3430TIP3    H210234   1.622   3.151   2.363
 3431TIP3   OH210235   2.687   4.791   3.388
 3431TIP3    H110236   2.684   4.816   3.294
 3431TIP3    H210237   2.766   4.839   3.419
 3432TIP3   OH210238   1.641   3.903   3.806
 3432TIP3    H110239   1.720   3.932   3.855
 3432TIP3    H210240   1.576   3.898   3.878
 3433TIP3   OH210241   2.104   3.358   3.063
 3433TIP3    H110242   2.175   3.316   3.011
 3433TIP3    H210243   2.110   3.310   3.148
 3434TIP3   OH210244   1.624   2.843   2.942
 3434TIP3    H110245   1.590   2.765   2.991
 3434TIP3    H210246   1.681   2.801   2.876
 3435TIP3   OH210247   2.081   3.254   3.351
 3435TIP3    H110248   1.991   3.290   3.366
 3435TIP3    H210249   2.138   3.315   3.402
 3436TIP3   OH210250   1.815   3.642   2.445
 3436TIP3    H110251   1.744   3.576   2.434
 3436TIP3    H210252   1.796   3.675   2.536
 3437TIP3   OH210253   2.715   3.879   3.074
 3437TIP3    H110254   2.738   3.929   2.993
 3437TIP3    H210255   2.631   3.834   3.048
 3438TIP3   OH210256   2.267   2.965   2.290
 3438TIP3    H110257   2.178   2.937   2.318
 3438TIP3    H210258   2.281   3.047   2.342
 3439TIP3   OH210259   2.217   3.961   3.442
 3439TIP3    H110260   2.239   3.938   3.533
 3439TIP3    H210261   2.177   4.050   3.451
 3440TIP3   OH210262   2.343   3.204   2.418
 3440TIP3    H110263   2.440   3.206   2.432
 3440TIP3    H210264   2.327   3.283   2.364
 3441TIP3   OH210265   1.511   3.666   3.121
 3441TIP3    H110266   1.549   3.636   3.035
 3441TIP3    H210267   1.555   3.606   3.183
 3442TIP3   OH210268   1.962   3.791   2.269
 3442TIP3    H110269   1.913   3.877   2.273
 3442TIP3    H210270   1.908   3.736   2.329
 3443TIP3   OH210271   1.392   3.584   3.736
 3443TIP3    H110272   1.408   3.568   3.831
 3443TIP3    H210273   1.324   3.517   3.717
 3444TIP3   OH210274   2.119   3.702   3.753
 3444TIP3    H110275   2.058   3.641   3.710
 3444TIP3    H210276   2.205   3.664   3.727
 3445TIP3   OH210277   2.376   4.222   3.341
 3445TIP3    H110278   2.280   4.218   3.354
 3445TIP3    H210279   2.403   4.276   3.418
 3446TIP3   OH210280   2.789   3.292   2.245
 3446TIP3    H110281   2.726   3.246   2.185
 3446TIP3    H210282   2.782   3.382   2.206
 3447TIP3   OH210283   3.006   4.152   3.328
 3447TIP3    H110284   2.908   4.145   3.320
 3447TIP3    H210285   3.032   4.121   3.238
 3448TIP3   OH210286   2.490   4.112   2.159
 3448TIP3    H110287   2.460   4.044   2.221
 3448TIP3    H210288   2.500   4.063   2.075
 3449TIP3   OH210289   2.483   3.741   2.991
 3449TIP3    H110290   2.389   3.716   3.004
 3449TIP3    H210291   2.516   3.660   2.947
 3450TIP3   OH210292   1.613   3.970   2.749
 3450TIP3    H110293   1.610   4.050   2.693
 3450TIP3    H210294   1.519   3.951   2.760
 3451TIP3   OH210295   1.175   3.272   2.452
 3451TIP3    H110296   1.221   3.356   2.475
 3451TIP3    H210297   1.099   3.275   2.514
 3452TIP3   OH210298   1.744   3.732   2.689
 3452TIP3    H110299   1.711   3.822   2.710
 3452TIP3    H210300   1.711   3.681   2.765
 3453TIP3   OH210301   1.881   4.311   3.216
 3453TIP3    H110302   1.922   4.385   3.166
 3453TIP3    H210303   1.958   4.274   3.261
 3454TIP3   OH210304   1.529   4.209   2.598
 3454TIP3    H110305   1.444   4.217   2.646
 3454TIP3    H210306   1.562   4.301   2.602
 3455TIP3   OH210307   2.267   3.947   3.175
 3455TIP3    H110308   2.257   3.944   3.273
 3455TIP3    H210309   2.344   3.890   3.163
 3456TIP3   OH210310   2.245   3.843   2.059
 3456TIP3    H110311   2.299   3.816   2.137
 3456TIP3    H210312   2.158   3.811   2.087
 3457TIP3   OH210313   2.516   4.477   3.225
 3457TIP3    H110314   2.436   4.422   3.219
 3457TIP3    H210315   2.500   4.542   3.153
 3458TIP3   OH210316   2.583   4.313   1.877
 3458TIP3    H110317   2.619   4.388   1.826
 3458TIP3    H210318   2.502   4.355   1.912
 3459TIP3   OH210319   1.600   3.090   3.742
 3459TIP3    H110320   1.504   3.095   3.757
 3459TIP3    H210321   1.628   3.034   3.817
 3460TIP3   OH210322   2.406   3.773   2.272
 3460TIP3    H110323   2.394   3.707   2.344
 3460TIP3    H210324   2.503   3.768   2.261
 3461TIP3   OH210325   1.317   4.173   3.375
 3461TIP3    H110326   1.372   4.102   3.412
 3461TIP3    H210327   1.346   4.249   3.428
 3462TIP3   OH210328   1.607   3.819   2.059
 3462TIP3    H110329   1.622   3.726   2.033
 3462TIP3    H210330   1.587   3.809   2.154
 3463TIP3   OH210331   1.551   3.825   2.331
 3463TIP3    H110332   1.626   3.796   2.385
 3463TIP3    H210333   1.557   3.923   2.340
 3464TIP3   OH210334   1.286   3.516   2.535
 3464TIP3    H110335   1.220   3.561   2.591
 3464TIP3    H210336   1.301   3.584   2.467
 3465TIP3   OH210337   2.440   3.156   3.427
 3465TIP3    H110338   2.524   3.191   3.463
 3465TIP3    H210339   2.428   3.073   3.480
 3466TIP3   OH210340   2.285   2.928   2.598
 3466TIP3    H110341   2.318   2.912   2.509
 3466TIP3    H210342   2.346   2.997   2.630
 3467TIP3   OH210343   1.820   4.021   2.278
 3467TIP3    H110344   1.733   4.045   2.315
 3467TIP3    H210345   1.836   4.097   2.220
 3468TIP3   OH210346   1.999   3.089   2.695
 3468TIP3    H110347   2.070   3.154   2.676
 3468TIP3    H210348   2.010   3.078   2.792
 3469TIP3   OH210349   2.280   3.401   3.499
 3469TIP3    H110350   2.304   3.450   3.580
 3469TIP3    H210351   2.333   3.320   3.507
 3470TIP3   OH210352   2.151   2.806   2.799
 3470TIP3    H110353   2.145   2.884   2.856
 3470TIP3    H210354   2.203   2.845   2.724
 3471TIP3   OH210355   1.566   4.097   2.348
 3471TIP3    H110356   1.535   4.168   2.287
 3471TIP3    H210357   1.549   4.140   2.435
 3472TIP3   OH210358   1.665   2.812   2.583
 3472TIP3    H110359   1.662   2.901   2.623
 3472TIP3    H210360   1.761   2.794   2.592
 3473TIP3   OH210361   2.916   3.304   3.472
 3473TIP3    H110362   2.819   3.307   3.487
 3473TIP3    H210363   2.916   3.240   3.399
 3474TIP3   OH210364   2.568   3.497   2.869
 3474TIP3    H110365   2.492   3.438   2.880
 3474TIP3    H210366   2.639   3.449   2.917
 3475TIP3   OH210367   1.283   3.723   2.338
 3475TIP3    H110368   1.354   3.789   2.348
 3475TIP3    H210369   1.326   3.665   2.272
 3476TIP3   OH210370   1.223   3.002   2.475
 3476TIP3    H110371   1.224   3.099   2.471
 3476TIP3    H210372   1.145   2.979   2.424
 3477TIP3   OH210373   2.538   4.456   2.817
 3477TIP3    H110374   2.495   4.503   2.742
 3477TIP3    H210375   2.632   4.474   2.796
 3478TIP3   OH210376   1.613   2.723   3.339
 3478TIP3    H110377   1.584   2.695   3.250
 3478TIP3    H210378   1.592   2.644   3.392
 3479TIP3   OH210379   1.150   3.940   2.723
 3479TIP3    H110380   1.085   3.970   2.788
 3479TIP3    H210381   1.117   3.983   2.641
 3480TIP3   OH210382   1.310   4.487   3.801
 3480TIP3    H110383   1.398   4.488   3.846
 3480TIP3    H210384   1.293   4.391   3.797
 3481TIP3   OH210385   1.787   4.436   3.852
 3481TIP3    H110386   1.883   4.436   3.844
 3481TIP3    H210387   1.760   4.380   3.776
 3482TIP3   OH210388   1.771   4.021   1.968
 3482TIP3    H110389   1.715   3.950   2.007
 3482TIP3    H210390   1.847   3.969   1.937
 3483TIP3   OH210391   2.425   4.359   3.578
 3483TIP3    H110392   2.427   4.287   3.645
 3483TIP3    H210393   2.505   4.410   3.602
 3484TIP3   OH210394   2.207   4.061   1.884
 3484TIP3    H110395   2.246   3.994   1.944
 3484TIP3    H210396   2.266   4.055   1.806
 3485TIP3   OH210397   1.440   3.891   3.998
 3485TIP3    H110398   1.456   3.795   4.005
 3485TIP3    H210399   1.353   3.892   3.952
 3486TIP3   OH210400   1.418   3.537   2.194
 3486TIP3    H110401   1.474   3.505   2.267
 3486TIP3    H210402   1.485   3.542   2.122
 3487TIP3   OH210403   2.048   3.977   3.771
 3487TIP3    H110404   2.004   3.994   3.686
 3487TIP3    H210405   2.077   3.884   3.762
 3488TIP3   OH210406   1.931   3.739   2.000
 3488TIP3    H110407   1.934   3.750   2.097
 3488TIP3    H210408   1.933   3.641   1.993
 3489TIP3   OH210409   2.540   3.988   3.381
 3489TIP3    H110410   2.616   4.030   3.336
 3489TIP3    H210411   2.470   4.054   3.362
 3490TIP3   OH210412   1.561   3.630   3.981
 3490TIP3    H110413   1.633   3.571   3.956
 3490TIP3    H210414   1.589   3.659   4.070
 3491TIP3   OH210415   1.622   3.445   2.411
 3491TIP3    H110416   1.597   3.404   2.495
 3491TIP3    H210417   1.661   3.370   2.362
 3492TIP3   OH210418   1.895   3.509   3.643
 3492TIP3    H110419   1.816   3.567   3.642
 3492TIP3    H210420   1.946   3.543   3.566
 3493TIP3   OH210421   1.727   3.241   2.253
 3493TIP3    H110422   1.703   3.246   2.158
 3493TIP3    H210423   1.825   3.242   2.247
 3494TIP3   OH210424   2.417   3.911   3.779
 3494TIP3    H110425   2.488   3.875   3.725
 3494TIP3    H210426   2.409   3.843   3.849
 3495TIP3   OH210427   2.546   3.568   1.920
 3495TIP3    H110428   2.525   3.522   1.836
 3495TIP3    H210429   2.512   3.657   1.898
 3496TIP3   OH210430   2.017   3.298   3.768
 3496TIP3    H110431   2.018   3.218   3.711
 3496TIP3    H210432   1.973   3.364   3.710
 3497TIP3   OH210433   2.019   3.085   3.576
 3497TIP3    H110434   2.048   3.125   3.492
 3497TIP3    H210435   1.926   3.063   3.557
 3498TIP3   OH210436   2.045   3.619   3.450
 3498TIP3    H110437   2.130   3.627   3.405
 3498TIP3    H210438   1.989   3.683   3.401
 3499TIP3   OH210439   2.625   3.582   3.827
 3499TIP3    H110440   2.667   3.498   3.851
 3499TIP3    H210441   2.699   3.633   3.793
 3500TIP3   OH210442   2.668   3.842   3.569
 3500TIP3    H110443   2.611   3.896   3.508
 3500TIP3    H210444   2.756   3.859   3.528
 3501TIP3   OH210445   1.895   3.404   4.001
 3501TIP3    H110446   1.827   3.335   4.016
 3501TIP3    H210447   1.929   3.379   3.913
 3502TIP3   OH210448   2.150   2.846   3.646
 3502TIP3    H110449   2.098   2.926   3.623
 3502TIP3    H210450   2.086   2.775   3.629
 3503TIP3   OH210451   2.277   3.351   3.860
 3503TIP3    H110452   2.267   3.334   3.956
 3503TIP3    H210453   2.187   3.326   3.830
 3504TIP3   OH210454   2.514   3.301   3.714
 3504TIP3    H110455   2.442   3.300   3.780
 3504TIP3    H210456   2.592   3.272   3.767
 3505TIP3   OH210457   2.745   3.249   3.857
 3505TIP3    H110458   2.762   3.153   3.873
 3505TIP3    H210459   2.741   3.284   3.948
 3506TIP3   OH210460   1.735   3.185   4.056
 3506TIP3    H110461   1.739   3.094   4.020
 3506TIP3    H210462   1.775   3.171   4.144
 3507TIP3   OH210463   2.246   2.848   3.905
 3507TIP3    H110464   2.326   2.795   3.892
 3507TIP3    H210465   2.208   2.847   3.815
 3508TIP3   OH210466   2.311   3.070   4.061
 3508TIP3    H110467   2.290   2.998   3.998
 3508TIP3    H210468   2.233   3.128   4.053
 3509TIP3   OH210469   1.535   4.301   2.160
 3509TIP3    H110470   1.630   4.291   2.141
 3509TIP3    H210471   1.508   4.352   2.082
 3510TIP3   OH210472   1.013   3.683   2.373
 3510TIP3    H110473   1.108   3.704   2.360
 3510TIP3    H210474   1.008   3.593   2.334
 3511TIP3   OH210475   0.929   4.293   2.793
 3511TIP3    H110476   0.864   4.231   2.753
 3511TIP3    H210477   0.974   4.234   2.857
 3512TIP3   OH210478   1.064   4.139   2.978
 3512TIP3    H110479   1.054   4.069   3.044
 3512TIP3    H210480   1.117   4.203   3.029
 3513TIP3   OH210481   2.794   4.542   2.778
 3513TIP3    H110482   2.818   4.574   2.867
 3513TIP3    H210483   2.857   4.589   2.722
 3514TIP3   OH210484   2.820   4.564   3.060
 3514TIP3    H110485   2.775   4.477   3.055
 3514TIP3    H210486   2.894   4.540   3.118
 3515TIP3   OH210487   2.868   4.241   3.629
 3515TIP3    H110488   2.796   4.253   3.694
 3515TIP3    H210489   2.912   4.329   3.633
 3516TIP3   OH210490   2.684   3.753   2.252
 3516TIP3    H110491   2.752   3.818   2.222
 3516TIP3    H210492   2.728   3.715   2.331
 3517TIP3   OH210493   2.811   3.621   2.457
 3517TIP3    H110494   2.744   3.578   2.513
 3517TIP3    H210495   2.874   3.658   2.523
 3518TIP3   OH210496   2.869   4.017   2.888
 3518TIP3    H110497   2.920   3.948   2.841
 3518TIP3    H210498   2.861   4.087   2.821
 3519TIP3   OH210499   2.695   4.315   3.081
 3519TIP3    H110500   2.623   4.356   3.132
 3519TIP3    H210501   2.645   4.269   3.010
 3520TIP3   OH210502   2.749   3.531   2.100
 3520TIP3    H110503   2.677   3.531   2.033
 3520TIP3    H210504   2.719   3.605   2.156
 3521TIP3   OH210505   2.620   3.201   2.051
 3521TIP3    H110506   2.569   3.230   1.975
 3521TIP3    H210507   2.601   3.104   2.050
 3522TIP3   OH210508   2.624   3.478   2.600
 3522TIP3    H110509   2.629   3.382   2.590
 3522TIP3    H210510   2.609   3.489   2.696
 3523TIP3   OH210511   1.249   3.555   3.348
 3523TIP3    H110512   1.247   3.519   3.256
 3523TIP3    H210513   1.346   3.554   3.365
 3524TIP3   OH210514   2.914   3.903   3.457
 3524TIP3    H110515   2.984   3.835   3.447
 3524TIP3    H210516   2.940   3.971   3.393
 3525TIP3   OH210517   3.100   3.706   3.466
 3525TIP3    H110518   3.025   3.655   3.504
 3525TIP3    H210519   3.174   3.644   3.486
 3526TIP3   OH210520   2.562   2.934   2.036
 3526TIP3    H110521   2.642   2.913   2.090
 3526TIP3    H210522   2.494   2.877   2.074
 3527TIP3   OH210523   2.620   3.194   2.494
 3527TIP3    H110524   2.656   3.103   2.509
 3527TIP3    H210525   2.680   3.222   2.422
 3528TIP3   OH210526   2.780   3.365   2.991
 3528TIP3    H110527   2.866   3.390   2.950
 3528TIP3    H210528   2.794   3.402   3.081
 3529TIP3   OH210529   2.845   3.516   3.218
 3529TIP3    H110530   2.769   3.549   3.270
 3529TIP3    H210531   2.880   3.598   3.178
 3530TIP3   OH210532   1.468   3.240   4.034
 3530TIP3    H110533   1.565   3.225   4.032
 3530TIP3    H210534   1.438   3.160   4.079
 3531TIP3   OH210535   3.312   3.112   3.773
 3531TIP3    H110536   3.364   3.040   3.730
 3531TIP3    H210537   3.275   3.158   3.696
 3532TIP3   OH210538   2.728   2.946   2.527
 3532TIP3    H110539   2.762   2.915   2.612
 3532TIP3    H210540   2.694   2.862   2.488
 3533TIP3   OH210541   1.430   2.932   3.351
 3533TIP3    H110542   1.492   2.857   3.360
 3533TIP3    H210543   1.492   3.006   3.344
 3534TIP3   OH210544   1.228   3.203   3.422
 3534TIP3    H110545   1.280   3.202   3.339
 3534TIP3    H210546   1.262   3.283   3.464
 3535TIP3   OH210547   3.174   3.246   3.578
 3535TIP3    H110548   3.089   3.284   3.607
 3535TIP3    H210549   3.141   3.170   3.526
 3536TIP3   OH210550   2.815   2.905   2.135
 3536TIP3    H110551   2.847   2.814   2.123
 3536TIP3    H210552   2.896   2.956   2.151
 3537TIP3   OH210553   1.217   2.706   2.927
 3537TIP3    H110554   1.123   2.701   2.954
 3537TIP3    H210555   1.212   2.765   2.849
 3538TIP3   OH210556   2.374   4.412   2.432
 3538TIP3    H110557   2.428   4.402   2.351
 3538TIP3    H210558   2.426   4.478   2.482
 3539TIP3   OH210559   1.430   2.772   3.746
 3539TIP3    H110560   1.397   2.766   3.837
 3539TIP3    H210561   1.358   2.820   3.700
 3540TIP3   OH210562   1.475   4.218   3.817
 3540TIP3    H110563   1.383   4.191   3.798
 3540TIP3    H210564   1.483   4.196   3.911
 3541TIP3   OH210565   1.656   4.251   3.366
 3541TIP3    H110566   1.608   4.326   3.326
 3541TIP3    H210567   1.742   4.264   3.321
 3542TIP3   OH210568   2.098   4.490   3.502
 3542TIP3    H110569   2.139   4.495   3.591
 3542TIP3    H210570   2.161   4.543   3.449
 3543TIP3   OH210571   2.276   4.645   3.365
 3543TIP3    H110572   2.347   4.596   3.321
 3543TIP3    H210573   2.328   4.703   3.425
 3544TIP3   OH210574   3.083   3.007   3.465
 3544TIP3    H110575   2.996   2.985   3.426
 3544TIP3    H210576   3.122   2.917   3.459
 3545TIP3   OH210577   1.329   4.503   3.393
 3545TIP3    H110578   1.239   4.535   3.370
 3545TIP3    H210579   1.346   4.557   3.472
 3546TIP3   OH210580   1.565   4.480   3.248
 3546TIP3    H110581   1.478   4.495   3.291
 3546TIP3    H210582   1.549   4.517   3.158
 3547TIP3   OH210583   1.991   4.510   3.046
 3547TIP3    H110584   1.921   4.530   2.981
 3547TIP3    H210585   2.003   4.598   3.089
 3548TIP3   OH210586   2.261   4.450   3.099
 3548TIP3    H110587   2.167   4.468   3.079
 3548TIP3    H210588   2.304   4.525   3.055
 3549TIP3   OH210589   2.468   4.642   3.011
 3549TIP3    H110590   2.454   4.726   2.963
 3549TIP3    H210591   2.494   4.581   2.938
 3550TIP3   OH210592   1.240   4.297   3.134
 3550TIP3    H110593   1.268   4.270   3.224
 3550TIP3    H210594   1.313   4.255   3.082
 3551TIP3   OH210595   1.436   4.171   2.993
 3551TIP3    H110596   1.452   4.087   3.042
 3551TIP3    H210597   1.527   4.207   2.989
 3552TIP3   OH210598   1.703   4.262   2.997
 3552TIP3    H110599   1.734   4.170   2.988
 3552TIP3    H210600   1.750   4.286   3.080
 3553TIP3   OH210601   2.279   2.924   3.081
 3553TIP3    H110602   2.231   2.852   3.126
 3553TIP3    H210603   2.351   2.877   3.036
 3554TIP3   OH210604   2.798   2.805   2.992
 3554TIP3    H110605   2.834   2.854   2.915
 3554TIP3    H210606   2.702   2.820   2.982
 3555TIP3   OH210607   2.895   2.897   2.752
 3555TIP3    H110608   2.968   2.850   2.707
 3555TIP3    H210609   2.920   2.991   2.734
 3556TIP3   OH210610   1.523   2.633   3.095
 3556TIP3    H110611   1.431   2.599   3.097
 3556TIP3    H210612   1.572   2.548   3.090
 3557TIP3   OH210613   1.317   2.501   2.748
 3557TIP3    H110614   1.346   2.557   2.673
 3557TIP3    H210615   1.289   2.567   2.814
 3558TIP3   OH210616   1.965   2.687   2.978
 3558TIP3    H110617   2.028   2.718   2.911
 3558TIP3    H210618   2.008   2.714   3.060
 3559TIP3   OH210619   2.511   2.803   2.962
 3559TIP3    H110620   2.515   2.768   2.872
 3559TIP3    H210621   2.495   2.721   3.014
 3560TIP3   OH210622   1.029   4.074   2.523
 3560TIP3    H110623   0.943   4.041   2.490
 3560TIP3    H210624   1.020   4.168   2.501
 3561TIP3   OH210625   1.433   2.657   2.509
 3561TIP3    H110626   1.479   2.594   2.450
 3561TIP3    H210627   1.508   2.710   2.543
 3562TIP3   OH210628   1.942   2.835   2.609
 3562TIP3    H110629   2.002   2.788   2.669
 3562TIP3    H210630   1.966   2.928   2.633
 3563TIP3   OH210631   1.802   4.255   2.107
 3563TIP3    H110632   1.890   4.278   2.071
 3563TIP3    H210633   1.780   4.180   2.047
 3564TIP3   OH210634   2.523   4.379   2.201
 3564TIP3    H110635   2.516   4.281   2.191
 3564TIP3    H210636   2.476   4.409   2.121
 3565TIP3   OH210637   1.731   2.922   3.984
 3565TIP3    H110638   1.689   2.843   4.024
 3565TIP3    H210639   1.823   2.909   4.016
 3566TIP3   OH210640   1.981   2.907   4.110
 3566TIP3    H110641   2.068   2.884   4.074
 3566TIP3    H210642   1.967   2.837   4.177
 3567TIP3   OH210643   1.105   4.094   2.161
 3567TIP3    H110644   1.109   4.114   2.256
 3567TIP3    H210645   1.192   4.051   2.145
 3568TIP3   OH210646   2.808   2.989   3.908
 3568TIP3    H110647   2.823   2.945   3.994
 3568TIP3    H210648   2.881   2.954   3.855
 3569TIP3   OH210649   2.745   4.521   3.386
 3569TIP3    H110650   2.667   4.491   3.336
 3569TIP3    H210651   2.726   4.617   3.392
 3570TIP3   OH210652   4.014   3.897   2.151
 3570TIP3    H110653   3.982   3.987   2.128
 3570TIP3    H210654   3.939   3.844   2.119
 3571TIP3   OH210655   4.021   3.897   2.535
 3571TIP3    H110656   4.047   3.869   2.625
 3571TIP3    H210657   3.974   3.819   2.503
 3572TIP3   OH210658   3.313   3.790   2.895
 3572TIP3    H110659   3.344   3.722   2.957
 3572TIP3    H210660   3.385   3.854   2.902
 3573TIP3   OH210661   4.262   4.197   2.215
 3573TIP3    H110662   4.230   4.133   2.280
 3573TIP3    H210663   4.286   4.273   2.271
 3574TIP3   OH210664   3.284   4.201   2.621
 3574TIP3    H110665   3.276   4.103   2.623
 3574TIP3    H210666   3.381   4.210   2.619
 3575TIP3   OH210667   2.992   3.404   2.405
 3575TIP3    H110668   2.939   3.484   2.423
 3575TIP3    H210669   2.924   3.346   2.366
 3576TIP3   OH210670   3.049   3.690   2.586
 3576TIP3    H110671   3.097   3.611   2.620
 3576TIP3    H210672   3.103   3.716   2.511
 3577TIP3   OH210673   3.907   4.660   2.233
 3577TIP3    H110674   3.952   4.587   2.185
 3577TIP3    H210675   3.894   4.621   2.321
 3578TIP3   OH210676   3.808   4.123   2.581
 3578TIP3    H110677   3.845   4.046   2.535
 3578TIP3    H210678   3.891   4.168   2.606
 3579TIP3   OH210679   4.824   3.442   2.581
 3579TIP3    H110680   4.857   3.524   2.624
 3579TIP3    H210681   4.853   3.456   2.489
 3580TIP3   OH210682   4.234   3.624   2.616
 3580TIP3    H110683   4.270   3.534   2.634
 3580TIP3    H210684   4.195   3.610   2.527
 3581TIP3   OH210685   3.572   3.277   2.582
 3581TIP3    H110686   3.546   3.351   2.522
 3581TIP3    H210687   3.521   3.204   2.539
 3582TIP3   OH210688   4.257   3.374   2.200
 3582TIP3    H110689   4.328   3.358   2.266
 3582TIP3    H210690   4.310   3.408   2.125
 3583TIP3   OH210691   3.196   3.484   2.686
 3583TIP3    H110692   3.277   3.460   2.736
 3583TIP3    H210693   3.208   3.425   2.608
 3584TIP3   OH210694   3.636   3.680   2.478
 3584TIP3    H110695   3.729   3.654   2.492
 3584TIP3    H210696   3.595   3.595   2.448
 3585TIP3   OH210697   4.902   3.649   2.752
 3585TIP3    H110698   4.815   3.693   2.740
 3585TIP3    H210699   4.921   3.671   2.844
 3586TIP3   OH210700   3.904   4.116   2.020
 3586TIP3    H110701   3.860   4.099   1.936
 3586TIP3    H210702   3.859   4.199   2.048
 3587TIP3   OH210703   3.666   4.041   2.808
 3587TIP3    H110704   3.603   4.107   2.846
 3587TIP3    H210705   3.703   4.091   2.732
 3588TIP3   OH210706   4.464   3.375   2.375
 3588TIP3    H110707   4.450   3.328   2.458
 3588TIP3    H210708   4.518   3.451   2.403
 3589TIP3   OH210709   3.428   3.379   2.797
 3589TIP3    H110710   3.491   3.445   2.833
 3589TIP3    H210711   3.480   3.341   2.723
 3590TIP3   OH210712   3.493   4.235   2.906
 3590TIP3    H110713   3.467   4.323   2.871
 3590TIP3    H210714   3.414   4.217   2.962
 3591TIP3   OH210715   2.886   3.925   2.142
 3591TIP3    H110716   2.843   3.953   2.059
 3591TIP3    H210717   2.917   4.011   2.178
 3592TIP3   OH210718   4.331   4.440   2.386
 3592TIP3    H110719   4.240   4.433   2.424
 3592TIP3    H210720   4.323   4.525   2.338
 3593TIP3   OH210721   4.616   3.343   2.747
 3593TIP3    H110722   4.528   3.361   2.709
 3593TIP3    H210723   4.677   3.373   2.677
 3594TIP3   OH210724   3.912   2.979   2.731
 3594TIP3    H110725   3.899   2.884   2.748
 3594TIP3    H210726   3.835   3.016   2.780
 3595TIP3   OH210727   4.028   4.484   2.057
 3595TIP3    H110728   4.077   4.402   2.035
 3595TIP3    H210729   4.089   4.550   2.016
 3596TIP3   OH210730   4.171   4.270   1.965
 3596TIP3    H110731   4.127   4.191   1.929
 3596TIP3    H210732   4.211   4.235   2.048
 3597TIP3   OH210733   4.570   4.349   2.703
 3597TIP3    H110734   4.588   4.338   2.607
 3597TIP3    H210735   4.543   4.444   2.699
 3598TIP3   OH210736   3.845   3.746   1.987
 3598TIP3    H110737   3.764   3.798   1.968
 3598TIP3    H210738   3.888   3.744   1.900
 3599TIP3   OH210739   3.802   3.533   1.697
 3599TIP3    H110740   3.869   3.585   1.745
 3599TIP3    H210741   3.860   3.469   1.650
 3600TIP3   OH210742   4.743   3.983   2.566
 3600TIP3    H110743   4.659   4.030   2.553
 3600TIP3    H210744   4.788   4.005   2.481
 3601TIP3   OH210745   4.192   3.829   1.954
 3601TIP3    H110746   4.137   3.853   2.032
 3601TIP3    H210747   4.276   3.805   1.998
 3602TIP3   OH210748   3.423   3.825   2.372
 3602TIP3    H110749   3.381   3.767   2.305
 3602TIP3    H210750   3.499   3.771   2.401
 3603TIP3   OH210751   3.555   4.241   2.519
 3603TIP3    H110752   3.531   4.202   2.433
 3603TIP3    H210753   3.643   4.203   2.536
 3604TIP3   OH210754   3.571   3.791   2.730
 3604TIP3    H110755   3.595   3.773   2.637
 3604TIP3    H210756   3.606   3.880   2.746
 3605TIP3   OH210757   4.090   4.435   2.505
 3605TIP3    H110758   4.071   4.518   2.552
 3605TIP3    H210759   4.067   4.366   2.570
 3606TIP3   OH210760   3.699   4.353   3.049
 3606TIP3    H110761   3.638   4.415   3.096
 3606TIP3    H210762   3.633   4.300   3.000
 3607TIP3   OH210763   4.031   3.686   1.782
 3607TIP3    H110764   4.089   3.747   1.832
 3607TIP3    H210765   4.057   3.707   1.689
 3608TIP3   OH210766   3.455   3.905   3.154
 3608TIP3    H110767   3.461   3.993   3.195
 3608TIP3    H210768   3.360   3.885   3.171
 3609TIP3   OH210769   3.779   4.362   2.057
 3609TIP3    H110770   3.858   4.418   2.068
 3609TIP3    H210771   3.716   4.423   2.017
 3610TIP3   OH210772   3.492   4.519   3.140
 3610TIP3    H110773   3.456   4.522   3.049
 3610TIP3    H210774   3.413   4.498   3.193
 3611TIP3   OH210775   4.546   2.925   1.832
 3611TIP3    H110776   4.464   2.946   1.881
 3611TIP3    H210777   4.561   3.008   1.783
 3612TIP3   OH210778   3.291   3.668   2.175
 3612TIP3    H110779   3.221   3.712   2.122
 3612TIP3    H210780   3.252   3.582   2.191
 3613TIP3   OH210781   4.347   4.293   1.379
 3613TIP3    H110782   4.356   4.390   1.365
 3613TIP3    H210783   4.440   4.264   1.367
 3614TIP3   OH210784   3.072   4.051   3.086
 3614TIP3    H110785   3.003   4.032   3.019
 3614TIP3    H210786   3.108   3.962   3.106
 3615TIP3   OH210787   2.925   4.248   2.714
 3615TIP3    H110788   3.021   4.242   2.710
 3615TIP3    H210789   2.912   4.325   2.771
 3616TIP3   OH210790   4.791   4.703   2.775
 3616TIP3    H110791   4.795   4.607   2.793
 3616TIP3    H210792   4.707   4.727   2.820
 3617TIP3   OH210793   3.898   4.477   2.907
 3617TIP3    H110794   3.896   4.570   2.939
 3617TIP3    H210795   3.825   4.439   2.961
 3618TIP3   OH210796   3.660   4.611   1.860
 3618TIP3    H110797   3.610   4.594   1.778
 3618TIP3    H210798   3.625   4.698   1.888
 3619TIP3   OH210799   3.095   4.459   2.245
 3619TIP3    H110800   3.141   4.451   2.332
 3619TIP3    H210801   3.042   4.378   2.245
 3620TIP3   OH210802   3.857   4.514   1.498
 3620TIP3    H110803   3.916   4.443   1.463
 3620TIP3    H210804   3.891   4.524   1.589
 3621TIP3   OH210805   3.909   4.561   1.767
 3621TIP3    H110806   3.821   4.572   1.808
 3621TIP3    H210807   3.960   4.523   1.840
 3622TIP3   OH210808   4.673   3.823   3.046
 3622TIP3    H110809   4.588   3.788   3.013
 3622TIP3    H210810   4.717   3.739   3.067
 3623TIP3   OH210811   3.276   4.235   3.070
 3623TIP3    H110812   3.324   4.219   3.154
 3623TIP3    H210813   3.201   4.171   3.079
 3624TIP3   OH210814   3.672   3.063   2.848
 3624TIP3    H110815   3.582   3.024   2.842
 3624TIP3    H210816   3.653   3.151   2.813
 3625TIP3   OH210817   4.209   3.171   3.054
 3625TIP3    H110818   4.280   3.144   3.116
 3625TIP3    H210819   4.128   3.150   3.104
 3626TIP3   OH210820   4.450   3.651   2.980
 3626TIP3    H110821   4.415   3.613   3.064
 3626TIP3    H210822   4.367   3.664   2.933
 3627TIP3   OH210823   4.109   3.728   1.527
 3627TIP3    H110824   4.073   3.706   1.438
 3627TIP3    H210825   4.191   3.775   1.502
 3628TIP3   OH210826   3.822   3.105   1.830
 3628TIP3    H110827   3.786   3.102   1.921
 3628TIP3    H210828   3.780   3.024   1.794
 3629TIP3   OH210829   3.611   3.570   2.884
 3629TIP3    H110830   3.556   3.593   2.962
 3629TIP3    H210831   3.595   3.649   2.827
 3630TIP3   OH210832   3.492   3.458   2.394
 3630TIP3    H110833   3.399   3.433   2.412
 3630TIP3    H210834   3.502   3.418   2.304
 3631TIP3   OH210835   3.983   3.548   2.122
 3631TIP3    H110836   3.931   3.618   2.077
 3631TIP3    H210837   4.036   3.513   2.048
 3632TIP3   OH210838   4.157   3.825   3.200
 3632TIP3    H110839   4.137   3.749   3.259
 3632TIP3    H210840   4.249   3.844   3.225
 3633TIP3   OH210841   4.138   3.575   2.358
 3633TIP3    H110842   4.075   3.602   2.287
 3633TIP3    H210843   4.173   3.494   2.314
 3634TIP3   OH210844   3.424   3.611   3.085
 3634TIP3    H110845   3.451   3.672   3.155
 3634TIP3    H210846   3.359   3.555   3.130
 3635TIP3   OH210847   3.478   3.083   1.795
 3635TIP3    H110848   3.466   3.080   1.892
 3635TIP3    H210849   3.399   3.134   1.768
 3636TIP3   OH210850   3.015   3.126   2.666
 3636TIP3    H110851   3.094   3.154   2.716
 3636TIP3    H210852   3.052   3.090   2.584
 3637TIP3   OH210853   3.001   3.113   2.189
 3637TIP3    H110854   3.039   3.150   2.106
 3637TIP3    H210855   2.930   3.178   2.205
 3638TIP3   OH210856   4.130   3.820   2.773
 3638TIP3    H110857   4.178   3.753   2.721
 3638TIP3    H210858   4.110   3.767   2.854
 3639TIP3   OH210859   3.824   3.281   2.449
 3639TIP3    H110860   3.740   3.280   2.498
 3639TIP3    H210861   3.890   3.276   2.521
 3640TIP3   OH210862   3.252   3.340   2.457
 3640TIP3    H110863   3.158   3.351   2.430
 3640TIP3    H210864   3.269   3.246   2.438
 3641TIP3   OH210865   3.519   3.335   2.150
 3641TIP3    H110866   3.611   3.350   2.124
 3641TIP3    H210867   3.468   3.355   2.068
 3642TIP3   OH210868   4.312   3.359   2.654
 3642TIP3    H110869   4.284   3.369   2.748
 3642TIP3    H210870   4.244   3.297   2.622
 3643TIP3   OH210871   3.368   3.369   1.928
 3643TIP3    H110872   3.294   3.324   1.883
 3643TIP3    H210873   3.417   3.404   1.851
 3644TIP3   OH210874   4.485   5.045   2.874
 3644TIP3    H110875   4.480   5.074   2.782
 3644TIP3    H210876   4.560   5.097   2.907
 3645TIP3   OH210877   3.440   4.158   3.292
 3645TIP3    H110878   3.519   4.186   3.342
 3645TIP3    H210879   3.374   4.153   3.365
 3646TIP3   OH210880   3.902   3.613   2.547
 3646TIP3    H110881   3.973   3.573   2.495
 3646TIP3    H210882   3.912   3.569   2.633
 3647TIP3   OH210883   3.428   3.096   2.434
 3647TIP3    H110884   3.385   3.022   2.483
 3647TIP3    H210885   3.460   3.051   2.355
 3648TIP3   OH210886   3.880   3.509   2.855
 3648TIP3    H110887   3.791   3.548   2.861
 3648TIP3    H210888   3.937   3.578   2.895
 3649TIP3   OH210889   3.615   3.897   1.935
 3649TIP3    H110890   3.543   3.832   1.922
 3649TIP3    H210891   3.594   3.931   2.025
 3650TIP3   OH210892   4.497   4.115   2.568
 3650TIP3    H110893   4.528   4.166   2.489
 3650TIP3    H210894   4.418   4.070   2.530
 3651TIP3   OH210895   4.071   3.209   1.799
 3651TIP3    H110896   3.975   3.188   1.808
 3651TIP3    H210897   4.077   3.303   1.825
 3652TIP3   OH210898   4.046   4.224   2.936
 3652TIP3    H110899   4.031   4.184   3.023
 3652TIP3    H210900   3.988   4.302   2.940
 3653TIP3   OH210901   4.139   3.459   1.903
 3653TIP3    H110902   4.235   3.466   1.917
 3653TIP3    H210903   4.119   3.539   1.851
 3654TIP3   OH210904   3.313   3.926   2.610
 3654TIP3    H110905   3.347   3.891   2.525
 3654TIP3    H210906   3.341   3.859   2.673
 3655TIP3   OH210907   3.759   4.048   1.757
 3655TIP3    H110908   3.710   4.133   1.760
 3655TIP3    H210909   3.704   3.993   1.818
 3656TIP3   OH210910   3.192   3.835   3.222
 3656TIP3    H110911   3.207   3.822   3.318
 3656TIP3    H210912   3.117   3.775   3.207
 3657TIP3   OH210913   3.911   3.972   3.200
 3657TIP3    H110914   3.853   3.895   3.184
 3657TIP3    H210915   3.999   3.929   3.203
 3658TIP3   OH210916   4.187   4.475   2.827
 3658TIP3    H110917   4.091   4.468   2.836
 3658TIP3    H210918   4.207   4.530   2.906
 3659TIP3   OH210919   4.581   3.552   1.735
 3659TIP3    H110920   4.519   3.507   1.672
 3659TIP3    H210921   4.577   3.641   1.696
 3660TIP3   OH210922   4.814   4.423   2.818
 3660TIP3    H110923   4.720   4.399   2.822
 3660TIP3    H210924   4.837   4.383   2.731
 3661TIP3   OH210925   4.286   4.368   1.645
 3661TIP3    H110926   4.256   4.299   1.706
 3661TIP3    H210927   4.297   4.320   1.561
 3662TIP3   OH210928   4.279   3.988   2.484
 3662TIP3    H110929   4.184   3.965   2.497
 3662TIP3    H210930   4.309   3.910   2.433
 3663TIP3   OH210931   3.408   4.225   2.233
 3663TIP3    H110932   3.403   4.307   2.179
 3663TIP3    H210933   3.315   4.207   2.249
 3664TIP3   OH210934   2.973   3.528   1.941
 3664TIP3    H110935   3.016   3.613   1.963
 3664TIP3    H210936   2.895   3.531   2.001
 3665TIP3   OH210937   3.543   3.989   2.177
 3665TIP3    H110938   3.507   4.079   2.196
 3665TIP3    H210939   3.506   3.938   2.252
 3666TIP3   OH210940   3.678   4.568   2.702
 3666TIP3    H110941   3.719   4.642   2.653
 3666TIP3    H210942   3.754   4.533   2.752
 3667TIP3   OH210943   3.326   4.464   2.086
 3667TIP3    H110944   3.240   4.473   2.133
 3667TIP3    H210945   3.358   4.557   2.089
 3668TIP3   OH210946   4.059   4.202   2.664
 3668TIP3    H110947   4.053   4.206   2.762
 3668TIP3    H210948   4.124   4.132   2.650
 3669TIP3   OH210949   4.041   4.098   1.545
 3669TIP3    H110950   4.094   4.072   1.624
 3669TIP3    H210951   3.953   4.069   1.572
 3670TIP3   OH210952   4.312   4.734   2.709
 3670TIP3    H110953   4.230   4.681   2.703
 3670TIP3    H210954   4.297   4.800   2.638
 3671TIP3   OH210955   4.379   4.569   1.364
 3671TIP3    H110956   4.418   4.644   1.316
 3671TIP3    H210957   4.298   4.613   1.399
 3672TIP3   OH210958   4.202   4.028   1.759
 3672TIP3    H110959   4.191   3.963   1.831
 3672TIP3    H210960   4.299   4.025   1.748
 3673TIP3   OH210961   3.116   4.429   2.860
 3673TIP3    H110962   3.169   4.357   2.899
 3673TIP3    H210963   3.138   4.502   2.919
 3674TIP3   OH210964   3.405   4.075   1.545
 3674TIP3    H110965   3.417   3.982   1.519
 3674TIP3    H210966   3.384   4.066   1.640
 3675TIP3   OH210967   3.349   4.082   1.816
 3675TIP3    H110968   3.420   4.054   1.876
 3675TIP3    H210969   3.352   4.180   1.825
 3676TIP3   OH210970   3.084   3.774   2.022
 3676TIP3    H110971   3.017   3.818   2.079
 3676TIP3    H210972   3.095   3.843   1.954
 3677TIP3   OH210973   4.250   3.405   2.919
 3677TIP3    H110974   4.312   3.435   2.986
 3677TIP3    H210975   4.219   3.322   2.961
 3678TIP3   OH210976   4.120   3.157   2.081
 3678TIP3    H110977   4.103   3.180   1.988
 3678TIP3    H210978   4.157   3.241   2.116
 3679TIP3   OH210979   3.618   4.278   1.765
 3679TIP3    H110980   3.530   4.301   1.802
 3679TIP3    H210981   3.632   4.355   1.707
 3680TIP3   OH210982   3.806   3.342   2.180
 3680TIP3    H110983   3.868   3.416   2.164
 3680TIP3    H210984   3.809   3.335   2.277
 3681TIP3   OH210985   4.084   3.659   2.988
 3681TIP3    H110986   4.099   3.719   3.065
 3681TIP3    H210987   4.128   3.578   3.016
 3682TIP3   OH210988   3.946   3.065   2.282
 3682TIP3    H110989   3.933   3.146   2.336
 3682TIP3    H210990   4.009   3.098   2.214
 3683TIP3   OH210991   3.363   4.354   1.835
 3683TIP3    H110992   3.332   4.423   1.774
 3683TIP3    H210993   3.346   4.396   1.922
 3684TIP3   OH210994   3.461   3.068   2.071
 3684TIP3    H110995   3.456   3.158   2.110
 3684TIP3    H210996   3.557   3.052   2.079
 3685TIP3   OH210997   4.712   3.553   2.970
 3685TIP3    H110998   4.617   3.574   2.974
 3685TIP3    H210999   4.716   3.498   2.890
 3686TIP3   OH211000   4.364   3.754   2.357
 3686TIP3    H111001   4.287   3.695   2.366
 3686TIP3    H211002   4.435   3.704   2.404
 3687TIP3   OH211003   3.079   3.979   1.825
 3687TIP3    H111004   3.147   4.047   1.834
 3687TIP3    H211005   3.122   3.922   1.758
 3688TIP3   OH211006   3.022   3.258   1.956
 3688TIP3    H111007   3.019   3.356   1.956
 3688TIP3    H211008   2.936   3.235   1.920
 3689TIP3   OH211009   4.336   4.709   2.304
 3689TIP3    H111010   4.292   4.755   2.229
 3689TIP3    H211011   4.430   4.730   2.282
 3690TIP3   OH211012   3.415   2.977   2.831
 3690TIP3    H111013   3.379   2.945   2.745
 3690TIP3    H211014   3.400   2.900   2.889
 3691TIP3   OH211015   2.946   4.197   2.210
 3691TIP3    H111016   2.882   4.226   2.277
 3691TIP3    H211017   2.910   4.240   2.128
 3692TIP3   OH211018   3.107   4.744   3.284
 3692TIP3    H111019   3.194   4.744   3.331
 3692TIP3    H211020   3.087   4.649   3.284
 3693TIP3   OH211021   3.584   4.701   3.330
 3693TIP3    H111022   3.679   4.683   3.335
 3693TIP3    H211023   3.558   4.640   3.258
 3694TIP3   OH211024   3.567   4.278   1.454
 3694TIP3    H111025   3.511   4.207   1.493
 3694TIP3    H211026   3.643   4.225   1.425
 3695TIP3   OH211027   4.233   4.607   3.059
 3695TIP3    H111028   4.221   4.541   3.131
 3695TIP3    H211029   4.304   4.664   3.095
 3696TIP3   OH211030   4.004   4.317   1.370
 3696TIP3    H111031   4.043   4.252   1.431
 3696TIP3    H211032   4.063   4.313   1.293
 3697TIP3   OH211033   3.237   4.147   3.484
 3697TIP3    H111034   3.252   4.051   3.496
 3697TIP3    H211035   3.150   4.148   3.439
 3698TIP3   OH211036   3.215   3.794   1.679
 3698TIP3    H111037   3.269   3.763   1.753
 3698TIP3    H211038   3.282   3.799   1.608
 3699TIP3   OH211039   3.847   4.238   3.258
 3699TIP3    H111040   3.799   4.253   3.174
 3699TIP3    H211041   3.875   4.144   3.249
 3700TIP3   OH211042   3.731   3.997   1.487
 3700TIP3    H111043   3.730   4.008   1.584
 3700TIP3    H211044   3.729   3.899   1.480
 3701TIP3   OH211045   4.339   4.238   2.856
 3701TIP3    H111046   4.321   4.335   2.848
 3701TIP3    H211047   4.254   4.213   2.897
 3702TIP3   OH211048   3.365   3.881   3.462
 3702TIP3    H111049   3.441   3.827   3.437
 3702TIP3    H211050   3.389   3.908   3.553
 3703TIP3   OH211051   3.422   3.701   1.901
 3703TIP3    H111052   3.390   3.662   1.983
 3703TIP3    H211053   3.457   3.624   1.852
 3704TIP3   OH211054   3.712   3.755   3.135
 3704TIP3    H111055   3.631   3.810   3.141
 3704TIP3    H211056   3.751   3.788   3.050
 3705TIP3   OH211057   3.523   3.496   1.739
 3705TIP3    H111058   3.497   3.503   1.645
 3705TIP3    H211059   3.620   3.499   1.732
 3706TIP3   OH211060   4.209   4.165   3.262
 3706TIP3    H111061   4.305   4.163   3.272
 3706TIP3    H211062   4.182   4.099   3.329
 3707TIP3   OH211063   4.342   3.823   1.407
 3707TIP3    H111064   4.322   3.779   1.322
 3707TIP3    H211065   4.309   3.914   1.386
 3708TIP3   OH211066   3.777   3.503   3.248
 3708TIP3    H111067   3.804   3.468   3.162
 3708TIP3    H211068   3.744   3.591   3.223
 3709TIP3   OH211069   3.799   3.314   3.030
 3709TIP3    H111070   3.842   3.369   2.962
 3709TIP3    H211071   3.706   3.318   3.003
 3710TIP3   OH211072   3.841   3.862   2.918
 3710TIP3    H111073   3.926   3.889   2.881
 3710TIP3    H211074   3.781   3.931   2.883
 3711TIP3   OH211075   4.428   3.834   3.312
 3711TIP3    H111076   4.463   3.753   3.354
 3711TIP3    H211077   4.509   3.886   3.303
 3712TIP3   OH211078   3.627   3.662   3.445
 3712TIP3    H111079   3.587   3.669   3.534
 3712TIP3    H211080   3.718   3.692   3.466
 3713TIP3   OH211081   3.946   3.097   3.127
 3713TIP3    H111082   3.891   3.172   3.095
 3713TIP3    H211083   3.882   3.023   3.120
 3714TIP3   OH211084   4.086   3.597   3.328
 3714TIP3    H111085   4.081   3.611   3.425
 3714TIP3    H211086   3.993   3.574   3.315
 3715TIP3   OH211087   4.317   3.536   3.186
 3715TIP3    H111088   4.242   3.546   3.248
 3715TIP3    H211089   4.390   3.514   3.247
 3716TIP3   OH211090   4.543   3.492   3.338
 3716TIP3    H111091   4.556   3.398   3.363
 3716TIP3    H211092   4.536   3.537   3.425
 3717TIP3   OH211093   3.562   3.394   3.534
 3717TIP3    H111094   3.547   3.307   3.573
 3717TIP3    H211095   3.574   3.445   3.616
 3718TIP3   OH211096   4.042   3.124   3.385
 3718TIP3    H111097   4.107   3.051   3.388
 3718TIP3    H211098   4.002   3.109   3.297
 3719TIP3   OH211099   4.103   3.342   3.552
 3719TIP3    H111100   4.076   3.272   3.488
 3719TIP3    H211101   4.027   3.403   3.553
 3720TIP3   OH211102   3.331   4.557   1.648
 3720TIP3    H111103   3.426   4.549   1.627
 3720TIP3    H211104   3.303   4.608   1.569
 3721TIP3   OH211105   2.809   3.939   1.859
 3721TIP3    H111106   2.904   3.959   1.846
 3721TIP3    H211107   2.802   3.850   1.819
 3722TIP3   OH211108   2.728   4.550   2.278
 3722TIP3    H111109   2.661   4.489   2.239
 3722TIP3    H211110   2.771   4.490   2.343
 3723TIP3   OH211111   2.861   4.396   2.464
 3723TIP3    H111112   2.848   4.326   2.530
 3723TIP3    H211113   2.912   4.460   2.517
 3724TIP3   OH211114   4.591   4.795   2.265
 3724TIP3    H111115   4.614   4.833   2.352
 3724TIP3    H211116   4.649   4.845   2.206
 3725TIP3   OH211117   4.615   4.821   2.547
 3725TIP3    H111118   4.574   4.732   2.544
 3725TIP3    H211119   4.692   4.802   2.603
 3726TIP3   OH211120   4.660   4.492   3.115
 3726TIP3    H111121   4.591   4.504   3.183
 3726TIP3    H211122   4.705   4.579   3.119
 3727TIP3   OH211123   4.481   4.010   1.737
 3727TIP3    H111124   4.546   4.076   1.707
 3727TIP3    H211125   4.526   3.973   1.816
 3728TIP3   OH211126   4.609   3.877   1.942
 3728TIP3    H111127   4.541   3.836   2.000
 3728TIP3    H211128   4.673   3.914   2.006
 3729TIP3   OH211129   4.652   4.261   2.392
 3729TIP3    H111130   4.706   4.198   2.339
 3729TIP3    H211131   4.647   4.337   2.331
 3730TIP3   OH211132   4.489   4.572   2.578
 3730TIP3    H111133   4.418   4.622   2.623
 3730TIP3    H211134   4.440   4.529   2.504
 3731TIP3   OH211135   4.545   3.786   1.588
 3731TIP3    H111136   4.473   3.788   1.520
 3731TIP3    H211137   4.517   3.862   1.643
 3732TIP3   OH211138   4.418   3.457   1.540
 3732TIP3    H111139   4.369   3.495   1.466
 3732TIP3    H211140   4.394   3.362   1.530
 3733TIP3   OH211141   4.420   3.737   2.088
 3733TIP3    H111142   4.426   3.640   2.079
 3733TIP3    H211143   4.405   3.748   2.184
 3734TIP3   OH211144   3.046   3.809   2.836
 3734TIP3    H111145   3.042   3.774   2.744
 3734TIP3    H211146   3.143   3.809   2.851
 3735TIP3   OH211147   4.880   3.985   2.967
 3735TIP3    H111148   4.802   3.931   2.990
 3735TIP3    H211149   4.952   3.920   2.979
 3736TIP3   OH211150   4.360   3.190   1.522
 3736TIP3    H111151   4.430   3.160   1.583
 3736TIP3    H211152   4.283   3.135   1.545
 3737TIP3   OH211153   4.419   3.453   1.981
 3737TIP3    H111154   4.459   3.364   1.996
 3737TIP3    H211155   4.476   3.485   1.909
 3738TIP3   OH211156   4.579   3.621   2.474
 3738TIP3    H111157   4.662   3.651   2.429
 3738TIP3    H211158   4.605   3.641   2.566
 3739TIP3   OH211159   4.650   3.764   2.704
 3739TIP3    H111160   4.557   3.785   2.714
 3739TIP3    H211161   4.686   3.844   2.660
 3740TIP3   OH211162   3.275   3.497   3.516
 3740TIP3    H111163   3.369   3.477   3.508
 3740TIP3    H211164   3.240   3.411   3.546
 3741TIP3   OH211165   5.096   3.360   3.263
 3741TIP3    H111166   5.159   3.296   3.223
 3741TIP3    H211167   5.071   3.414   3.185
 3742TIP3   OH211168   4.526   3.202   2.019
 3742TIP3    H111169   4.574   3.186   2.103
 3742TIP3    H211170   4.464   3.126   2.018
 3743TIP3   OH211171   3.229   3.187   2.831
 3743TIP3    H111172   3.288   3.111   2.847
 3743TIP3    H211173   3.292   3.261   2.834
 3744TIP3   OH211174   3.024   3.460   2.908
 3744TIP3    H111175   3.076   3.457   2.826
 3744TIP3    H211176   3.052   3.543   2.947
 3745TIP3   OH211177   4.972   3.501   3.065
 3745TIP3    H111178   4.887   3.539   3.093
 3745TIP3    H211179   4.939   3.427   3.010
 3746TIP3   OH211180   4.604   3.134   1.656
 3746TIP3    H111181   4.645   3.065   1.599
 3746TIP3    H211182   4.670   3.206   1.652
 3747TIP3   OH211183   3.011   2.966   2.416
 3747TIP3    H111184   2.917   2.955   2.440
 3747TIP3    H211185   3.005   3.026   2.339
 3748TIP3   OH211186   4.171   4.667   1.919
 3748TIP3    H111187   4.224   4.659   1.837
 3748TIP3    H211188   4.220   4.736   1.968
 3749TIP3   OH211189   3.230   3.036   3.221
 3749TIP3    H111190   3.182   3.032   3.305
 3749TIP3    H211191   3.164   3.081   3.165
 3750TIP3   OH211192   3.272   4.474   3.304
 3750TIP3    H111193   3.179   4.449   3.288
 3750TIP3    H211194   3.283   4.452   3.397
 3751TIP3   OH211195   3.452   4.506   2.852
 3751TIP3    H111196   3.403   4.581   2.814
 3751TIP3    H211197   3.537   4.521   2.807
 3752TIP3   OH211198   3.893   4.745   2.988
 3752TIP3    H111199   3.933   4.747   3.077
 3752TIP3    H211200   3.957   4.800   2.938
 3753TIP3   OH211201   4.072   4.902   2.852
 3753TIP3    H111202   4.144   4.854   2.810
 3753TIP3    H211203   4.122   4.961   2.913
 3754TIP3   OH211204   4.870   3.259   2.949
 3754TIP3    H111205   4.778   3.244   2.920
 3754TIP3    H211206   4.906   3.168   2.941
 3755TIP3   OH211207   3.126   4.762   2.877
 3755TIP3    H111208   3.036   4.794   2.855
 3755TIP3    H211209   3.139   4.806   2.962
 3756TIP3   OH211210   3.362   4.741   2.735
 3756TIP3    H111211   3.275   4.753   2.779
 3756TIP3    H211212   3.343   4.773   2.645
 3757TIP3   OH211213   3.789   4.767   2.532
 3757TIP3    H111214   3.718   4.785   2.468
 3757TIP3    H211215   3.800   4.855   2.575
 3758TIP3   OH211216   4.057   4.704   2.583
 3758TIP3    H111217   3.963   4.724   2.566
 3758TIP3    H211218   4.101   4.780   2.542
 3759TIP3   OH211219   4.262   4.897   2.497
 3759TIP3    H111220   4.249   4.983   2.451
 3759TIP3    H211221   4.289   4.839   2.422
 3760TIP3   OH211222   3.038   4.555   2.620
 3760TIP3    H111223   3.064   4.527   2.710
 3760TIP3    H211224   3.110   4.511   2.569
 3761TIP3   OH211225   3.233   4.428   2.479
 3761TIP3    H111226   3.247   4.344   2.529
 3761TIP3    H211227   3.324   4.463   2.476
 3762TIP3   OH211228   3.501   4.520   2.484
 3762TIP3    H111229   3.529   4.426   2.475
 3762TIP3    H211230   3.547   4.543   2.567
 3763TIP3   OH211231   4.076   3.178   2.575
 3763TIP3    H111232   4.031   3.106   2.623
 3763TIP3    H211233   4.146   3.130   2.527
 3764TIP3   OH211234   4.594   3.059   2.472
 3764TIP3    H111235   4.629   3.110   2.396
 3764TIP3    H211236   4.498   3.076   2.465
 3765TIP3   OH211237   4.691   3.156   2.235
 3765TIP3    H111238   4.766   3.105   2.198
 3765TIP3    H211239   4.724   3.247   2.222
 3766TIP3   OH211240   3.322   2.887   2.583
 3766TIP3    H111241   3.229   2.855   2.586
 3766TIP3    H211242   3.369   2.801   2.578
 3767TIP3   OH211243   3.116   2.758   2.236
 3767TIP3    H111244   3.137   2.817   2.162
 3767TIP3    H211245   3.081   2.821   2.303
 3768TIP3   OH211246   3.772   2.914   2.464
 3768TIP3    H111247   3.827   2.965   2.402
 3768TIP3    H211248   3.793   2.955   2.549
 3769TIP3   OH211249   4.311   3.066   2.448
 3769TIP3    H111250   4.309   3.024   2.360
 3769TIP3    H211251   4.300   2.987   2.507
 3770TIP3   OH211252   4.343   2.989   2.012
 3770TIP3    H111253   4.257   3.033   2.028
 3770TIP3    H211254   4.328   2.904   2.057
 3771TIP3   OH211255   2.826   4.330   2.008
 3771TIP3    H111256   2.740   4.297   1.976
 3771TIP3    H211257   2.816   4.424   1.986
 3772TIP3   OH211258   3.227   2.916   1.992
 3772TIP3    H111259   3.275   2.852   1.936
 3772TIP3    H211260   3.301   2.968   2.030
 3773TIP3   OH211261   3.738   3.093   2.093
 3773TIP3    H111262   3.795   3.044   2.154
 3773TIP3    H211263   3.760   3.185   2.119
 3774TIP3   OH211264   3.598   4.512   1.594
 3774TIP3    H111265   3.686   4.535   1.558
 3774TIP3    H211266   3.576   4.437   1.533
 3775TIP3   OH211267   4.318   4.635   1.688
 3775TIP3    H111268   4.310   4.538   1.677
 3775TIP3    H211269   4.272   4.666   1.607
 3776TIP3   OH211270   3.771   3.179   3.577
 3776TIP3    H111271   3.853   3.134   3.552
 3776TIP3    H211272   3.732   3.111   3.636
 3777TIP3   OH211273   2.902   4.352   1.648
 3777TIP3    H111274   2.901   4.371   1.743
 3777TIP3    H211275   2.989   4.309   1.636
 3778TIP3   OH211276   4.605   3.225   3.381
 3778TIP3    H111277   4.622   3.194   3.473
 3778TIP3    H211278   4.695   3.220   3.343
 3779TIP3   OH211279   4.540   4.775   2.872
 3779TIP3    H111280   4.460   4.750   2.822
 3779TIP3    H211281   4.526   4.872   2.879
 3780TIP3   OH211282   5.810   4.151   1.637
 3780TIP3    H111283   5.779   4.242   1.617
 3780TIP3    H211284   5.733   4.100   1.606
 3781TIP3   OH211285   5.811   4.151   2.025
 3781TIP3    H111286   5.845   4.126   2.113
 3781TIP3    H211287   5.768   4.069   1.996
 3782TIP3   OH211288   5.106   4.043   2.392
 3782TIP3    H111289   5.138   3.975   2.454
 3782TIP3    H211290   5.186   4.097   2.380
 3783TIP3   OH211291   6.057   4.450   1.706
 3783TIP3    H111292   6.037   4.386   1.775
 3783TIP3    H211293   6.084   4.528   1.758
 3784TIP3   OH211294   5.081   4.455   2.109
 3784TIP3    H111295   5.073   4.357   2.111
 3784TIP3    H211296   5.177   4.464   2.102
 3785TIP3   OH211297   4.786   3.655   1.892
 3785TIP3    H111298   4.739   3.739   1.911
 3785TIP3    H211299   4.715   3.605   1.850
 3786TIP3   OH211300   4.843   3.945   2.074
 3786TIP3    H111301   4.893   3.867   2.106
 3786TIP3    H211302   4.903   3.983   2.009
 3787TIP3   OH211303   5.704   4.915   1.721
 3787TIP3    H111304   5.746   4.844   1.668
 3787TIP3    H211305   5.695   4.873   1.807
 3788TIP3   OH211306   5.606   4.377   2.070
 3788TIP3    H111307   5.647   4.301   2.026
 3788TIP3    H211308   5.689   4.424   2.096
 3789TIP3   OH211309   6.623   3.697   2.068
 3789TIP3    H111310   6.652   3.780   2.111
 3789TIP3    H211311   6.644   3.715   1.975
 3790TIP3   OH211312   6.020   3.877   2.099
 3790TIP3    H111313   6.062   3.792   2.121
 3790TIP3    H211314   5.988   3.859   2.009
 3791TIP3   OH211315   5.361   3.537   2.065
 3791TIP3    H111316   5.340   3.610   2.003
 3791TIP3    H211317   5.311   3.464   2.022
 3792TIP3   OH211318   6.055   3.628   1.686
 3792TIP3    H111319   6.126   3.614   1.753
 3792TIP3    H211320   6.108   3.664   1.613
 3793TIP3   OH211321   4.992   3.738   2.173
 3793TIP3    H111322   5.075   3.719   2.221
 3793TIP3    H211323   5.006   3.683   2.093
 3794TIP3   OH211324   5.431   3.936   1.971
 3794TIP3    H111325   5.525   3.912   1.982
 3794TIP3    H211326   5.393   3.852   1.937
 3795TIP3   OH211327   6.696   3.908   2.235
 3795TIP3    H111328   6.610   3.951   2.218
 3795TIP3    H211329   6.708   3.929   2.329
 3796TIP3   OH211330   5.355   3.520   2.500
 3796TIP3    H111331   5.295   3.558   2.434
 3796TIP3    H211332   5.303   3.536   2.582
 3797TIP3   OH211333   5.694   4.369   1.510
 3797TIP3    H111334   5.658   4.359   1.421
 3797TIP3    H211335   5.652   4.453   1.537
 3798TIP3   OH211336   5.461   4.296   2.292
 3798TIP3    H111337   5.401   4.365   2.330
 3798TIP3    H211338   5.504   4.345   2.219
 3799TIP3   OH211339   6.260   3.632   1.866
 3799TIP3    H111340   6.239   3.593   1.952
 3799TIP3    H211341   6.311   3.711   1.891
 3800TIP3   OH211342   5.226   3.635   2.284
 3800TIP3    H111343   5.288   3.708   2.309
 3800TIP3    H211344   5.276   3.595   2.210
 3801TIP3   OH211345   5.290   4.493   2.393
 3801TIP3    H111346   5.265   4.580   2.357
 3801TIP3    H211347   5.211   4.475   2.448
 3802TIP3   OH211348   4.681   4.182   1.629
 3802TIP3    H111349   4.641   4.210   1.545
 3802TIP3    H211350   4.713   4.267   1.665
 3803TIP3   OH211351   6.123   4.698   1.868
 3803TIP3    H111352   6.033   4.689   1.909
 3803TIP3    H211353   6.114   4.784   1.823
 3804TIP3   OH211354   6.415   3.596   2.233
 3804TIP3    H111355   6.328   3.625   2.202
 3804TIP3    H211356   6.475   3.629   2.163
 3805TIP3   OH211357   5.706   3.236   2.215
 3805TIP3    H111358   5.693   3.142   2.237
 3805TIP3    H211359   5.630   3.276   2.263
 3806TIP3   OH211360   5.821   4.742   1.541
 3806TIP3    H111361   5.871   4.659   1.521
 3806TIP3    H211362   5.884   4.807   1.503
 3807TIP3   OH211363   5.964   4.525   1.457
 3807TIP3    H111364   5.934   4.445   1.411
 3807TIP3    H211365   6.003   4.489   1.539
 3808TIP3   OH211366   6.348   4.607   2.213
 3808TIP3    H111367   6.334   4.530   2.154
 3808TIP3    H211368   6.329   4.682   2.153
 3809TIP3   OH211369   5.640   4.001   1.473
 3809TIP3    H111370   5.560   4.056   1.453
 3809TIP3    H211371   5.685   4.002   1.387
 3810TIP3   OH211372   5.598   3.789   1.184
 3810TIP3    H111373   5.664   3.841   1.234
 3810TIP3    H211374   5.658   3.727   1.137
 3811TIP3   OH211375   6.543   4.249   2.061
 3811TIP3    H111376   6.458   4.299   2.065
 3811TIP3    H211377   6.573   4.274   1.970
 3812TIP3   OH211378   5.988   4.084   1.442
 3812TIP3    H111379   5.933   4.109   1.519
 3812TIP3    H211380   6.072   4.061   1.486
 3813TIP3   OH211381   6.222   4.123   2.358
 3813TIP3    H111382   6.220   4.205   2.411
 3813TIP3    H211383   6.135   4.129   2.313
 3814TIP3   OH211384   5.219   4.081   1.861
 3814TIP3    H111385   5.179   4.023   1.793
 3814TIP3    H211386   5.296   4.028   1.891
 3815TIP3   OH211387   5.348   4.492   2.008
 3815TIP3    H111388   5.330   4.459   1.919
 3815TIP3    H211389   5.438   4.456   2.025
 3816TIP3   OH211390   5.351   4.055   2.214
 3816TIP3    H111391   5.386   4.029   2.127
 3816TIP3    H211392   5.397   4.140   2.232
 3817TIP3   OH211393   5.883   4.692   1.992
 3817TIP3    H111394   5.868   4.772   2.045
 3817TIP3    H211395   5.865   4.619   2.055
 3818TIP3   OH211396   5.495   4.611   2.538
 3818TIP3    H111397   5.434   4.672   2.584
 3818TIP3    H211398   5.431   4.557   2.487
 3819TIP3   OH211399   5.827   3.943   1.268
 3819TIP3    H111400   5.886   4.004   1.318
 3819TIP3    H211401   5.853   3.964   1.175
 3820TIP3   OH211402   5.252   4.167   2.642
 3820TIP3    H111403   5.255   4.255   2.685
 3820TIP3    H211404   5.158   4.144   2.654
 3821TIP3   OH211405   5.573   4.621   1.546
 3821TIP3    H111406   5.655   4.673   1.553
 3821TIP3    H211407   5.513   4.682   1.501
 3822TIP3   OH211408   5.288   4.778   2.627
 3822TIP3    H111409   5.253   4.781   2.535
 3822TIP3    H211410   5.208   4.755   2.679
 3823TIP3   OH211411   6.344   3.181   1.321
 3823TIP3    H111412   6.262   3.206   1.367
 3823TIP3    H211413   6.360   3.262   1.267
 3824TIP3   OH211414   5.087   3.925   1.662
 3824TIP3    H111415   5.019   3.970   1.608
 3824TIP3    H211416   5.047   3.839   1.676
 3825TIP3   OH211417   6.143   4.547   0.869
 3825TIP3    H111418   6.150   4.644   0.852
 3825TIP3    H211419   6.236   4.519   0.859
 3826TIP3   OH211420   4.866   4.307   2.579
 3826TIP3    H111421   4.812   4.283   2.501
 3826TIP3    H211422   4.910   4.222   2.601
 3827TIP3   OH211423   4.721   4.494   2.219
 3827TIP3    H111424   4.815   4.494   2.199
 3827TIP3    H211425   4.710   4.581   2.262
 3828TIP3   OH211426   6.587   4.956   2.263
 3828TIP3    H111427   6.584   4.859   2.278
 3828TIP3    H211428   6.503   4.982   2.307
 3829TIP3   OH211429   5.691   4.740   2.396
 3829TIP3    H111430   5.690   4.831   2.432
 3829TIP3    H211431   5.619   4.698   2.449
 3830TIP3   OH211432   5.454   4.865   1.349
 3830TIP3    H111433   5.410   4.849   1.264
 3830TIP3    H211434   5.422   4.953   1.374
 3831TIP3   OH211435   4.891   4.716   1.733
 3831TIP3    H111436   4.939   4.708   1.818
 3831TIP3    H211437   4.837   4.635   1.735
 3832TIP3   OH211438   5.652   4.769   0.988
 3832TIP3    H111439   5.710   4.699   0.951
 3832TIP3    H211440   5.690   4.780   1.078
 3833TIP3   OH211441   5.706   4.819   1.257
 3833TIP3    H111442   5.617   4.827   1.299
 3833TIP3    H211443   5.758   4.782   1.330
 3834TIP3   OH211444   6.478   4.085   2.534
 3834TIP3    H111445   6.391   4.094   2.492
 3834TIP3    H211446   6.493   3.989   2.527
 3835TIP3   OH211447   5.071   4.491   2.558
 3835TIP3    H111448   5.121   4.477   2.641
 3835TIP3    H211449   4.997   4.429   2.569
 3836TIP3   OH211450   5.470   3.315   2.346
 3836TIP3    H111451   5.381   3.286   2.318
 3836TIP3    H211452   5.445   3.396   2.395
 3837TIP3   OH211453   6.007   3.429   2.540
 3837TIP3    H111454   6.076   3.402   2.603
 3837TIP3    H211455   5.924   3.410   2.589
 3838TIP3   OH211456   6.243   3.861   2.459
 3838TIP3    H111457   6.192   3.856   2.543
 3838TIP3    H211458   6.218   3.949   2.424
 3839TIP3   OH211459   5.901   3.982   1.011
 3839TIP3    H111460   5.868   3.962   0.922
 3839TIP3    H211461   5.984   4.030   0.990
 3840TIP3   OH211462   5.616   3.362   1.317
 3840TIP3    H111463   5.582   3.359   1.409
 3840TIP3    H211464   5.575   3.281   1.282
 3841TIP3   OH211465   5.402   3.832   2.363
 3841TIP3    H111466   5.355   3.854   2.446
 3841TIP3    H211467   5.386   3.913   2.310
 3842TIP3   OH211468   5.287   3.717   1.877
 3842TIP3    H111469   5.194   3.692   1.896
 3842TIP3    H211470   5.298   3.676   1.789
 3843TIP3   OH211471   5.777   3.802   1.606
 3843TIP3    H111472   5.726   3.873   1.563
 3843TIP3    H211473   5.832   3.770   1.532
 3844TIP3   OH211474   5.952   4.079   2.690
 3844TIP3    H111475   5.930   4.006   2.752
 3844TIP3    H211476   6.046   4.093   2.711
 3845TIP3   OH211477   5.933   3.829   1.843
 3845TIP3    H111478   5.871   3.858   1.773
 3845TIP3    H211479   5.968   3.749   1.798
 3846TIP3   OH211480   5.222   3.859   2.573
 3846TIP3    H111481   5.258   3.920   2.639
 3846TIP3    H211482   5.212   3.776   2.625
 3847TIP3   OH211483   5.272   3.337   1.282
 3847TIP3    H111484   5.262   3.337   1.379
 3847TIP3    H211485   5.195   3.392   1.256
 3848TIP3   OH211486   4.816   3.379   2.154
 3848TIP3    H111487   4.890   3.413   2.209
 3848TIP3    H211488   4.859   3.352   2.072
 3849TIP3   OH211489   4.781   3.361   1.671
 3849TIP3    H111490   4.827   3.399   1.593
 3849TIP3    H211491   4.721   3.435   1.691
 3850TIP3   OH211492   5.943   4.075   2.265
 3850TIP3    H111493   5.977   4.004   2.206
 3850TIP3    H211494   5.914   4.021   2.341
 3851TIP3   OH211495   5.617   3.537   1.937
 3851TIP3    H111496   5.536   3.537   1.992
 3851TIP3    H211497   5.687   3.533   2.004
 3852TIP3   OH211498   5.048   3.596   1.945
 3852TIP3    H111499   4.954   3.603   1.917
 3852TIP3    H211500   5.071   3.504   1.922
 3853TIP3   OH211501   5.314   3.589   1.637
 3853TIP3    H111502   5.408   3.606   1.615
 3853TIP3    H211503   5.267   3.612   1.553
 3854TIP3   OH211504   6.107   3.615   2.138
 3854TIP3    H111505   6.078   3.628   2.231
 3854TIP3    H211506   6.037   3.555   2.107
 3855TIP3   OH211507   5.164   3.624   1.412
 3855TIP3    H111508   5.092   3.580   1.363
 3855TIP3    H211509   5.215   3.663   1.339
 3856TIP3   OH211510   6.278   5.306   2.357
 3856TIP3    H111511   6.278   5.329   2.262
 3856TIP3    H211512   6.358   5.354   2.388
 3857TIP3   OH211513   5.233   4.415   2.782
 3857TIP3    H111514   5.315   4.444   2.828
 3857TIP3    H211515   5.171   4.415   2.857
 3858TIP3   OH211516   5.695   3.868   2.036
 3858TIP3    H111517   5.770   3.829   1.989
 3858TIP3    H211518   5.701   3.825   2.124
 3859TIP3   OH211519   5.215   3.355   1.918
 3859TIP3    H111520   5.180   3.278   1.967
 3859TIP3    H211521   5.264   3.312   1.847
 3860TIP3   OH211522   5.673   3.769   2.322
 3860TIP3    H111523   5.584   3.804   2.339
 3860TIP3    H211524   5.730   3.829   2.375
 3861TIP3   OH211525   5.410   4.153   1.421
 3861TIP3    H111526   5.337   4.089   1.408
 3861TIP3    H211527   5.390   4.188   1.511
 3862TIP3   OH211528   6.308   4.390   2.048
 3862TIP3    H111529   6.330   4.442   1.967
 3862TIP3    H211530   6.223   4.348   2.022
 3863TIP3   OH211531   5.868   3.464   1.286
 3863TIP3    H111532   5.771   3.447   1.294
 3863TIP3    H211533   5.876   3.559   1.309
 3864TIP3   OH211534   5.807   4.473   2.418
 3864TIP3    H111535   5.840   4.455   2.507
 3864TIP3    H211536   5.771   4.563   2.426
 3865TIP3   OH211537   5.936   3.715   1.388
 3865TIP3    H111538   6.032   3.722   1.403
 3865TIP3    H211539   5.916   3.796   1.336
 3866TIP3   OH211540   5.102   4.175   2.095
 3866TIP3    H111541   5.139   4.149   2.009
 3866TIP3    H211542   5.153   4.119   2.156
 3867TIP3   OH211543   5.556   4.304   1.244
 3867TIP3    H111544   5.507   4.390   1.246
 3867TIP3    H211545   5.501   4.250   1.305
 3868TIP3   OH211546   4.989   4.097   2.712
 3868TIP3    H111547   5.009   4.096   2.807
 3868TIP3    H211548   4.924   4.025   2.705
 3869TIP3   OH211549   5.712   4.215   2.728
 3869TIP3    H111550   5.653   4.154   2.682
 3869TIP3    H211551   5.800   4.179   2.701
 3870TIP3   OH211552   5.969   4.733   2.318
 3870TIP3    H111553   5.872   4.732   2.329
 3870TIP3    H211554   5.995   4.788   2.394
 3871TIP3   OH211555   6.377   3.810   1.224
 3871TIP3    H111556   6.316   3.765   1.161
 3871TIP3    H211557   6.375   3.899   1.182
 3872TIP3   OH211558   6.598   4.664   2.302
 3872TIP3    H111559   6.500   4.659   2.294
 3872TIP3    H211560   6.624   4.635   2.212
 3873TIP3   OH211561   6.082   4.624   1.132
 3873TIP3    H111562   6.053   4.549   1.186
 3873TIP3    H211563   6.097   4.583   1.044
 3874TIP3   OH211564   6.075   4.254   1.964
 3874TIP3    H111565   5.981   4.230   1.979
 3874TIP3    H211566   6.108   4.174   1.920
 3875TIP3   OH211567   5.206   4.483   1.723
 3875TIP3    H111568   5.205   4.564   1.667
 3875TIP3    H211569   5.112   4.466   1.732
 3876TIP3   OH211570   4.769   3.785   1.427
 3876TIP3    H111571   4.814   3.870   1.448
 3876TIP3    H211572   4.692   3.789   1.488
 3877TIP3   OH211573   5.336   4.245   1.663
 3877TIP3    H111574   5.304   4.335   1.682
 3877TIP3    H211575   5.301   4.196   1.740
 3878TIP3   OH211576   5.474   4.825   2.189
 3878TIP3    H111577   5.515   4.897   2.138
 3878TIP3    H211578   5.551   4.788   2.236
 3879TIP3   OH211579   5.123   4.720   1.573
 3879TIP3    H111580   5.037   4.731   1.619
 3879TIP3    H211581   5.156   4.813   1.576
 3880TIP3   OH211582   5.858   4.459   2.150
 3880TIP3    H111583   5.847   4.457   2.248
 3880TIP3    H211584   5.939   4.406   2.140
 3881TIP3   OH211585   5.838   4.348   1.035
 3881TIP3    H111586   5.890   4.324   1.115
 3881TIP3    H211587   5.748   4.327   1.064
 3882TIP3   OH211588   6.108   4.991   2.198
 3882TIP3    H111589   6.028   4.936   2.191
 3882TIP3    H211590   6.093   5.056   2.126
 3883TIP3   OH211591   6.172   4.819   0.854
 3883TIP3    H111592   6.196   4.874   0.777
 3883TIP3    H211593   6.099   4.874   0.889
 3884TIP3   OH211594   5.196   3.603   2.715
 3884TIP3    H111595   5.099   3.604   2.729
 3884TIP3    H211596   5.226   3.548   2.790
 3885TIP3   OH211597   5.998   4.287   1.252
 3885TIP3    H111598   5.989   4.219   1.321
 3885TIP3    H211599   6.095   4.283   1.236
 3886TIP3   OH211600   4.912   4.687   2.348
 3886TIP3    H111601   4.969   4.618   2.385
 3886TIP3    H211602   4.936   4.763   2.401
 3887TIP3   OH211603   5.201   4.332   1.033
 3887TIP3    H111604   5.215   4.239   1.006
 3887TIP3    H211605   5.180   4.322   1.127
 3888TIP3   OH211606   5.145   4.338   1.305
 3888TIP3    H111607   5.220   4.313   1.360
 3888TIP3    H211608   5.147   4.436   1.311
 3889TIP3   OH211609   4.879   4.030   1.509
 3889TIP3    H111610   4.813   4.076   1.565
 3889TIP3    H211611   4.893   4.098   1.440
 3890TIP3   OH211612   6.037   3.663   2.398
 3890TIP3    H111613   6.113   3.705   2.442
 3890TIP3    H211614   6.022   3.584   2.454
 3891TIP3   OH211615   5.919   3.413   1.567
 3891TIP3    H111616   5.902   3.437   1.474
 3891TIP3    H211617   5.956   3.497   1.604
 3892TIP3   OH211618   5.413   4.533   1.253
 3892TIP3    H111619   5.326   4.559   1.288
 3892TIP3    H211620   5.430   4.607   1.192
 3893TIP3   OH211621   5.598   3.599   1.667
 3893TIP3    H111622   5.662   3.672   1.651
 3893TIP3    H211623   5.604   3.590   1.765
 3894TIP3   OH211624   5.872   3.915   2.474
 3894TIP3    H111625   5.894   3.969   2.553
 3894TIP3    H211626   5.924   3.835   2.489
 3895TIP3   OH211627   5.743   3.321   1.767
 3895TIP3    H111628   5.737   3.397   1.828
 3895TIP3    H211629   5.806   3.356   1.700
 3896TIP3   OH211630   5.157   4.609   1.322
 3896TIP3    H111631   5.128   4.679   1.259
 3896TIP3    H211632   5.142   4.653   1.408
 3897TIP3   OH211633   5.257   3.325   1.558
 3897TIP3    H111634   5.253   3.415   1.596
 3897TIP3    H211635   5.353   3.308   1.566
 3898TIP3   OH211636   6.509   3.816   2.452
 3898TIP3    H111637   6.411   3.817   2.464
 3898TIP3    H211638   6.515   3.765   2.370
 3899TIP3   OH211639   6.161   4.010   1.842
 3899TIP3    H111640   6.084   3.952   1.856
 3899TIP3    H211641   6.231   3.963   1.892
 3900TIP3   OH211642   4.874   4.236   1.312
 3900TIP3    H111643   4.943   4.304   1.322
 3900TIP3    H211644   4.919   4.179   1.245
 3901TIP3   OH211645   4.815   3.514   1.446
 3901TIP3    H111646   4.819   3.612   1.445
 3901TIP3    H211647   4.732   3.497   1.401
 3902TIP3   OH211648   6.130   4.968   1.791
 3902TIP3    H111649   6.087   5.016   1.717
 3902TIP3    H211650   6.224   4.986   1.770
 3903TIP3   OH211651   5.204   3.236   2.318
 3903TIP3    H111652   5.175   3.200   2.232
 3903TIP3    H211653   5.196   3.158   2.377
 3904TIP3   OH211654   4.740   4.450   1.697
 3904TIP3    H111655   4.676   4.482   1.761
 3904TIP3    H211656   4.710   4.494   1.614
 3905TIP3   OH211657   4.904   5.000   2.771
 3905TIP3    H111658   4.990   5.001   2.818
 3905TIP3    H211659   4.884   4.905   2.770
 3906TIP3   OH211660   5.386   4.959   2.815
 3906TIP3    H111661   5.479   4.931   2.820
 3906TIP3    H211662   5.354   4.900   2.744
 3907TIP3   OH211663   5.364   4.535   0.942
 3907TIP3    H111664   5.310   4.462   0.980
 3907TIP3    H211665   5.440   4.486   0.906
 3908TIP3   OH211666   6.013   4.873   2.551
 3908TIP3    H111667   6.011   4.799   2.616
 3908TIP3    H211668   6.093   4.923   2.579
 3909TIP3   OH211669   5.796   4.574   0.859
 3909TIP3    H111670   5.849   4.515   0.915
 3909TIP3    H211671   5.848   4.575   0.776
 3910TIP3   OH211672   5.035   4.400   2.977
 3910TIP3    H111673   5.052   4.304   2.976
 3910TIP3    H211674   4.952   4.407   2.925
 3911TIP3   OH211675   5.010   4.049   1.167
 3911TIP3    H111676   5.068   4.022   1.241
 3911TIP3    H211677   5.076   4.056   1.095
 3912TIP3   OH211678   5.639   4.490   2.746
 3912TIP3    H111679   5.599   4.509   2.658
 3912TIP3    H211680   5.671   4.398   2.735
 3913TIP3   OH211681   5.523   4.250   0.974
 3913TIP3    H111682   5.526   4.263   1.071
 3913TIP3    H211683   5.522   4.153   0.969
 3914TIP3   OH211684   6.131   4.500   2.352
 3914TIP3    H111685   6.207   4.543   2.309
 3914TIP3    H211686   6.062   4.568   2.338
 3915TIP3   OH211687   5.153   4.138   2.953
 3915TIP3    H111688   5.229   4.083   2.929
 3915TIP3    H211689   5.180   4.170   3.042
 3916TIP3   OH211690   5.214   3.958   1.385
 3916TIP3    H111691   5.188   3.918   1.470
 3916TIP3    H211692   5.253   3.882   1.337
 3917TIP3   OH211693   5.484   4.017   2.612
 3917TIP3    H111694   5.409   4.080   2.615
 3917TIP3    H211695   5.537   4.054   2.538
 3918TIP3   OH211696   5.320   3.752   1.227
 3918TIP3    H111697   5.294   3.761   1.133
 3918TIP3    H211698   5.417   3.755   1.220
 3919TIP3   OH211699   6.005   4.419   2.749
 3919TIP3    H111700   6.085   4.391   2.704
 3919TIP3    H211701   6.001   4.357   2.824
 3920TIP3   OH211702   6.136   4.077   0.897
 3920TIP3    H111703   6.118   4.035   0.810
 3920TIP3    H211704   6.106   4.169   0.876
 3921TIP3   OH211705   5.610   3.811   2.740
 3921TIP3    H111706   5.611   3.731   2.683
 3921TIP3    H211707   5.565   3.877   2.683
 3922TIP3   OH211708   5.613   3.598   2.549
 3922TIP3    H111709   5.641   3.638   2.464
 3922TIP3    H211710   5.520   3.574   2.530
 3923TIP3   OH211711   5.636   4.130   2.422
 3923TIP3    H111712   5.722   4.144   2.381
 3923TIP3    H211713   5.580   4.196   2.376
 3924TIP3   OH211714   6.214   4.096   2.799
 3924TIP3    H111715   6.262   4.017   2.830
 3924TIP3    H211716   6.287   4.155   2.774
 3925TIP3   OH211717   6.261   4.351   2.536
 3925TIP3    H111718   6.203   4.406   2.478
 3925TIP3    H211719   6.349   4.373   2.497
 3926TIP3   OH211720   5.484   3.919   2.970
 3926TIP3    H111721   5.418   3.849   2.988
 3926TIP3    H211722   5.521   3.889   2.884
 3927TIP3   OH211723   5.744   3.358   2.617
 3927TIP3    H111724   5.694   3.440   2.595
 3927TIP3    H211725   5.676   3.289   2.607
 3928TIP3   OH211726   5.871   3.862   2.833
 3928TIP3    H111727   5.862   3.847   2.929
 3928TIP3    H211728   5.781   3.838   2.804
 3929TIP3   OH211729   6.106   3.808   2.685
 3929TIP3    H111730   6.034   3.812   2.751
 3929TIP3    H211731   6.183   3.780   2.739
 3930TIP3   OH211732   6.339   3.748   2.826
 3930TIP3    H111733   6.352   3.654   2.848
 3930TIP3    H211734   6.331   3.791   2.914
 3931TIP3   OH211735   5.322   3.700   3.027
 3931TIP3    H111736   5.328   3.608   2.996
 3931TIP3    H211737   5.361   3.691   3.116
 3932TIP3   OH211738   5.838   3.369   2.875
 3932TIP3    H111739   5.905   3.298   2.871
 3932TIP3    H211740   5.798   3.363   2.786
 3933TIP3   OH211741   5.905   3.584   3.034
 3933TIP3    H111742   5.884   3.512   2.970
 3933TIP3    H211743   5.825   3.641   3.027
 3934TIP3   OH211744   5.127   4.810   1.134
 3934TIP3    H111745   5.223   4.804   1.116
 3934TIP3    H211746   5.100   4.863   1.056
 3935TIP3   OH211747   4.606   4.195   1.348
 3935TIP3    H111748   4.700   4.217   1.334
 3935TIP3    H211749   4.600   4.106   1.307
 3936TIP3   OH211750   4.523   4.806   1.764
 3936TIP3    H111751   4.456   4.746   1.725
 3936TIP3    H211752   4.567   4.747   1.828
 3937TIP3   OH211753   4.658   4.653   1.949
 3937TIP3    H111754   4.641   4.584   2.015
 3937TIP3    H211755   4.710   4.716   2.002
 3938TIP3   OH211756   6.387   5.050   1.752
 3938TIP3    H111757   6.411   5.088   1.839
 3938TIP3    H211758   6.444   5.099   1.691
 3939TIP3   OH211759   6.411   5.078   2.034
 3939TIP3    H111760   6.367   4.991   2.029
 3939TIP3    H211761   6.486   5.054   2.091
 3940TIP3   OH211762   6.458   4.756   2.607
 3940TIP3    H111763   6.385   4.767   2.672
 3940TIP3    H211764   6.501   4.844   2.611
 3941TIP3   OH211765   6.276   4.265   1.225
 3941TIP3    H111766   6.338   4.333   1.191
 3941TIP3    H211767   6.325   4.231   1.303
 3942TIP3   OH211768   6.409   4.135   1.435
 3942TIP3    H111769   6.335   4.091   1.483
 3942TIP3    H211770   6.452   4.184   1.506
 3943TIP3   OH211771   6.463   4.528   1.863
 3943TIP3    H111772   6.512   4.464   1.808
 3943TIP3    H211773   6.456   4.605   1.803
 3944TIP3   OH211774   6.287   4.827   2.055
 3944TIP3    H111775   6.215   4.871   2.105
 3944TIP3    H211776   6.237   4.783   1.983
 3945TIP3   OH211777   6.340   4.042   1.074
 3945TIP3    H111778   6.270   4.043   1.006
 3945TIP3    H211779   6.312   4.120   1.127
 3946TIP3   OH211780   6.212   3.715   1.031
 3946TIP3    H111781   6.170   3.756   0.955
 3946TIP3    H211782   6.187   3.621   1.018
 3947TIP3   OH211783   6.218   3.994   1.574
 3947TIP3    H111784   6.224   3.898   1.565
 3947TIP3    H211785   6.202   4.006   1.670
 3948TIP3   OH211786   4.843   4.065   2.325
 3948TIP3    H111787   4.839   4.032   2.233
 3948TIP3    H211788   4.940   4.066   2.339
 3949TIP3   OH211789   6.508   4.417   2.432
 3949TIP3    H111790   6.579   4.351   2.421
 3949TIP3    H211791   6.534   4.487   2.369
 3950TIP3   OH211792   6.692   4.219   2.436
 3950TIP3    H111793   6.617   4.171   2.479
 3950TIP3    H211794   6.764   4.155   2.456
 3951TIP3   OH211795   6.156   3.448   1.011
 3951TIP3    H111796   6.229   3.417   1.068
 3951TIP3    H211797   6.083   3.388   1.032
 3952TIP3   OH211798   6.214   3.710   1.467
 3952TIP3    H111799   6.255   3.622   1.481
 3952TIP3    H211800   6.271   3.743   1.395
 3953TIP3   OH211801   6.372   3.877   1.965
 3953TIP3    H111802   6.458   3.902   1.923
 3953TIP3    H211803   6.386   3.916   2.053
 3954TIP3   OH211804   6.443   4.025   2.192
 3954TIP3    H111805   6.368   4.058   2.245
 3954TIP3    H211806   6.476   4.108   2.151
 3955TIP3   OH211807   5.053   3.760   2.996
 3955TIP3    H111808   5.151   3.756   2.998
 3955TIP3    H211809   5.032   3.673   3.034
 3956TIP3   OH211810   6.898   3.620   2.750
 3956TIP3    H111811   6.957   3.554   2.707
 3956TIP3    H211812   6.866   3.672   2.673
 3957TIP3   OH211813   6.322   3.459   1.505
 3957TIP3    H111814   6.370   3.444   1.589
 3957TIP3    H211815   6.260   3.383   1.505
 3958TIP3   OH211816   5.021   3.446   2.330
 3958TIP3    H111817   5.081   3.369   2.338
 3958TIP3    H211818   5.085   3.518   2.320
 3959TIP3   OH211819   4.821   3.719   2.394
 3959TIP3    H111820   4.871   3.709   2.310
 3959TIP3    H211821   4.863   3.798   2.431
 3960TIP3   OH211822   6.765   3.756   2.554
 3960TIP3    H111823   6.683   3.799   2.584
 3960TIP3    H211824   6.728   3.685   2.498
 3961TIP3   OH211825   6.401   3.388   1.143
 3961TIP3    H111826   6.442   3.321   1.085
 3961TIP3    H211827   6.466   3.461   1.139
 3962TIP3   OH211828   4.808   3.217   1.898
 3962TIP3    H111829   4.716   3.214   1.929
 3962TIP3    H211830   4.803   3.278   1.822
 3963TIP3   OH211831   5.968   4.925   1.409
 3963TIP3    H111832   6.016   4.912   1.324
 3963TIP3    H211833   6.022   4.995   1.449
 3964TIP3   OH211834   5.028   3.302   2.714
 3964TIP3    H111835   4.978   3.295   2.797
 3964TIP3    H211836   4.960   3.338   2.654
 3965TIP3   OH211837   5.069   4.728   2.790
 3965TIP3    H111838   4.976   4.706   2.775
 3965TIP3    H211839   5.079   4.712   2.885
 3966TIP3   OH211840   5.248   4.764   2.339
 3966TIP3    H111841   5.200   4.840   2.300
 3966TIP3    H211842   5.334   4.777   2.294
 3967TIP3   OH211843   5.694   5.005   2.489
 3967TIP3    H111844   5.739   5.011   2.576
 3967TIP3    H211845   5.757   5.055   2.432
 3968TIP3   OH211846   5.867   5.158   2.340
 3968TIP3    H111847   5.935   5.108   2.293
 3968TIP3    H211848   5.922   5.215   2.398
 3969TIP3   OH211849   6.665   3.517   2.435
 3969TIP3    H111850   6.574   3.506   2.403
 3969TIP3    H211851   6.699   3.425   2.427
 3970TIP3   OH211852   4.921   5.016   2.366
 3970TIP3    H111853   4.831   5.046   2.342
 3970TIP3    H211854   4.936   5.067   2.447
 3971TIP3   OH211855   5.158   4.997   2.223
 3971TIP3    H111856   5.071   5.009   2.266
 3971TIP3    H211857   5.140   5.030   2.133
 3972TIP3   OH211858   5.584   5.023   2.021
 3972TIP3    H111859   5.515   5.041   1.954
 3972TIP3    H211860   5.595   5.112   2.060
 3973TIP3   OH211861   5.853   4.963   2.073
 3973TIP3    H111862   5.759   4.981   2.053
 3973TIP3    H211863   5.898   5.035   2.026
 3974TIP3   OH211864   6.059   5.154   1.984
 3974TIP3    H111865   6.045   5.239   1.937
 3974TIP3    H211866   6.085   5.095   1.910
 3975TIP3   OH211867   4.833   4.810   2.105
 3975TIP3    H111868   4.859   4.784   2.196
 3975TIP3    H211869   4.907   4.768   2.055
 3976TIP3   OH211870   5.029   4.683   1.966
 3976TIP3    H111871   5.045   4.599   2.016
 3976TIP3    H211872   5.120   4.720   1.962
 3977TIP3   OH211873   5.295   4.776   1.972
 3977TIP3    H111874   5.326   4.685   1.960
 3977TIP3    H211875   5.342   4.799   2.054
 3978TIP3   OH211876   5.867   3.432   2.053
 3978TIP3    H111877   5.826   3.362   2.107
 3978TIP3    H211878   5.944   3.386   2.014
 3979TIP3   OH211879   6.389   3.308   1.953
 3979TIP3    H111880   6.426   3.365   1.882
 3979TIP3    H211881   6.295   3.335   1.954
 3980TIP3   OH211882   6.486   3.414   1.721
 3980TIP3    H111883   6.562   3.363   1.684
 3980TIP3    H211884   6.520   3.505   1.708
 3981TIP3   OH211885   5.118   3.141   2.069
 3981TIP3    H111886   5.026   3.108   2.074
 3981TIP3    H211887   5.167   3.056   2.067
 3982TIP3   OH211888   4.908   3.014   1.718
 3982TIP3    H111889   4.935   3.073   1.646
 3982TIP3    H211890   4.879   3.078   1.786
 3983TIP3   OH211891   5.564   3.174   1.953
 3983TIP3    H111892   5.620   3.224   1.892
 3983TIP3    H211893   5.590   3.211   2.039
 3984TIP3   OH211894   6.105   3.322   1.937
 3984TIP3    H111895   6.106   3.282   1.850
 3984TIP3    H211896   6.094   3.243   1.995
 3985TIP3   OH211897   6.138   3.247   1.499
 3985TIP3    H111898   6.055   3.295   1.517
 3985TIP3    H211899   6.123   3.165   1.550
 3986TIP3   OH211900   4.622   4.587   1.497
 3986TIP3    H111901   4.536   4.555   1.465
 3986TIP3    H211902   4.613   4.681   1.475
 3987TIP3   OH211903   5.024   3.170   1.482
 3987TIP3    H111904   5.073   3.109   1.424
 3987TIP3    H211905   5.097   3.225   1.518
 3988TIP3   OH211906   5.534   3.348   1.582
 3988TIP3    H111907   5.594   3.304   1.644
 3988TIP3    H211908   5.554   3.442   1.605
 3989TIP3   OH211909   5.395   4.769   1.083
 3989TIP3    H111910   5.483   4.793   1.047
 3989TIP3    H211911   5.372   4.696   1.021
 3990TIP3   OH211912   6.111   4.891   1.177
 3990TIP3    H111913   6.106   4.794   1.163
 3990TIP3    H211914   6.069   4.924   1.094
 3991TIP3   OH211915   5.326   3.423   2.960
 3991TIP3    H111916   5.290   3.353   3.018
 3991TIP3    H211917   5.420   3.423   2.990
 3992TIP3   OH211918   5.575   3.419   3.080
 3992TIP3    H111919   5.662   3.394   3.043
 3992TIP3    H211920   5.562   3.350   3.148
 3993TIP3   OH211921   4.696   4.605   1.134
 3993TIP3    H111922   4.701   4.629   1.228
 3993TIP3    H211923   4.784   4.563   1.119
 3994TIP3   OH211924   6.402   3.480   2.868
 3994TIP3    H111925   6.418   3.451   2.961
 3994TIP3    H211926   6.492   3.476   2.830
 3995TIP3   OH211927   6.339   5.036   2.357
 3995TIP3    H111928   6.260   5.004   2.309
 3995TIP3    H211929   6.318   5.132   2.363
 3996TIP3   OH211930   7.591   4.405   1.149
 3996TIP3    H111931   7.564   4.495   1.120
 3996TIP3    H211932   7.533   4.353   1.091
 3997TIP3   OH211933   7.586   4.409   1.514
 3997TIP3    H111934   7.627   4.379   1.597
 3997TIP3    H211935   7.605   4.337   1.453
 3998TIP3   OH211936   6.927   4.305   1.857
 3998TIP3    H111937   6.943   4.231   1.919
 3998TIP3    H211938   6.969   4.378   1.906
 3999TIP3   OH211939   7.841   4.711   1.190
 3999TIP3    H111940   7.835   4.640   1.255
 3999TIP3    H211941   7.879   4.785   1.240
 4000TIP3   OH211942   6.885   4.714   1.598
 4000TIP3    H111943   6.886   4.617   1.604
 4000TIP3    H211944   6.980   4.730   1.584
 4001TIP3   OH211945   6.582   3.917   1.381
 4001TIP3    H111946   6.528   3.996   1.398
 4001TIP3    H211947   6.516   3.861   1.337
 4002TIP3   OH211948   6.665   4.213   1.556
 4002TIP3    H111949   6.702   4.129   1.591
 4002TIP3    H211950   6.672   4.200   1.461
 4003TIP3   OH211951   7.503   5.176   1.211
 4003TIP3    H111952   7.540   5.104   1.156
 4003TIP3    H211953   7.488   5.130   1.295
 4004TIP3   OH211954   7.402   4.629   1.554
 4004TIP3    H111955   7.452   4.552   1.521
 4004TIP3    H211956   7.478   4.684   1.579
 4005TIP3   OH211957   7.775   4.152   1.591
 4005TIP3    H111958   7.795   4.060   1.615
 4005TIP3    H211959   7.768   4.142   1.494
 4006TIP3   OH211960   7.151   3.795   1.555
 4006TIP3    H111961   7.136   3.865   1.488
 4006TIP3    H211962   7.106   3.719   1.510
 4007TIP3   OH211963   7.848   3.897   1.189
 4007TIP3    H111964   7.921   3.835   1.207
 4007TIP3    H211965   7.893   3.964   1.135
 4008TIP3   OH211966   6.788   3.994   1.661
 4008TIP3    H111967   6.869   3.970   1.710
 4008TIP3    H211968   6.800   3.938   1.581
 4009TIP3   OH211969   7.151   3.780   1.988
 4009TIP3    H111970   7.087   3.811   1.922
 4009TIP3    H211971   7.099   3.794   2.070
 4010TIP3   OH211972   7.473   4.613   1.008
 4010TIP3    H111973   7.469   4.614   0.911
 4010TIP3    H211974   7.443   4.703   1.029
 4011TIP3   OH211975   7.256   4.549   1.785
 4011TIP3    H111976   7.191   4.615   1.816
 4011TIP3    H211977   7.289   4.589   1.703
 4012TIP3   OH211978   7.021   3.894   1.772
 4012TIP3    H111979   7.082   3.968   1.792
 4012TIP3    H211980   7.069   3.851   1.697
 4013TIP3   OH211981   7.085   4.748   1.880
 4013TIP3    H111982   7.062   4.835   1.842
 4013TIP3    H211983   7.006   4.733   1.936
 4014TIP3   OH211984   6.475   4.436   1.120
 4014TIP3    H111985   6.438   4.454   1.030
 4014TIP3    H211986   6.504   4.525   1.147
 4015TIP3   OH211987   7.926   4.953   1.368
 4015TIP3    H111988   7.834   4.943   1.404
 4015TIP3    H211989   7.915   5.033   1.314
 4016TIP3   OH211990   7.494   3.486   1.704
 4016TIP3    H111991   7.477   3.391   1.723
 4016TIP3    H211992   7.417   3.527   1.749
 4017TIP3   OH211993   7.615   5.000   1.030
 4017TIP3    H111994   7.656   4.913   1.007
 4017TIP3    H211995   7.682   5.059   0.989
 4018TIP3   OH211996   7.738   4.775   0.936
 4018TIP3    H111997   7.758   4.703   0.873
 4018TIP3    H211998   7.787   4.745   1.015
 4019TIP3   OH211999   8.181   4.831   1.677
 4019TIP3    H112000   8.117   4.836   1.603
 4019TIP3    H212001   8.190   4.926   1.694
 4020TIP3   OH212002   7.440   4.263   0.959
 4020TIP3    H112003   7.360   4.317   0.940
 4020TIP3    H212004   7.485   4.265   0.873
 4021TIP3   OH212005   7.388   4.054   0.681
 4021TIP3    H112006   7.464   4.099   0.723
 4021TIP3    H212007   7.436   3.978   0.640
 4022TIP3   OH212008   7.761   4.327   0.932
 4022TIP3    H112009   7.741   4.358   1.022
 4022TIP3    H212010   7.860   4.333   0.929
 4023TIP3   OH212011   8.004   4.381   1.841
 4023TIP3    H112012   7.998   4.448   1.910
 4023TIP3    H212013   7.916   4.387   1.799
 4024TIP3   OH212014   7.146   4.750   1.491
 4024TIP3    H112015   7.126   4.722   1.400
 4024TIP3    H212016   7.233   4.710   1.508
 4025TIP3   OH212017   7.681   4.948   1.480
 4025TIP3    H112018   7.663   5.031   1.529
 4025TIP3    H212019   7.659   4.878   1.544
 4026TIP3   OH212020   7.291   4.865   2.026
 4026TIP3    H112021   7.229   4.927   2.071
 4026TIP3    H212022   7.227   4.812   1.973
 4027TIP3   OH212023   7.622   4.197   0.745
 4027TIP3    H112024   7.674   4.253   0.808
 4027TIP3    H212025   7.676   4.204   0.664
 4028TIP3   OH212026   7.036   4.424   2.114
 4028TIP3    H112027   7.047   4.511   2.159
 4028TIP3    H212028   6.947   4.401   2.147
 4029TIP3   OH212029   7.365   4.881   1.042
 4029TIP3    H112030   7.451   4.928   1.041
 4029TIP3    H212031   7.312   4.936   0.984
 4030TIP3   OH212032   7.085   5.033   2.113
 4030TIP3    H112033   7.050   5.036   2.022
 4030TIP3    H212034   7.004   5.011   2.166
 4031TIP3   OH212035   6.877   4.183   1.151
 4031TIP3    H112036   6.810   4.229   1.097
 4031TIP3    H212037   6.841   4.094   1.156
 4032TIP3   OH212038   6.663   4.565   2.059
 4032TIP3    H112039   6.593   4.546   1.993
 4032TIP3    H212040   6.696   4.475   2.082
 4033TIP3   OH212041   6.518   4.758   1.696
 4033TIP3    H112042   6.613   4.765   1.686
 4033TIP3    H212043   6.497   4.839   1.744
 4034TIP3   OH212044   7.489   4.992   1.883
 4034TIP3    H112045   7.487   5.085   1.914
 4034TIP3    H212046   7.416   4.953   1.936
 4035TIP3   OH212047   7.253   5.130   0.833
 4035TIP3    H112048   7.189   5.109   0.764
 4035TIP3    H212049   7.221   5.216   0.866
 4036TIP3   OH212050   6.688   4.974   1.217
 4036TIP3    H112051   6.731   4.963   1.305
 4036TIP3    H212052   6.629   4.896   1.216
 4037TIP3   OH212053   7.485   5.011   0.743
 4037TIP3    H112054   7.406   5.058   0.775
 4037TIP3    H212055   7.550   5.030   0.812
 4038TIP3   OH212056   6.868   4.748   2.044
 4038TIP3    H112057   6.916   4.733   2.128
 4038TIP3    H212058   6.793   4.685   2.053
 4039TIP3   OH212059   7.265   3.572   1.835
 4039TIP3    H112060   7.177   3.541   1.805
 4039TIP3    H212061   7.238   3.653   1.883
 4040TIP3   OH212062   7.765   3.709   2.008
 4040TIP3    H112063   7.832   3.669   2.068
 4040TIP3    H212064   7.682   3.685   2.054
 4041TIP3   OH212065   8.076   4.113   1.954
 4041TIP3    H112066   8.014   4.117   2.030
 4041TIP3    H212067   8.055   4.196   1.907
 4042TIP3   OH212068   7.417   3.620   0.805
 4042TIP3    H112069   7.380   3.614   0.895
 4042TIP3    H212070   7.379   3.538   0.766
 4043TIP3   OH212071   7.189   4.109   1.846
 4043TIP3    H112072   7.146   4.098   1.934
 4043TIP3    H212073   7.177   4.204   1.834
 4044TIP3   OH212074   7.091   3.991   1.374
 4044TIP3    H112075   6.997   3.966   1.390
 4044TIP3    H212076   7.102   3.952   1.285
 4045TIP3   OH212077   7.574   4.059   1.089
 4045TIP3    H112078   7.525   4.130   1.043
 4045TIP3    H212079   7.640   4.033   1.022
 4046TIP3   OH212080   7.748   4.336   2.178
 4046TIP3    H112081   7.724   4.263   2.240
 4046TIP3    H212082   7.842   4.348   2.199
 4047TIP3   OH212083   7.706   4.096   1.331
 4047TIP3    H112084   7.660   4.110   1.245
 4047TIP3    H212085   7.754   4.014   1.306
 4048TIP3   OH212086   7.019   4.109   2.059
 4048TIP3    H112087   7.041   4.173   2.128
 4048TIP3    H212088   7.003   4.028   2.112
 4049TIP3   OH212089   7.064   3.591   0.770
 4049TIP3    H112090   7.057   3.592   0.867
 4049TIP3    H212091   6.989   3.648   0.745
 4050TIP3   OH212092   6.612   3.637   1.639
 4050TIP3    H112093   6.686   3.669   1.694
 4050TIP3    H212094   6.656   3.607   1.557
 4051TIP3   OH212095   6.576   3.618   1.160
 4051TIP3    H112096   6.621   3.654   1.081
 4051TIP3    H212097   6.515   3.692   1.178
 4052TIP3   OH212098   7.731   4.349   1.765
 4052TIP3    H112099   7.761   4.278   1.702
 4052TIP3    H212100   7.703   4.292   1.839
 4053TIP3   OH212101   7.408   3.830   1.431
 4053TIP3    H112102   7.336   3.797   1.488
 4053TIP3    H212103   7.485   3.778   1.465
 4054TIP3   OH212104   6.847   3.854   1.433
 4054TIP3    H112105   6.753   3.860   1.403
 4054TIP3    H212106   6.872   3.763   1.408
 4055TIP3   OH212107   7.107   3.856   1.132
 4055TIP3    H112108   7.202   3.862   1.110
 4055TIP3    H212109   7.063   3.872   1.045
 4056TIP3   OH212110   7.825   3.890   1.623
 4056TIP3    H112111   7.816   3.893   1.720
 4056TIP3    H212112   7.905   3.833   1.613
 4057TIP3   OH212113   6.960   3.879   0.901
 4057TIP3    H112114   6.889   3.837   0.850
 4057TIP3    H212115   7.013   3.918   0.828
 4058TIP3   OH212116   8.066   5.566   1.849
 4058TIP3    H112117   8.060   5.571   1.750
 4058TIP3    H212118   8.140   5.626   1.865
 4059TIP3   OH212119   7.032   4.669   2.265
 4059TIP3    H112120   7.110   4.699   2.314
 4059TIP3    H212121   6.966   4.666   2.338
 4060TIP3   OH212122   7.473   4.113   1.524
 4060TIP3    H112123   7.552   4.087   1.472
 4060TIP3    H212124   7.498   4.076   1.611
 4061TIP3   OH212125   7.014   3.612   1.404
 4061TIP3    H112126   6.979   3.533   1.452
 4061TIP3    H212127   7.062   3.571   1.331
 4062TIP3   OH212128   7.464   4.031   1.813
 4062TIP3    H112129   7.379   4.072   1.834
 4062TIP3    H212130   7.528   4.085   1.863
 4063TIP3   OH212131   7.202   4.412   0.914
 4063TIP3    H112132   7.131   4.345   0.901
 4063TIP3    H212133   7.187   4.439   1.008
 4064TIP3   OH212134   8.095   4.643   1.497
 4064TIP3    H112135   8.111   4.642   1.401
 4064TIP3    H212136   8.007   4.599   1.499
 4065TIP3   OH212137   7.677   3.709   0.784
 4065TIP3    H112138   7.581   3.688   0.781
 4065TIP3    H212139   7.676   3.805   0.766
 4066TIP3   OH212140   7.621   4.735   1.907
 4066TIP3    H112141   7.629   4.711   2.000
 4066TIP3    H212142   7.572   4.819   1.910
 4067TIP3   OH212143   7.765   3.988   0.862
 4067TIP3    H112144   7.848   4.037   0.872
 4067TIP3    H212145   7.712   4.050   0.808
 4068TIP3   OH212146   6.922   4.432   1.588
 4068TIP3    H112147   6.871   4.383   1.523
 4068TIP3    H212148   6.918   4.377   1.667
 4069TIP3   OH212149   7.352   4.569   0.749
 4069TIP3    H112150   7.303   4.654   0.750
 4069TIP3    H212151   7.299   4.516   0.812
 4070TIP3   OH212152   6.782   4.348   2.195
 4070TIP3    H112153   6.796   4.336   2.291
 4070TIP3    H212154   6.709   4.286   2.180
 4071TIP3   OH212155   7.508   4.471   2.213
 4071TIP3    H112156   7.447   4.406   2.174
 4071TIP3    H212157   7.595   4.434   2.186
 4072TIP3   OH212158   7.771   4.986   1.805
 4072TIP3    H112159   7.674   4.985   1.813
 4072TIP3    H212160   7.795   5.041   1.882
 4073TIP3   OH212161   7.866   4.507   1.471
 4073TIP3    H112162   7.770   4.494   1.468
 4073TIP3    H212163   7.899   4.418   1.442
 4074TIP3   OH212164   7.002   4.737   1.209
 4074TIP3    H112165   7.005   4.818   1.154
 4074TIP3    H212166   6.906   4.725   1.216
 4075TIP3   OH212167   6.569   4.042   0.916
 4075TIP3    H112168   6.610   4.129   0.932
 4075TIP3    H212169   6.489   4.048   0.973
 4076TIP3   OH212170   7.137   4.493   1.165
 4076TIP3    H112171   7.125   4.589   1.173
 4076TIP3    H212172   7.056   4.461   1.206
 4077TIP3   OH212173   7.270   5.082   1.676
 4077TIP3    H112174   7.311   5.155   1.625
 4077TIP3    H212175   7.348   5.046   1.722
 4078TIP3   OH212176   6.920   4.972   1.061
 4078TIP3    H112177   6.833   4.983   1.105
 4078TIP3    H212178   6.954   5.065   1.065
 4079TIP3   OH212179   7.653   4.715   1.638
 4079TIP3    H112180   7.642   4.714   1.736
 4079TIP3    H212181   7.732   4.661   1.627
 4080TIP3   OH212182   7.905   5.248   1.680
 4080TIP3    H112183   7.823   5.195   1.673
 4080TIP3    H212184   7.889   5.315   1.610
 4081TIP3   OH212185   6.988   3.859   2.202
 4081TIP3    H112186   6.891   3.862   2.216
 4081TIP3    H212187   7.017   3.804   2.277
 4082TIP3   OH212188   7.793   4.555   0.767
 4082TIP3    H112189   7.778   4.478   0.823
 4082TIP3    H212190   7.883   4.537   0.738
 4083TIP3   OH212191   6.710   4.943   1.834
 4083TIP3    H112192   6.763   4.873   1.874
 4083TIP3    H212193   6.733   5.019   1.889
 4084TIP3   OH212194   7.021   4.574   0.540
 4084TIP3    H112195   7.009   4.482   0.509
 4084TIP3    H212196   6.994   4.568   0.633
 4085TIP3   OH212197   6.945   4.595   0.805
 4085TIP3    H112198   7.023   4.569   0.856
 4085TIP3    H212199   6.948   4.693   0.812
 4086TIP3   OH212200   6.675   4.289   0.996
 4086TIP3    H112201   6.607   4.334   1.050
 4086TIP3    H212202   6.686   4.355   0.924
 4087TIP3   OH212203   7.824   3.951   1.898
 4087TIP3    H112204   7.915   3.965   1.928
 4087TIP3    H212205   7.801   3.866   1.942
 4088TIP3   OH212206   7.684   3.693   1.067
 4088TIP3    H112207   7.686   3.698   0.969
 4088TIP3    H212208   7.737   3.771   1.093
 4089TIP3   OH212209   7.208   4.794   0.731
 4089TIP3    H112210   7.120   4.827   0.758
 4089TIP3    H212211   7.224   4.842   0.649
 4090TIP3   OH212212   7.387   3.860   1.156
 4090TIP3    H112213   7.460   3.923   1.133
 4090TIP3    H212214   7.403   3.848   1.252
 4091TIP3   OH212215   7.663   4.169   1.959
 4091TIP3    H112216   7.695   4.213   2.040
 4091TIP3    H212217   7.723   4.092   1.952
 4092TIP3   OH212218   7.532   3.568   1.253
 4092TIP3    H112219   7.568   3.614   1.332
 4092TIP3    H212220   7.587   3.612   1.183
 4093TIP3   OH212221   6.954   4.866   0.808
 4093TIP3    H112222   6.933   4.939   0.745
 4093TIP3    H212223   6.936   4.909   0.894
 4094TIP3   OH212224   7.051   3.583   1.047
 4094TIP3    H112225   7.048   3.673   1.084
 4094TIP3    H212226   7.148   3.565   1.053
 4095TIP3   OH212227   7.952   4.258   1.380
 4095TIP3    H112228   7.888   4.222   1.316
 4095TIP3    H212229   7.988   4.177   1.418
 4096TIP3   OH212230   6.668   4.494   0.804
 4096TIP3    H112231   6.733   4.565   0.813
 4096TIP3    H212232   6.713   4.438   0.737
 4097TIP3   OH212233   6.610   3.771   0.937
 4097TIP3    H112234   6.617   3.868   0.934
 4097TIP3    H212235   6.536   3.756   0.877
 4098TIP3   OH212236   7.943   5.229   1.278
 4098TIP3    H112237   7.891   5.275   1.208
 4098TIP3    H212238   8.032   5.236   1.240
 4099TIP3   OH212239   7.001   3.493   1.805
 4099TIP3    H112240   6.972   3.458   1.718
 4099TIP3    H212241   6.992   3.415   1.863
 4100TIP3   OH212242   6.538   4.706   1.183
 4100TIP3    H112243   6.473   4.738   1.247
 4100TIP3    H212244   6.506   4.751   1.101
 4101TIP3   OH212245   6.700   5.257   2.259
 4101TIP3    H112246   6.786   5.256   2.305
 4101TIP3    H212247   6.679   5.162   2.257
 4102TIP3   OH212248   7.180   5.213   2.304
 4102TIP3    H112249   7.274   5.190   2.307
 4102TIP3    H212250   7.150   5.154   2.231
 4103TIP3   OH212251   7.814   5.125   2.039
 4103TIP3    H112252   7.809   5.055   2.108
 4103TIP3    H212253   7.892   5.176   2.067
 4104TIP3   OH212254   6.829   4.661   2.457
 4104TIP3    H112255   6.843   4.565   2.468
 4104TIP3    H212256   6.741   4.663   2.413
 4105TIP3   OH212257   6.819   4.317   0.665
 4105TIP3    H112258   6.881   4.286   0.733
 4105TIP3    H212259   6.876   4.320   0.585
 4106TIP3   OH212260   7.436   4.747   2.232
 4106TIP3    H112261   7.392   4.767   2.147
 4106TIP3    H212262   7.465   4.655   2.221
 4107TIP3   OH212263   7.325   4.499   0.490
 4107TIP3    H112264   7.326   4.524   0.585
 4107TIP3    H212265   7.256   4.431   0.488
 4108TIP3   OH212266   7.942   4.748   1.839
 4108TIP3    H112267   7.991   4.824   1.803
 4108TIP3    H212268   7.852   4.785   1.840
 4109TIP3   OH212269   6.952   4.396   2.440
 4109TIP3    H112270   7.024   4.333   2.424
 4109TIP3    H212271   6.976   4.430   2.528
 4110TIP3   OH212272   7.014   4.213   0.875
 4110TIP3    H112273   6.982   4.170   0.956
 4110TIP3    H212274   7.052   4.138   0.825
 4111TIP3   OH212275   7.282   4.279   2.100
 4111TIP3    H112276   7.206   4.339   2.099
 4111TIP3    H212277   7.336   4.313   2.025
 4112TIP3   OH212278   7.116   4.010   0.720
 4112TIP3    H112279   7.091   4.018   0.626
 4112TIP3    H212280   7.214   4.011   0.713
 4113TIP3   OH212281   7.801   4.680   2.236
 4113TIP3    H112282   7.881   4.649   2.191
 4113TIP3    H212283   7.792   4.614   2.307
 4114TIP3   OH212284   7.407   4.068   2.226
 4114TIP3    H112285   7.408   3.988   2.169
 4114TIP3    H212286   7.363   4.134   2.169
 4115TIP3   OH212287   7.409   3.855   2.036
 4115TIP3    H112288   7.438   3.892   1.951
 4115TIP3    H212289   7.316   3.831   2.017
 4116TIP3   OH212290   7.431   4.378   1.900
 4116TIP3    H112291   7.518   4.402   1.866
 4116TIP3    H212292   7.373   4.445   1.856
 4117TIP3   OH212293   8.016   4.357   2.291
 4117TIP3    H112294   8.057   4.269   2.291
 4117TIP3    H212295   8.088   4.412   2.257
 4118TIP3   OH212296   8.064   4.607   2.037
 4118TIP3    H112297   8.016   4.661   1.969
 4118TIP3    H212298   8.155   4.610   2.003
 4119TIP3   OH212299   7.285   4.174   2.459
 4119TIP3    H112300   7.217   4.107   2.477
 4119TIP3    H212301   7.319   4.145   2.372
 4120TIP3   OH212302   7.530   3.616   2.111
 4120TIP3    H112303   7.478   3.696   2.089
 4120TIP3    H212304   7.463   3.545   2.098
 4121TIP3   OH212305   7.666   4.118   2.319
 4121TIP3    H112306   7.652   4.103   2.414
 4121TIP3    H212307   7.577   4.095   2.286
 4122TIP3   OH212308   7.911   4.079   2.174
 4122TIP3    H112309   7.830   4.077   2.229
 4122TIP3    H212310   7.974   4.032   2.233
 4123TIP3   OH212311   8.102   3.973   2.336
 4123TIP3    H112312   8.165   3.902   2.356
 4123TIP3    H212313   8.116   4.035   2.410
 4124TIP3   OH212314   7.124   3.955   2.514
 4124TIP3    H112315   7.127   3.862   2.483
 4124TIP3    H212316   7.161   3.945   2.604
 4125TIP3   OH212317   7.631   3.624   2.366
 4125TIP3    H112318   7.690   3.546   2.360
 4125TIP3    H212319   7.591   3.622   2.277
 4126TIP3   OH212320   7.704   3.844   2.519
 4126TIP3    H112321   7.680   3.772   2.457
 4126TIP3    H212322   7.625   3.901   2.515
 4127TIP3   OH212323   6.940   5.059   0.617
 4127TIP3    H112324   7.021   5.055   0.562
 4127TIP3    H212325   6.881   5.111   0.561
 4128TIP3   OH212326   6.401   4.444   0.853
 4128TIP3    H112327   6.490   4.474   0.823
 4128TIP3    H212328   6.391   4.364   0.797
 4129TIP3   OH212329   6.317   5.064   1.253
 4129TIP3    H112330   6.253   5.003   1.209
 4129TIP3    H212331   6.362   5.002   1.314
 4130TIP3   OH212332   6.455   4.908   1.435
 4130TIP3    H112333   6.438   4.840   1.502
 4130TIP3    H212334   6.506   4.973   1.488
 4131TIP3   OH212335   8.252   5.307   1.516
 4131TIP3    H112336   8.198   5.226   1.509
 4131TIP3    H212337   8.231   5.335   1.605
 4132TIP3   OH212338   8.219   5.029   2.087
 4132TIP3    H112339   8.156   5.028   2.161
 4132TIP3    H212340   8.262   5.116   2.098
 4133TIP3   OH212341   8.089   5.079   1.556
 4133TIP3    H112342   8.019   5.130   1.604
 4133TIP3    H212343   8.036   5.037   1.485
 4134TIP3   OH212344   7.969   4.164   1.102
 4134TIP3    H112345   8.048   4.152   1.046
 4134TIP3    H212346   7.973   4.261   1.105
 4135TIP3   OH212347   6.650   4.315   1.812
 4135TIP3    H112348   6.644   4.286   1.719
 4135TIP3    H212349   6.747   4.317   1.825
 4136TIP3   OH212350   6.859   4.008   2.482
 4136TIP3    H112351   6.956   4.002   2.488
 4136TIP3    H212352   6.833   3.922   2.521
 4137TIP3   OH212353   6.817   3.700   1.813
 4137TIP3    H112354   6.877   3.624   1.822
 4137TIP3    H212355   6.881   3.773   1.806
 4138TIP3   OH212356   6.617   3.972   1.884
 4138TIP3    H112357   6.668   3.970   1.801
 4138TIP3    H212358   6.645   4.056   1.922
 4139TIP3   OH212359   6.604   3.474   1.386
 4139TIP3    H112360   6.512   3.472   1.415
 4139TIP3    H212361   6.600   3.534   1.309
 4140TIP3   OH212362   7.758   5.182   0.880
 4140TIP3    H112363   7.780   5.173   0.786
 4140TIP3    H212364   7.827   5.241   0.912
 4141TIP3   OH212365   6.825   3.558   2.201
 4141TIP3    H112366   6.775   3.551   2.283
 4141TIP3    H212367   6.758   3.595   2.141
 4142TIP3   OH212368   6.864   4.986   2.278
 4142TIP3    H112369   6.771   4.962   2.262
 4142TIP3    H212370   6.874   4.965   2.372
 4143TIP3   OH212371   7.045   5.020   1.827
 4143TIP3    H112372   6.996   5.095   1.787
 4143TIP3    H212373   7.131   5.035   1.781
 4144TIP3   OH212374   7.486   5.259   1.965
 4144TIP3    H112375   7.528   5.262   2.053
 4144TIP3    H212376   7.550   5.312   1.912
 4145TIP3   OH212377   7.662   5.415   1.827
 4145TIP3    H112378   7.732   5.370   1.778
 4145TIP3    H212379   7.716   5.473   1.886
 4146TIP3   OH212380   6.718   5.273   1.853
 4146TIP3    H112381   6.629   5.304   1.827
 4146TIP3    H212382   6.729   5.321   1.936
 4147TIP3   OH212383   6.955   5.253   1.709
 4147TIP3    H112384   6.867   5.266   1.753
 4147TIP3    H212385   6.936   5.285   1.619
 4148TIP3   OH212386   7.379   5.280   1.509
 4148TIP3    H112387   7.310   5.298   1.442
 4148TIP3    H212388   7.392   5.368   1.548
 4149TIP3   OH212389   7.648   5.215   1.562
 4149TIP3    H112390   7.555   5.238   1.540
 4149TIP3    H212391   7.696   5.287   1.518
 4150TIP3   OH212392   7.831   5.401   1.466
 4150TIP3    H112393   7.833   5.492   1.429
 4150TIP3    H212394   7.871   5.349   1.393
 4151TIP3   OH212395   6.629   5.068   1.594
 4151TIP3    H112396   6.656   5.041   1.684
 4151TIP3    H212397   6.701   5.026   1.542
 4152TIP3   OH212398   6.824   4.941   1.454
 4152TIP3    H112399   6.841   4.858   1.504
 4152TIP3    H212400   6.914   4.979   1.448
 4153TIP3   OH212401   7.090   5.036   1.458
 4153TIP3    H112402   7.124   4.946   1.443
 4153TIP3    H212403   7.137   5.058   1.541
 4154TIP3   OH212404   7.614   3.660   1.501
 4154TIP3    H112405   7.602   3.604   1.579
 4154TIP3    H212406   7.711   3.655   1.488
 4155TIP3   OH212407   6.914   3.399   1.558
 4155TIP3    H112408   6.821   3.366   1.561
 4155TIP3    H212409   6.962   3.313   1.554
 4156TIP3   OH212410   6.702   3.268   1.209
 4156TIP3    H112411   6.731   3.323   1.134
 4156TIP3    H212412   6.674   3.336   1.273
 4157TIP3   OH212413   7.359   3.432   1.441
 4157TIP3    H112414   7.411   3.475   1.371
 4157TIP3    H212415   7.399   3.470   1.521
 4158TIP3   OH212416   7.864   3.563   1.424
 4158TIP3    H112417   7.900   3.548   1.336
 4158TIP3    H212418   7.865   3.473   1.462
 4159TIP3   OH212419   6.415   4.849   0.992
 4159TIP3    H112420   6.332   4.814   0.954
 4159TIP3    H212421   6.410   4.939   0.954
 4160TIP3   OH212422   6.821   3.423   0.971
 4160TIP3    H112423   6.869   3.363   0.911
 4160TIP3    H212424   6.894   3.479   1.004
 4161TIP3   OH212425   7.327   3.607   1.069
 4161TIP3    H112426   7.390   3.561   1.127
 4161TIP3    H212427   7.350   3.700   1.091
 4162TIP3   OH212428   7.121   3.681   2.448
 4162TIP3    H112429   7.083   3.611   2.504
 4162TIP3    H212430   7.214   3.680   2.478
 4163TIP3   OH212431   7.370   3.678   2.566
 4163TIP3    H112432   7.457   3.653   2.531
 4163TIP3    H212433   7.356   3.609   2.635
 4164TIP3   OH212434   6.469   4.825   0.648
 4164TIP3    H112435   6.470   4.901   0.708
 4164TIP3    H212436   6.563   4.810   0.630
 4165TIP3   OH212437   8.122   5.297   1.853
 4165TIP3    H112438   8.047   5.267   1.797
 4165TIP3    H212439   8.106   5.393   1.855
 4166TIP3   OH212440   0.057   5.200   2.818
 4166TIP3    H112441   0.021   5.290   2.816
 4166TIP3    H212442  -0.011   5.153   2.766
 4167TIP3   OH212443   0.074   5.182   3.189
 4167TIP3    H112444   0.099   5.153   3.278
 4167TIP3    H212445   0.029   5.104   3.155
 4168TIP3   OH212446   0.302   5.494   2.882
 4168TIP3    H112447   0.296   5.426   2.952
 4168TIP3    H212448   0.333   5.571   2.931
 4169TIP3   OH212449   0.015   5.983   2.909
 4169TIP3    H112450   0.048   5.910   2.854
 4169TIP3    H212451  -0.069   5.946   2.941
 4170TIP3   OH212452  -0.116   5.388   3.267
 4170TIP3    H112453  -0.086   5.315   3.209
 4170TIP3    H212454  -0.033   5.439   3.274
 4171TIP3   OH212455   0.869   4.740   3.244
 4171TIP3    H112456   0.900   4.822   3.287
 4171TIP3    H212457   0.897   4.755   3.152
 4172TIP3   OH212458   0.264   4.922   3.280
 4172TIP3    H112459   0.310   4.837   3.299
 4172TIP3    H212460   0.236   4.906   3.188
 4173TIP3   OH212461   0.302   4.677   2.864
 4173TIP3    H112462   0.373   4.661   2.930
 4173TIP3    H212463   0.356   4.709   2.789
 4174TIP3   OH212464   0.942   4.946   3.418
 4174TIP3    H112465   0.859   4.994   3.400
 4174TIP3    H212466   0.971   4.988   3.501
 4175TIP3   OH212467  -0.078   5.428   2.700
 4175TIP3    H112468  -0.087   5.386   2.613
 4175TIP3    H212469   0.001   5.484   2.685
 4176TIP3   OH212470   0.507   4.681   3.041
 4176TIP3    H112471   0.504   4.628   3.121
 4176TIP3    H212472   0.562   4.756   3.067
 4177TIP3   OH212473   0.360   5.743   3.050
 4177TIP3    H112474   0.269   5.742   3.085
 4177TIP3    H212475   0.358   5.826   2.998
 4178TIP3   OH212476   0.663   4.639   3.409
 4178TIP3    H112477   0.577   4.668   3.374
 4178TIP3    H212478   0.726   4.672   3.341
 4179TIP3   OH212479  -0.036   4.270   3.380
 4179TIP3    H112480  -0.041   4.173   3.398
 4179TIP3    H212481  -0.083   4.304   3.457
 4180TIP3   OH212482   0.077   5.781   2.726
 4180TIP3    H112483   0.113   5.697   2.691
 4180TIP3    H212484   0.130   5.845   2.674
 4181TIP3   OH212485   0.172   5.531   2.639
 4181TIP3    H112486   0.215   5.477   2.570
 4181TIP3    H212487   0.231   5.516   2.716
 4182TIP3   OH212488   0.594   5.651   3.392
 4182TIP3    H112489   0.585   5.575   3.331
 4182TIP3    H212490   0.581   5.727   3.330
 4183TIP3   OH212491  -0.107   5.064   2.652
 4183TIP3    H112492  -0.191   5.014   2.668
 4183TIP3    H212493  -0.087   5.047   2.559
 4184TIP3   OH212494  -0.133   4.832   2.370
 4184TIP3    H112495  -0.061   4.887   2.406
 4184TIP3    H212496  -0.081   4.767   2.319
 4185TIP3   OH212497   0.789   5.289   3.235
 4185TIP3    H112498   0.707   5.343   3.238
 4185TIP3    H212499   0.823   5.314   3.146
 4186TIP3   OH212500   0.237   5.129   2.620
 4186TIP3    H112501   0.185   5.153   2.700
 4186TIP3    H212502   0.322   5.103   2.661
 4187TIP3   OH212503   0.472   5.167   3.537
 4187TIP3    H112504   0.470   5.250   3.588
 4187TIP3    H212505   0.388   5.175   3.488
 4188TIP3   OH212506   0.120   5.749   3.192
 4188TIP3    H112507   0.141   5.785   3.279
 4188TIP3    H212508   0.111   5.654   3.215
 4189TIP3   OH212509   0.077   4.986   2.448
 4189TIP3    H112510   0.132   5.048   2.501
 4189TIP3    H212511   0.106   5.011   2.356
 4190TIP3   OH212512   0.591   4.227   2.494
 4190TIP3    H112513   0.510   4.249   2.544
 4190TIP3    H212514   0.606   4.310   2.444
 4191TIP3   OH212515   0.393   5.589   2.079
 4191TIP3    H112516   0.387   5.671   2.025
 4191TIP3    H212517   0.479   5.556   2.046
 4192TIP3   OH212518   0.833   6.000   3.438
 4192TIP3    H112519   0.832   5.903   3.451
 4192TIP3    H212520   0.750   6.024   3.485
 4193TIP3   OH212521  -0.064   5.847   2.158
 4193TIP3    H112522  -0.010   5.767   2.144
 4193TIP3    H212523  -0.067   5.857   2.254
 4194TIP3   OH212524   0.719   5.126   3.716
 4194TIP3    H112525   0.642   5.135   3.657
 4194TIP3    H212526   0.739   5.030   3.706
 4195TIP3   OH212527   0.263   4.477   3.715
 4195TIP3    H112528   0.335   4.447   3.776
 4195TIP3    H212529   0.182   4.455   3.765
 4196TIP3   OH212530   0.485   4.900   3.628
 4196TIP3    H112531   0.440   4.900   3.716
 4196TIP3    H212532   0.469   4.991   3.597
 4197TIP3   OH212533   0.156   5.039   2.199
 4197TIP3    H112534   0.118   5.010   2.114
 4197TIP3    H212535   0.239   5.081   2.169
 4198TIP3   OH212536  -0.147   4.417   2.468
 4198TIP3    H112537  -0.160   4.414   2.566
 4198TIP3    H212538  -0.175   4.325   2.447
 4199TIP3   OH212539   0.031   4.855   2.785
 4199TIP3    H112540  -0.020   4.928   2.744
 4199TIP3    H212541   0.080   4.819   2.709
 4200TIP3   OH212542   0.227   5.117   3.860
 4200TIP3    H112543   0.201   5.044   3.920
 4200TIP3    H212544   0.322   5.126   3.883
 4201TIP3   OH212545   0.179   4.874   3.021
 4201TIP3    H112546   0.120   4.901   2.947
 4201TIP3    H212547   0.218   4.795   2.977
 4202TIP3   OH212548   0.187   5.120   3.445
 4202TIP3    H112549   0.224   5.052   3.384
 4202TIP3    H212550   0.162   5.061   3.521
 4203TIP3   OH212551  -0.123   4.580   3.103
 4203TIP3    H112552  -0.214   4.600   3.132
 4203TIP3    H212553  -0.072   4.585   3.185
 4204TIP3   OH212554   0.352   4.662   3.324
 4204TIP3    H112555   0.315   4.672   3.414
 4204TIP3    H212556   0.290   4.597   3.286
 4205TIP3   OH212557   0.522   6.345   3.535
 4205TIP3    H112558   0.526   6.370   3.441
 4205TIP3    H212559   0.597   6.396   3.572
 4206TIP3   OH212560  -0.041   4.903   3.211
 4206TIP3    H112561   0.029   4.871   3.152
 4206TIP3    H212562  -0.021   4.858   3.295
 4207TIP3   OH212563  -0.051   4.792   3.502
 4207TIP3    H112564  -0.116   4.867   3.494
 4207TIP3    H212565   0.022   4.838   3.548
 4208TIP3   OH212566   0.556   5.438   3.224
 4208TIP3    H112567   0.584   5.487   3.144
 4208TIP3    H212568   0.474   5.393   3.194
 4209TIP3   OH212569   0.112   4.510   2.463
 4209TIP3    H112570   0.015   4.495   2.466
 4209TIP3    H212571   0.122   4.603   2.490
 4210TIP3   OH212572   0.055   5.525   3.586
 4210TIP3    H112573   0.084   5.512   3.677
 4210TIP3    H212574  -0.005   5.603   3.595
 4211TIP3   OH212575   0.185   4.759   2.566
 4211TIP3    H112576   0.281   4.763   2.582
 4211TIP3    H212577   0.168   4.839   2.513
 4212TIP3   OH212578  -0.200   5.345   2.429
 4212TIP3    H112579  -0.238   5.433   2.414
 4212TIP3    H212580  -0.274   5.299   2.470
 4213TIP3   OH212581   0.008   5.246   3.956
 4213TIP3    H112582  -0.034   5.165   3.928
 4213TIP3    H212583   0.098   5.231   3.921
 4214TIP3   OH212584   0.206   5.795   3.474
 4214TIP3    H112585   0.121   5.768   3.512
 4214TIP3    H212586   0.248   5.834   3.554
 4215TIP3   OH212587   0.624   4.854   2.400
 4215TIP3    H112588   0.563   4.809   2.337
 4215TIP3    H212589   0.622   4.943   2.359
 4216TIP3   OH212590   0.846   5.711   3.478
 4216TIP3    H112591   0.748   5.703   3.470
 4216TIP3    H212592   0.873   5.680   3.389
 4217TIP3   OH212593   0.329   5.669   2.333
 4217TIP3    H112594   0.297   5.587   2.371
 4217TIP3    H212595   0.352   5.641   2.242
 4218TIP3   OH212596   0.326   5.299   3.140
 4218TIP3    H112597   0.233   5.270   3.151
 4218TIP3    H212598   0.363   5.220   3.096
 4219TIP3   OH212599   0.127   5.503   3.321
 4219TIP3    H112600   0.113   5.507   3.418
 4219TIP3    H212601   0.209   5.451   3.315
 4220TIP3   OH212602   0.094   5.395   2.211
 4220TIP3    H112603   0.142   5.373   2.293
 4220TIP3    H212604   0.004   5.370   2.233
 4221TIP3   OH212605   0.373   6.030   3.366
 4221TIP3    H112606   0.291   5.989   3.399
 4221TIP3    H212607   0.339   6.100   3.306
 4222TIP3   OH212608   0.418   5.881   2.044
 4222TIP3    H112609   0.422   5.921   1.955
 4222TIP3    H212610   0.342   5.929   2.081
 4223TIP3   OH212611   0.251   5.343   2.441
 4223TIP3    H112612   0.240   5.266   2.501
 4223TIP3    H212613   0.345   5.331   2.416
 4224TIP3   OH212614   0.272   4.720   3.586
 4224TIP3    H112615   0.361   4.754   3.606
 4224TIP3    H212616   0.270   4.635   3.636
 4225TIP3   OH212617   0.168   4.457   2.747
 4225TIP3    H112618   0.147   4.479   2.654
 4225TIP3    H212619   0.204   4.542   2.781
 4226TIP3   OH212620  -0.157   4.657   2.842
 4226TIP3    H112621  -0.087   4.725   2.829
 4226TIP3    H212622  -0.151   4.640   2.938
 4227TIP3   OH212623   0.129   4.953   3.651
 4227TIP3    H112624   0.162   5.005   3.727
 4227TIP3    H212625   0.185   4.874   3.654
 4228TIP3   OH212626   0.000   4.365   2.958
 4228TIP3    H112627  -0.021   4.449   3.003
 4228TIP3    H212628   0.054   4.398   2.883
 4229TIP3   OH212629   0.755   4.862   3.638
 4229TIP3    H112630   0.657   4.855   3.636
 4229TIP3    H212631   0.777   4.824   3.552
 4230TIP3   OH212632   0.409   5.057   3.022
 4230TIP3    H112633   0.334   4.995   3.031
 4230TIP3    H212634   0.481   5.009   3.068
 4231TIP3   OH212635   0.376   6.019   2.976
 4231TIP3    H112636   0.330   6.063   2.901
 4231TIP3    H212637   0.469   6.037   2.951
 4232TIP3   OH212638   0.282   5.903   3.712
 4232TIP3    H112639   0.260   5.850   3.792
 4232TIP3    H212640   0.346   5.966   3.748
 4233TIP3   OH212641   0.076   5.622   2.036
 4233TIP3    H112642   0.121   5.561   2.097
 4233TIP3    H212643   0.114   5.595   1.951
 4234TIP3   OH212644  -0.223   5.277   2.162
 4234TIP3    H112645  -0.212   5.285   2.258
 4234TIP3    H212646  -0.216   5.179   2.150
 4235TIP3   OH212647   0.379   5.545   3.529
 4235TIP3    H112648   0.458   5.583   3.486
 4235TIP3    H212649   0.313   5.613   3.509
 4236TIP3   OH212650  -0.395   4.810   2.462
 4236TIP3    H112651  -0.422   4.804   2.368
 4236TIP3    H212652  -0.298   4.810   2.452
 4237TIP3   OH212653   0.248   5.469   3.933
 4237TIP3    H112654   0.320   5.441   3.876
 4237TIP3    H212655   0.253   5.404   4.006
 4238TIP3   OH212656   0.388   5.118   2.071
 4238TIP3    H112657   0.368   5.076   1.985
 4238TIP3    H212658   0.358   5.210   2.050
 4239TIP3   OH212659  -0.175   4.595   3.654
 4239TIP3    H112660  -0.121   4.655   3.599
 4239TIP3    H212661  -0.219   4.658   3.712
 4240TIP3   OH212662  -0.057   5.239   3.547
 4240TIP3    H112663   0.035   5.216   3.525
 4240TIP3    H212664  -0.069   5.318   3.495
 4241TIP3   OH212665   0.479   5.138   3.977
 4241TIP3    H112666   0.526   5.054   3.991
 4241TIP3    H212667   0.548   5.193   3.936
 4242TIP3   OH212668   0.509   5.398   3.717
 4242TIP3    H112669   0.454   5.454   3.656
 4242TIP3    H212670   0.598   5.417   3.679
 4243TIP3   OH212671   0.002   4.406   3.785
 4243TIP3    H112672  -0.059   4.474   3.748
 4243TIP3    H212673  -0.051   4.325   3.770
 4244TIP3   OH212674   0.122   4.916   4.020
 4244TIP3    H112675   0.158   4.908   4.110
 4244TIP3    H212676   0.043   4.860   4.025
 4245TIP3   OH212677   0.363   4.858   3.866
 4245TIP3    H112678   0.292   4.848   3.931
 4245TIP3    H212679   0.441   4.828   3.917
 4246TIP3   OH212680   0.583   4.798   4.017
 4246TIP3    H112681   0.600   4.702   4.030
 4246TIP3    H212682   0.583   4.833   4.108
 4247TIP3   OH212683   0.095   4.419   4.043
 4247TIP3    H112684   0.158   4.345   4.045
 4247TIP3    H212685   0.056   4.408   3.954
 4248TIP3   OH212686   0.169   4.628   4.199
 4248TIP3    H112687   0.152   4.549   4.142
 4248TIP3    H212688   0.080   4.669   4.200
 4249TIP3   OH212689   0.632   6.103   2.929
 4249TIP3    H112690   0.665   6.136   3.014
 4249TIP3    H212691   0.698   6.136   2.866
 4250TIP3   OH212692   0.662   6.124   3.214
 4250TIP3    H112693   0.618   6.037   3.204
 4250TIP3    H212694   0.739   6.096   3.267
 4251TIP3   OH212695   0.710   5.800   3.781
 4251TIP3    H112696   0.639   5.811   3.847
 4251TIP3    H212697   0.753   5.888   3.785
 4252TIP3   OH212698   0.521   5.310   2.402
 4252TIP3    H112699   0.585   5.376   2.369
 4252TIP3    H212700   0.571   5.274   2.479
 4253TIP3   OH212701   0.653   5.179   2.606
 4253TIP3    H112702   0.587   5.138   2.666
 4253TIP3    H212703   0.720   5.215   2.668
 4254TIP3   OH212704   0.705   5.570   3.036
 4254TIP3    H112705   0.760   5.504   2.990
 4254TIP3    H212706   0.707   5.645   2.973
 4255TIP3   OH212707   0.543   5.867   3.228
 4255TIP3    H112708   0.473   5.917   3.277
 4255TIP3    H212709   0.490   5.824   3.157
 4256TIP3   OH212710   0.589   5.087   2.251
 4256TIP3    H112711   0.519   5.088   2.183
 4256TIP3    H212712   0.561   5.164   2.305
 4257TIP3   OH212713   0.459   4.760   2.207
 4257TIP3    H112714   0.417   4.799   2.130
 4257TIP3    H212715   0.436   4.665   2.195
 4258TIP3   OH212716   0.463   5.038   2.752
 4258TIP3    H112717   0.474   4.942   2.743
 4258TIP3    H212718   0.451   5.050   2.848
 4259TIP3   OH212719   0.755   5.462   3.610
 4259TIP3    H112720   0.826   5.394   3.601
 4259TIP3    H212721   0.782   5.528   3.544
 4260TIP3   OH212722   0.936   5.263   3.628
 4260TIP3    H112723   0.863   5.210   3.666
 4260TIP3    H212724   1.011   5.201   3.640
 4261TIP3   OH212725   0.404   4.493   2.187
 4261TIP3    H112726   0.479   4.464   2.242
 4261TIP3    H212727   0.332   4.433   2.212
 4262TIP3   OH212728   0.462   4.754   2.643
 4262TIP3    H112729   0.503   4.665   2.658
 4262TIP3    H212730   0.520   4.787   2.572
 4263TIP3   OH212731   0.621   4.926   3.141
 4263TIP3    H112732   0.707   4.950   3.098
 4263TIP3    H212733   0.639   4.961   3.230
 4264TIP3   OH212734   0.694   5.071   3.373
 4264TIP3    H112735   0.617   5.107   3.419
 4264TIP3    H212736   0.728   5.150   3.325
 4265TIP3   OH212737   1.141   4.662   3.928
 4265TIP3    H112738   1.204   4.598   3.887
 4265TIP3    H212739   1.114   4.715   3.850
 4266TIP3   OH212740   0.570   4.504   2.683
 4266TIP3    H112741   0.619   4.487   2.766
 4266TIP3    H212742   0.509   4.427   2.682
 4267TIP3   OH212743   1.011   4.799   3.731
 4267TIP3    H112744   0.923   4.840   3.744
 4267TIP3    H212745   0.985   4.723   3.674
 4268TIP3   OH212746   0.648   4.436   2.317
 4268TIP3    H112747   0.690   4.365   2.264
 4268TIP3    H212748   0.715   4.507   2.315
 4269TIP3   OH212749   0.253   5.953   2.610
 4269TIP3    H112750   0.279   5.930   2.519
 4269TIP3    H212751   0.275   6.046   2.612
 4270TIP3   OH212752   0.913   4.561   3.613
 4270TIP3    H112753   0.823   4.549   3.578
 4270TIP3    H212754   0.949   4.470   3.604
 4271TIP3   OH212755   0.081   6.086   3.263
 4271TIP3    H112756   0.017   6.014   3.253
 4271TIP3    H212757   0.143   6.065   3.191
 4272TIP3   OH212758   0.310   6.216   3.156
 4272TIP3    H112759   0.299   6.294   3.098
 4272TIP3    H212760   0.337   6.148   3.090
 4273TIP3   OH212761   0.130   4.479   3.246
 4273TIP3    H112762   0.080   4.402   3.276
 4273TIP3    H212763   0.195   4.439   3.185
 4274TIP3   OH212764   0.637   4.361   3.137
 4274TIP3    H112765   0.675   4.410   3.061
 4274TIP3    H212766   0.542   4.378   3.127
 4275TIP3   OH212767   0.734   4.457   2.900
 4275TIP3    H112768   0.808   4.405   2.863
 4275TIP3    H212769   0.770   4.548   2.885
 4276TIP3   OH212770  -0.171   4.213   3.135
 4276TIP3    H112771  -0.126   4.263   3.064
 4276TIP3    H212772  -0.125   4.245   3.214
 4277TIP3   OH212773   0.353   4.366   3.112
 4277TIP3    H112774   0.355   4.325   3.024
 4277TIP3    H212775   0.342   4.288   3.170
 4278TIP3   OH212776   0.387   4.291   2.675
 4278TIP3    H112777   0.303   4.337   2.694
 4278TIP3    H212778   0.372   4.205   2.720
 4279TIP3   OH212779  -0.173   4.401   2.734
 4279TIP3    H112780  -0.164   4.353   2.817
 4279TIP3    H212781  -0.184   4.493   2.767
 4280TIP3   OH212782   0.366   5.937   2.361
 4280TIP3    H112783   0.357   5.839   2.350
 4280TIP3    H212784   0.314   5.969   2.284
 4281TIP3   OH212785   0.651   4.530   4.045
 4281TIP3    H112786   0.669   4.497   4.136
 4281TIP3    H212787   0.740   4.523   4.004
 4282TIP3   OH212788   0.587   6.078   3.543
 4282TIP3    H112789   0.515   6.047   3.484
 4282TIP3    H212790   0.566   6.174   3.546
 4283TIP3   OH212791   1.856   5.454   2.300
 4283TIP3    H112792   1.825   5.544   2.279
 4283TIP3    H212793   1.779   5.402   2.270
 4284TIP3   OH212794   1.854   5.452   2.690
 4284TIP3    H112795   1.890   5.428   2.777
 4284TIP3    H212796   1.812   5.369   2.663
 4285TIP3   OH212797   1.149   5.342   3.055
 4285TIP3    H112798   1.178   5.275   3.120
 4285TIP3    H212799   1.229   5.395   3.047
 4286TIP3   OH212800   2.099   5.756   2.368
 4286TIP3    H112801   2.082   5.686   2.433
 4286TIP3    H212802   2.129   5.830   2.425
 4287TIP3   OH212803   1.125   5.757   2.774
 4287TIP3    H112804   1.116   5.659   2.774
 4287TIP3    H212805   1.221   5.766   2.768
 4288TIP3   OH212806   0.831   4.956   2.556
 4288TIP3    H112807   0.785   5.039   2.574
 4288TIP3    H212808   0.759   4.906   2.512
 4289TIP3   OH212809   0.887   5.246   2.737
 4289TIP3    H112810   0.938   5.168   2.770
 4289TIP3    H212811   0.949   5.283   2.672
 4290TIP3   OH212812   1.751   6.218   2.386
 4290TIP3    H112813   1.793   6.146   2.334
 4290TIP3    H212814   1.740   6.175   2.472
 4291TIP3   OH212815   1.651   5.680   2.733
 4291TIP3    H112816   1.691   5.601   2.691
 4291TIP3    H212817   1.735   5.726   2.757
 4292TIP3   OH212818   2.668   4.998   2.732
 4292TIP3    H112819   2.697   5.081   2.775
 4292TIP3    H212820   2.688   5.016   2.639
 4293TIP3   OH212821   2.068   5.179   2.762
 4293TIP3    H112822   2.108   5.093   2.784
 4293TIP3    H212823   2.034   5.160   2.672
 4294TIP3   OH212824   1.405   4.838   2.728
 4294TIP3    H112825   1.385   4.911   2.666
 4294TIP3    H212826   1.356   4.765   2.685
 4295TIP3   OH212827   2.100   4.930   2.350
 4295TIP3    H112828   2.170   4.914   2.417
 4295TIP3    H212829   2.153   4.965   2.277
 4296TIP3   OH212830   1.035   5.039   2.837
 4296TIP3    H112831   1.119   5.022   2.885
 4296TIP3    H212832   1.051   4.984   2.757
 4297TIP3   OH212833   1.476   5.238   2.634
 4297TIP3    H112834   1.570   5.214   2.646
 4297TIP3    H212835   1.438   5.154   2.601
 4298TIP3   OH212836   2.741   5.208   2.900
 4298TIP3    H112837   2.656   5.252   2.881
 4298TIP3    H212838   2.754   5.233   2.992
 4299TIP3   OH212839   1.393   4.822   3.166
 4299TIP3    H112840   1.335   4.860   3.098
 4299TIP3    H212841   1.343   4.843   3.247
 4300TIP3   OH212842   1.746   5.675   2.169
 4300TIP3    H112843   1.701   5.656   2.085
 4300TIP3    H212844   1.699   5.756   2.198
 4301TIP3   OH212845   1.506   5.598   2.956
 4301TIP3    H112846   1.445   5.666   2.994
 4301TIP3    H212847   1.548   5.648   2.882
 4302TIP3   OH212848   2.304   4.934   2.529
 4302TIP3    H112849   2.282   4.894   2.614
 4302TIP3    H212850   2.355   5.013   2.556
 4303TIP3   OH212851   1.269   4.937   2.947
 4303TIP3    H112852   1.330   5.010   2.974
 4303TIP3    H212853   1.321   4.897   2.874
 4304TIP3   OH212854   1.335   5.795   3.058
 4304TIP3    H112855   1.307   5.882   3.021
 4304TIP3    H212856   1.256   5.775   3.113
 4305TIP3   OH212857   0.722   5.478   2.300
 4305TIP3    H112858   0.686   5.493   2.210
 4305TIP3    H212859   0.752   5.568   2.325
 4306TIP3   OH212860   2.166   6.000   2.532
 4306TIP3    H112861   2.077   5.990   2.573
 4306TIP3    H212862   2.156   6.086   2.488
 4307TIP3   OH212863   2.461   4.897   2.898
 4307TIP3    H112864   2.373   4.924   2.866
 4307TIP3    H212865   2.519   4.929   2.827
 4308TIP3   OH212866   1.752   4.538   2.879
 4308TIP3    H112867   1.736   4.444   2.899
 4308TIP3    H212868   1.677   4.579   2.927
 4309TIP3   OH212869   1.866   6.044   2.204
 4309TIP3    H112870   1.916   5.961   2.187
 4309TIP3    H212871   1.929   6.108   2.164
 4310TIP3   OH212872   2.012   5.829   2.117
 4310TIP3    H112873   1.966   5.750   2.085
 4310TIP3    H212874   2.051   5.795   2.201
 4311TIP3   OH212875   2.393   5.910   2.877
 4311TIP3    H112876   2.380   5.831   2.819
 4311TIP3    H212877   2.375   5.983   2.815
 4312TIP3   OH212878   1.685   5.303   2.136
 4312TIP3    H112879   1.605   5.356   2.116
 4312TIP3    H212880   1.730   5.301   2.050
 4313TIP3   OH212881   1.642   5.091   1.847
 4313TIP3    H112882   1.709   5.142   1.897
 4313TIP3    H212883   1.700   5.027   1.800
 4314TIP3   OH212884   2.588   5.549   2.723
 4314TIP3    H112885   2.503   5.599   2.728
 4314TIP3    H212886   2.617   5.573   2.633
 4315TIP3   OH212887   2.034   5.387   2.104
 4315TIP3    H112888   1.979   5.411   2.182
 4315TIP3    H212889   2.118   5.362   2.148
 4316TIP3   OH212890   2.267   5.425   3.020
 4316TIP3    H112891   2.262   5.507   3.072
 4316TIP3    H212892   2.179   5.427   2.976
 4317TIP3   OH212893   1.265   5.384   2.523
 4317TIP3    H112894   1.224   5.325   2.456
 4317TIP3    H212895   1.341   5.330   2.554
 4318TIP3   OH212896   1.394   5.797   2.670
 4318TIP3    H112897   1.374   5.760   2.583
 4318TIP3    H212898   1.483   5.760   2.688
 4319TIP3   OH212899   1.395   5.357   2.877
 4319TIP3    H112900   1.432   5.331   2.790
 4319TIP3    H212901   1.443   5.440   2.896
 4320TIP3   OH212902   1.926   5.993   2.655
 4320TIP3    H112903   1.915   6.072   2.711
 4320TIP3    H212904   1.911   5.919   2.717
 4321TIP3   OH212905   1.540   5.914   3.200
 4321TIP3    H112906   1.478   5.974   3.247
 4321TIP3    H212907   1.476   5.859   3.150
 4322TIP3   OH212908   1.871   5.245   1.932
 4322TIP3    H112909   1.930   5.305   1.982
 4322TIP3    H212910   1.898   5.266   1.839
 4323TIP3   OH212911   1.286   5.487   3.295
 4323TIP3    H112912   1.288   5.569   3.348
 4323TIP3    H212913   1.197   5.454   3.314
 4324TIP3   OH212914   1.618   5.920   2.209
 4324TIP3    H112915   1.699   5.974   2.218
 4324TIP3    H212916   1.557   5.980   2.165
 4325TIP3   OH212917   1.332   6.079   3.289
 4325TIP3    H112918   1.298   6.080   3.197
 4325TIP3    H212919   1.251   6.058   3.340
 4326TIP3   OH212920   2.388   4.483   1.982
 4326TIP3    H112921   2.306   4.504   2.032
 4326TIP3    H212922   2.402   4.566   1.932
 4327TIP3   OH212923   1.132   5.228   2.325
 4327TIP3    H112924   1.063   5.273   2.272
 4327TIP3    H212925   1.093   5.141   2.338
 4328TIP3   OH212926   2.188   5.851   1.530
 4328TIP3    H112927   2.197   5.947   1.515
 4328TIP3    H212928   2.281   5.821   1.517
 4329TIP3   OH212929   0.910   5.613   3.235
 4329TIP3    H112930   0.847   5.588   3.165
 4329TIP3    H212931   0.950   5.527   3.261
 4330TIP3   OH212932   0.767   5.798   2.874
 4330TIP3    H112933   0.862   5.793   2.855
 4330TIP3    H212934   0.763   5.880   2.926
 4331TIP3   OH212935   2.629   6.256   2.924
 4331TIP3    H112936   2.629   6.160   2.940
 4331TIP3    H212937   2.547   6.282   2.971
 4332TIP3   OH212938   1.734   6.042   3.057
 4332TIP3    H112939   1.732   6.134   3.091
 4332TIP3    H212940   1.663   6.001   3.111
 4333TIP3   OH212941   1.501   6.169   2.008
 4333TIP3    H112942   1.448   6.149   1.928
 4333TIP3    H212943   1.464   6.255   2.037
 4334TIP3   OH212944   0.937   6.018   2.395
 4334TIP3    H112945   0.980   6.006   2.483
 4334TIP3    H212946   0.885   5.936   2.389
 4335TIP3   OH212947   1.700   6.073   1.648
 4335TIP3    H112948   1.759   6.001   1.613
 4335TIP3    H212949   1.733   6.081   1.740
 4336TIP3   OH212950   1.751   6.119   1.918
 4336TIP3    H112951   1.662   6.130   1.957
 4336TIP3    H212952   1.799   6.078   1.991
 4337TIP3   OH212953   2.519   5.385   3.198
 4337TIP3    H112954   2.434   5.395   3.152
 4337TIP3    H212955   2.535   5.289   3.190
 4338TIP3   OH212956   1.115   5.796   3.223
 4338TIP3    H112957   1.166   5.777   3.304
 4338TIP3    H212958   1.042   5.731   3.229
 4339TIP3   OH212959   1.516   4.614   3.010
 4339TIP3    H112960   1.425   4.591   2.985
 4339TIP3    H212961   1.499   4.697   3.059
 4340TIP3   OH212962   2.050   4.729   3.204
 4340TIP3    H112963   2.119   4.704   3.269
 4340TIP3    H212964   1.967   4.712   3.252
 4341TIP3   OH212965   2.288   5.164   3.128
 4341TIP3    H112966   2.234   5.159   3.210
 4341TIP3    H212967   2.260   5.248   3.089
 4342TIP3   OH212968   1.949   5.287   1.677
 4342TIP3    H112969   1.914   5.265   1.589
 4342TIP3    H212970   2.032   5.332   1.652
 4343TIP3   OH212971   1.661   4.664   1.981
 4343TIP3    H112972   1.626   4.660   2.072
 4343TIP3    H212973   1.621   4.582   1.945
 4344TIP3   OH212974   1.445   5.133   3.025
 4344TIP3    H112975   1.419   5.164   3.113
 4344TIP3    H212976   1.428   5.214   2.971
 4345TIP3   OH212977   1.331   5.019   2.541
 4345TIP3    H112978   1.239   4.993   2.560
 4345TIP3    H212979   1.343   4.978   2.452
 4346TIP3   OH212980   1.822   5.103   2.271
 4346TIP3    H112981   1.771   5.175   2.227
 4346TIP3    H212982   1.877   5.070   2.197
 4347TIP3   OH212983   1.992   5.391   3.368
 4347TIP3    H112984   1.955   5.319   3.424
 4347TIP3    H212985   2.086   5.383   3.388
 4348TIP3   OH212986   1.979   5.130   2.506
 4348TIP3    H112987   1.915   5.157   2.437
 4348TIP3    H212988   2.014   5.050   2.462
 4349TIP3   OH212989   1.261   5.166   3.246
 4349TIP3    H112990   1.335   5.214   3.288
 4349TIP3    H212991   1.259   5.083   3.296
 4350TIP3   OH212992   1.317   4.639   1.945
 4350TIP3    H112993   1.307   4.638   2.042
 4350TIP3    H212994   1.239   4.693   1.920
 4351TIP3   OH212995   0.861   4.680   2.818
 4351TIP3    H112996   0.934   4.714   2.873
 4351TIP3    H212997   0.904   4.653   2.736
 4352TIP3   OH212998   0.825   4.662   2.335
 4352TIP3    H112999   0.872   4.699   2.257
 4352TIP3    H213000   0.765   4.737   2.354
 4353TIP3   OH213001   1.993   5.378   2.927
 4353TIP3    H113002   2.025   5.306   2.868
 4353TIP3    H213003   1.964   5.325   3.005
 4354TIP3   OH213004   1.662   4.840   2.601
 4354TIP3    H113005   1.581   4.839   2.656
 4354TIP3    H213006   1.732   4.835   2.669
 4355TIP3   OH213007   1.093   4.897   2.609
 4355TIP3    H113008   0.999   4.904   2.580
 4355TIP3    H213009   1.117   4.806   2.586
 4356TIP3   OH213010   1.358   4.891   2.300
 4356TIP3    H113011   1.452   4.906   2.279
 4356TIP3    H213012   1.312   4.913   2.216
 4357TIP3   OH213013   2.152   4.915   2.798
 4357TIP3    H113014   2.125   4.928   2.892
 4357TIP3    H213015   2.082   4.856   2.767
 4358TIP3   OH213016   1.208   4.926   2.076
 4358TIP3    H113017   1.137   4.882   2.027
 4358TIP3    H213018   1.260   4.964   2.002
 4359TIP3   OH213019   2.323   6.605   3.025
 4359TIP3    H113020   2.322   6.630   2.931
 4359TIP3    H213021   2.404   6.651   3.057
 4360TIP3   OH213022   1.276   5.722   3.446
 4360TIP3    H113023   1.358   5.746   3.493
 4360TIP3    H213024   1.214   5.716   3.521
 4361TIP3   OH213025   1.739   5.171   2.702
 4361TIP3    H113026   1.814   5.128   2.658
 4361TIP3    H213027   1.741   5.130   2.791
 4362TIP3   OH213028   1.259   4.656   2.581
 4362TIP3    H113029   1.224   4.579   2.630
 4362TIP3    H213030   1.310   4.614   2.510
 4363TIP3   OH213031   1.718   5.080   2.980
 4363TIP3    H113032   1.627   5.109   3.003
 4363TIP3    H213033   1.774   5.136   3.038
 4364TIP3   OH213034   1.455   5.455   2.084
 4364TIP3    H113035   1.383   5.390   2.072
 4364TIP3    H213036   1.434   5.490   2.175
 4365TIP3   OH213037   2.353   5.693   2.711
 4365TIP3    H113038   2.376   5.743   2.630
 4365TIP3    H213039   2.269   5.649   2.685
 4366TIP3   OH213040   1.911   4.767   1.948
 4366TIP3    H113041   1.815   4.747   1.958
 4366TIP3    H213042   1.918   4.861   1.975
 4367TIP3   OH213043   1.857   5.777   3.079
 4367TIP3    H113044   1.878   5.746   3.168
 4367TIP3    H213045   1.816   5.863   3.094
 4368TIP3   OH213046   1.980   5.016   2.052
 4368TIP3    H113047   2.076   5.023   2.068
 4368TIP3    H213048   1.961   5.097   2.001
 4369TIP3   OH213049   1.147   5.479   2.758
 4369TIP3    H113050   1.185   5.450   2.672
 4369TIP3    H213051   1.196   5.423   2.820
 4370TIP3   OH213052   1.599   5.606   1.907
 4370TIP3    H113053   1.551   5.692   1.911
 4370TIP3    H213054   1.545   5.551   1.967
 4371TIP3   OH213055   1.026   5.407   3.378
 4371TIP3    H113056   1.057   5.388   3.469
 4371TIP3    H213057   0.969   5.331   3.360
 4372TIP3   OH213058   1.748   5.519   3.382
 4372TIP3    H113059   1.694   5.442   3.356
 4372TIP3    H213060   1.838   5.485   3.363
 4373TIP3   OH213061   2.013   6.042   2.974
 4373TIP3    H113062   1.917   6.034   2.990
 4373TIP3    H213063   2.040   6.090   3.055
 4374TIP3   OH213064   2.422   5.109   1.886
 4374TIP3    H113065   2.360   5.065   1.822
 4374TIP3    H213066   2.419   5.199   1.846
 4375TIP3   OH213067   2.643   5.967   2.965
 4375TIP3    H113068   2.545   5.960   2.957
 4375TIP3    H213069   2.669   5.936   2.875
 4376TIP3   OH213070   2.128   5.926   1.797
 4376TIP3    H113071   2.097   5.859   1.859
 4376TIP3    H213072   2.137   5.877   1.713
 4377TIP3   OH213073   2.120   5.556   2.626
 4377TIP3    H113074   2.027   5.531   2.642
 4377TIP3    H213075   2.153   5.475   2.583
 4378TIP3   OH213076   1.249   5.785   2.386
 4378TIP3    H113077   1.244   5.865   2.331
 4378TIP3    H213078   1.155   5.762   2.394
 4379TIP3   OH213079   0.815   5.086   2.090
 4379TIP3    H113080   0.857   5.173   2.109
 4379TIP3    H213081   0.737   5.091   2.150
 4380TIP3   OH213082   1.382   5.548   2.326
 4380TIP3    H113083   1.348   5.637   2.347
 4380TIP3    H213084   1.348   5.496   2.402
 4381TIP3   OH213085   1.519   6.125   2.854
 4381TIP3    H113086   1.562   6.197   2.803
 4381TIP3    H213087   1.595   6.087   2.901
 4382TIP3   OH213088   1.167   6.022   2.238
 4382TIP3    H113089   1.081   6.031   2.283
 4382TIP3    H213090   1.198   6.116   2.239
 4383TIP3   OH213091   1.905   5.761   2.812
 4383TIP3    H113092   1.893   5.760   2.910
 4383TIP3    H213093   1.982   5.704   2.802
 4384TIP3   OH213094   1.882   5.657   1.695
 4384TIP3    H113095   1.935   5.631   1.774
 4384TIP3    H213096   1.794   5.626   1.721
 4385TIP3   OH213097   2.154   6.292   2.864
 4385TIP3    H113098   2.076   6.233   2.861
 4385TIP3    H213099   2.135   6.354   2.791
 4386TIP3   OH213100   2.219   6.127   1.514
 4386TIP3    H113101   2.254   6.201   1.461
 4386TIP3    H213102   2.139   6.169   1.550
 4387TIP3   OH213103   1.239   4.904   3.382
 4387TIP3    H113104   1.142   4.903   3.394
 4387TIP3    H213105   1.269   4.846   3.454
 4388TIP3   OH213106   2.043   5.586   1.908
 4388TIP3    H113107   2.031   5.521   1.981
 4388TIP3    H213108   2.140   5.583   1.898
 4389TIP3   OH213109   0.955   5.988   3.013
 4389TIP3    H113110   1.007   5.912   3.043
 4389TIP3    H213111   0.991   6.058   3.071
 4390TIP3   OH213112   1.246   5.634   1.695
 4390TIP3    H113113   1.257   5.541   1.667
 4390TIP3    H213114   1.227   5.624   1.790
 4391TIP3   OH213115   1.193   5.638   1.966
 4391TIP3    H113116   1.263   5.611   2.026
 4391TIP3    H213117   1.195   5.736   1.975
 4392TIP3   OH213118   0.924   5.333   2.172
 4392TIP3    H113119   0.856   5.376   2.229
 4392TIP3    H213120   0.934   5.401   2.103
 4393TIP3   OH213121   2.086   4.960   3.057
 4393TIP3    H113122   2.154   5.006   3.108
 4393TIP3    H213123   2.065   4.883   3.114
 4394TIP3   OH213124   1.960   4.716   2.231
 4394TIP3    H113125   1.946   4.739   2.138
 4394TIP3    H213126   1.999   4.799   2.268
 4395TIP3   OH213127   1.459   5.838   1.915
 4395TIP3    H113128   1.372   5.859   1.953
 4395TIP3    H213129   1.470   5.912   1.854
 4396TIP3   OH213130   1.642   4.901   2.332
 4396TIP3    H113131   1.707   4.973   2.316
 4396TIP3    H213132   1.649   4.891   2.429
 4397TIP3   OH213133   1.918   5.219   3.136
 4397TIP3    H113134   1.914   5.263   3.223
 4397TIP3    H213135   1.961   5.135   3.159
 4398TIP3   OH213136   1.787   4.621   2.431
 4398TIP3    H113137   1.782   4.698   2.491
 4398TIP3    H213138   1.850   4.656   2.363
 4399TIP3   OH213139   1.206   5.909   1.989
 4399TIP3    H113140   1.178   5.981   1.927
 4399TIP3    H213141   1.187   5.951   2.076
 4400TIP3   OH213142   1.301   4.626   2.221
 4400TIP3    H113143   1.299   4.716   2.260
 4400TIP3    H213144   1.397   4.608   2.229
 4401TIP3   OH213145   2.554   5.117   3.118
 4401TIP3    H113146   2.456   5.118   3.130
 4401TIP3    H213147   2.560   5.070   3.034
 4402TIP3   OH213148   2.206   5.312   2.506
 4402TIP3    H113149   2.129   5.253   2.520
 4402TIP3    H213150   2.276   5.264   2.555
 4403TIP3   OH213151   0.920   5.539   1.972
 4403TIP3    H113152   0.988   5.609   1.981
 4403TIP3    H213153   0.966   5.481   1.907
 4404TIP3   OH213154   0.860   4.816   2.111
 4404TIP3    H113155   0.865   4.914   2.109
 4404TIP3    H213156   0.780   4.800   2.061
 4405TIP3   OH213157   2.175   6.271   2.454
 4405TIP3    H113158   2.132   6.318   2.379
 4405TIP3    H213159   2.269   6.289   2.434
 4406TIP3   OH213160   1.248   4.537   2.982
 4406TIP3    H113161   1.220   4.502   2.895
 4406TIP3    H213162   1.240   4.459   3.040
 4407TIP3   OH213163   0.789   5.761   2.360
 4407TIP3    H113164   0.719   5.787   2.421
 4407TIP3    H213165   0.755   5.800   2.276
 4408TIP3   OH213166   0.948   6.301   3.436
 4408TIP3    H113167   1.036   6.301   3.481
 4408TIP3    H213168   0.930   6.205   3.432
 4409TIP3   OH213169   1.425   6.258   3.480
 4409TIP3    H113170   1.519   6.239   3.486
 4409TIP3    H213171   1.399   6.198   3.407
 4410TIP3   OH213172   1.410   5.835   1.606
 4410TIP3    H113173   1.352   5.764   1.644
 4410TIP3    H213174   1.485   5.781   1.576
 4411TIP3   OH213175   2.064   6.169   3.214
 4411TIP3    H113176   2.057   6.099   3.283
 4411TIP3    H213177   2.143   6.219   3.244
 4412TIP3   OH213178   1.845   5.875   1.521
 4412TIP3    H113179   1.883   5.808   1.581
 4412TIP3    H213180   1.904   5.869   1.443
 4413TIP3   OH213181   1.075   5.703   3.638
 4413TIP3    H113182   1.093   5.608   3.644
 4413TIP3    H213183   0.990   5.705   3.589
 4414TIP3   OH213184   1.057   5.353   1.830
 4414TIP3    H113185   1.113   5.323   1.904
 4414TIP3    H213186   1.124   5.357   1.758
 4415TIP3   OH213187   1.682   5.792   3.409
 4415TIP3    H113188   1.642   5.809   3.322
 4415TIP3    H213189   1.712   5.698   3.401
 4416TIP3   OH213190   1.572   5.555   1.637
 4416TIP3    H113191   1.571   5.565   1.735
 4416TIP3    H213192   1.570   5.457   1.630
 4417TIP3   OH213193   2.177   5.800   3.017
 4417TIP3    H113194   2.252   5.845   2.973
 4417TIP3    H213195   2.105   5.863   3.001
 4418TIP3   OH213196   1.204   5.435   3.613
 4418TIP3    H113197   1.285   5.391   3.585
 4418TIP3    H213198   1.230   5.468   3.702
 4419TIP3   OH213199   1.262   5.260   2.050
 4419TIP3    H113200   1.233   5.220   2.134
 4419TIP3    H213201   1.299   5.183   2.002
 4420TIP3   OH213202   1.500   5.320   3.259
 4420TIP3    H113203   1.439   5.396   3.265
 4420TIP3    H213204   1.570   5.354   3.199
 4421TIP3   OH213205   1.364   5.053   1.890
 4421TIP3    H113206   1.338   5.061   1.796
 4421TIP3    H213207   1.462   5.056   1.883
 4422TIP3   OH213208   2.053   5.727   3.413
 4422TIP3    H113209   2.124   5.687   3.361
 4422TIP3    H213210   2.037   5.659   3.480
 4423TIP3   OH213211   2.183   5.382   1.557
 4423TIP3    H113212   2.163   5.337   1.472
 4423TIP3    H213213   2.149   5.472   1.535
 4424TIP3   OH213214   1.666   4.859   3.171
 4424TIP3    H113215   1.688   4.931   3.111
 4424TIP3    H213216   1.569   4.866   3.179
 4425TIP3   OH213217   1.678   5.424   3.081
 4425TIP3    H113218   1.766   5.439   3.044
 4425TIP3    H213219   1.625   5.493   3.037
 4426TIP3   OH213220   2.264   5.396   3.469
 4426TIP3    H113221   2.313   5.312   3.480
 4426TIP3    H213222   2.331   5.453   3.429
 4427TIP3   OH213223   2.307   5.654   3.204
 4427TIP3    H113224   2.249   5.708   3.145
 4427TIP3    H213225   2.395   5.674   3.164
 4428TIP3   OH213226   1.508   5.250   3.628
 4428TIP3    H113227   1.468   5.162   3.637
 4428TIP3    H213228   1.587   5.231   3.575
 4429TIP3   OH213229   1.794   4.650   3.287
 4429TIP3    H113230   1.749   4.729   3.249
 4429TIP3    H213231   1.725   4.582   3.276
 4430TIP3   OH213232   2.146   5.112   3.353
 4430TIP3    H113233   2.067   5.111   3.412
 4430TIP3    H213234   2.217   5.083   3.413
 4431TIP3   OH213235   2.389   5.058   3.500
 4431TIP3    H113236   2.397   4.962   3.517
 4431TIP3    H213237   2.382   5.094   3.591
 4432TIP3   OH213238   1.372   5.003   3.693
 4432TIP3    H113239   1.383   4.913   3.657
 4432TIP3    H213240   1.414   4.992   3.780
 4433TIP3   OH213241   1.885   4.669   3.545
 4433TIP3    H113242   1.952   4.598   3.534
 4433TIP3    H213243   1.844   4.668   3.456
 4434TIP3   OH213244   1.919   4.899   3.696
 4434TIP3    H113245   1.912   4.824   3.634
 4434TIP3    H213246   1.887   4.973   3.639
 4435TIP3   OH213247   1.172   6.117   1.813
 4435TIP3    H113248   1.258   6.120   1.766
 4435TIP3    H213249   1.110   6.145   1.745
 4436TIP3   OH213250   0.659   5.476   2.033
 4436TIP3    H113251   0.747   5.508   2.004
 4436TIP3    H213252   0.646   5.399   1.975
 4437TIP3   OH213253   0.564   6.115   2.430
 4437TIP3    H113254   0.501   6.051   2.389
 4437TIP3    H213255   0.611   6.055   2.492
 4438TIP3   OH213256   0.701   5.959   2.612
 4438TIP3    H113257   0.683   5.887   2.674
 4438TIP3    H213258   0.755   6.018   2.668
 4439TIP3   OH213259   2.430   6.359   2.415
 4439TIP3    H113260   2.454   6.387   2.505
 4439TIP3    H213261   2.496   6.405   2.361
 4440TIP3   OH213262   2.458   6.378   2.696
 4440TIP3    H113263   2.412   6.291   2.693
 4440TIP3    H213264   2.531   6.355   2.756
 4441TIP3   OH213265   2.504   6.056   3.269
 4441TIP3    H113266   2.432   6.066   3.335
 4441TIP3    H213267   2.547   6.144   3.274
 4442TIP3   OH213268   2.322   5.568   1.888
 4442TIP3    H113269   2.389   5.632   1.859
 4442TIP3    H213270   2.365   5.530   1.968
 4443TIP3   OH213271   2.449   5.436   2.093
 4443TIP3    H113272   2.382   5.394   2.151
 4443TIP3    H213273   2.513   5.472   2.157
 4444TIP3   OH213274   2.505   5.831   2.524
 4444TIP3    H113275   2.558   5.762   2.478
 4444TIP3    H213276   2.497   5.900   2.456
 4445TIP3   OH213277   2.332   6.130   2.717
 4445TIP3    H113278   2.260   6.170   2.770
 4445TIP3    H213279   2.282   6.083   2.647
 4446TIP3   OH213280   2.386   5.344   1.738
 4446TIP3    H113281   2.314   5.346   1.670
 4446TIP3    H213282   2.357   5.419   1.794
 4447TIP3   OH213283   2.258   5.016   1.690
 4447TIP3    H113284   2.210   5.051   1.614
 4447TIP3    H213285   2.235   4.921   1.683
 4448TIP3   OH213286   2.261   5.294   2.238
 4448TIP3    H113287   2.268   5.198   2.230
 4448TIP3    H213288   2.246   5.307   2.334
 4449TIP3   OH213289   0.886   5.368   2.987
 4449TIP3    H113290   0.884   5.334   2.896
 4449TIP3    H213291   0.983   5.368   3.004
 4450TIP3   OH213292   2.553   5.719   3.096
 4450TIP3    H113293   2.623   5.651   3.085
 4450TIP3    H213294   2.578   5.787   3.031
 4451TIP3   OH213295   2.735   5.519   3.104
 4451TIP3    H113296   2.660   5.471   3.145
 4451TIP3    H213297   2.808   5.456   3.122
 4452TIP3   OH213298   2.200   4.750   1.674
 4452TIP3    H113299   2.272   4.718   1.732
 4452TIP3    H213300   2.125   4.692   1.697
 4453TIP3   OH213301   2.259   5.010   2.130
 4453TIP3    H113302   2.299   4.921   2.146
 4453TIP3    H213303   2.317   5.042   2.059
 4454TIP3   OH213304   2.418   5.179   2.628
 4454TIP3    H113305   2.503   5.204   2.587
 4454TIP3    H213306   2.431   5.217   2.717
 4455TIP3   OH213307   2.489   5.327   2.857
 4455TIP3    H113308   2.412   5.360   2.908
 4455TIP3    H213309   2.521   5.409   2.814
 4456TIP3   OH213310   1.103   5.050   3.656
 4456TIP3    H113311   1.201   5.047   3.659
 4456TIP3    H213312   1.083   4.964   3.697
 4457TIP3   OH213313   2.940   4.921   3.414
 4457TIP3    H113314   3.001   4.856   3.372
 4457TIP3    H213315   2.910   4.973   3.336
 4458TIP3   OH213316   2.367   4.760   2.169
 4458TIP3    H113317   2.415   4.744   2.253
 4458TIP3    H213318   2.306   4.684   2.168
 4459TIP3   OH213319   1.065   4.747   2.995
 4459TIP3    H113320   1.126   4.671   3.001
 4459TIP3    H213321   1.128   4.820   2.983
 4460TIP3   OH213322   0.866   5.019   3.060
 4460TIP3    H113323   0.916   5.013   2.977
 4460TIP3    H213324   0.902   5.099   3.099
 4461TIP3   OH213325   2.809   5.056   3.218
 4461TIP3    H113326   2.724   5.099   3.240
 4461TIP3    H213327   2.776   4.984   3.161
 4462TIP3   OH213328   2.445   4.692   1.805
 4462TIP3    H113329   2.484   4.621   1.749
 4462TIP3    H213330   2.513   4.762   1.801
 4463TIP3   OH213331   0.853   4.519   2.562
 4463TIP3    H113332   0.761   4.517   2.591
 4463TIP3    H213333   0.848   4.580   2.485
 4464TIP3   OH213334   2.012   6.228   2.069
 4464TIP3    H113335   2.065   6.216   1.988
 4464TIP3    H213336   2.066   6.292   2.119
 4465TIP3   OH213337   1.073   4.602   3.378
 4465TIP3    H113338   1.022   4.597   3.460
 4465TIP3    H213339   1.007   4.638   3.316
 4466TIP3   OH213340   1.111   6.038   3.453
 4466TIP3    H113341   1.020   6.006   3.437
 4466TIP3    H213342   1.126   6.009   3.544
 4467TIP3   OH213343   1.291   6.067   3.004
 4467TIP3    H113344   1.246   6.143   2.963
 4467TIP3    H213345   1.378   6.077   2.959
 4468TIP3   OH213346   1.733   6.309   3.142
 4468TIP3    H113347   1.776   6.307   3.230
 4468TIP3    H213348   1.799   6.359   3.090
 4469TIP3   OH213349   1.913   6.461   3.001
 4469TIP3    H113350   1.983   6.409   2.959
 4469TIP3    H213351   1.966   6.517   3.061
 4470TIP3   OH213352   2.710   4.819   3.099
 4470TIP3    H113353   2.619   4.810   3.064
 4470TIP3    H213354   2.743   4.726   3.090
 4471TIP3   OH213355   0.968   6.321   3.026
 4471TIP3    H113356   0.878   6.354   3.004
 4471TIP3    H213357   0.979   6.361   3.113
 4472TIP3   OH213358   1.204   6.300   2.886
 4472TIP3    H113359   1.117   6.312   2.928
 4472TIP3    H213360   1.186   6.330   2.794
 4473TIP3   OH213361   1.629   6.325   2.683
 4473TIP3    H113362   1.558   6.343   2.619
 4473TIP3    H213363   1.640   6.413   2.725
 4474TIP3   OH213364   1.898   6.265   2.736
 4474TIP3    H113365   1.804   6.282   2.715
 4474TIP3    H213366   1.942   6.339   2.691
 4475TIP3   OH213367   2.104   6.456   2.648
 4475TIP3    H113368   2.091   6.540   2.599
 4475TIP3    H213369   2.131   6.395   2.576
 4476TIP3   OH213370   0.877   6.111   2.774
 4476TIP3    H113371   0.906   6.085   2.864
 4476TIP3    H213372   0.949   6.070   2.721
 4477TIP3   OH213373   1.072   5.986   2.633
 4477TIP3    H113374   1.089   5.901   2.681
 4477TIP3    H213375   1.164   6.021   2.626
 4478TIP3   OH213376   1.342   6.078   2.635
 4478TIP3    H113377   1.370   5.986   2.622
 4478TIP3    H213378   1.390   6.099   2.717
 4479TIP3   OH213379   1.913   4.734   2.717
 4479TIP3    H113380   1.871   4.664   2.771
 4479TIP3    H213381   1.988   4.687   2.677
 4480TIP3   OH213382   2.435   4.614   2.621
 4480TIP3    H113383   2.471   4.668   2.547
 4480TIP3    H213384   2.340   4.635   2.617
 4481TIP3   OH213385   2.532   4.715   2.386
 4481TIP3    H113386   2.606   4.663   2.348
 4481TIP3    H213387   2.565   4.806   2.372
 4482TIP3   OH213388   1.162   4.442   2.733
 4482TIP3    H113389   1.070   4.409   2.737
 4482TIP3    H213390   1.211   4.357   2.730
 4483TIP3   OH213391   0.948   4.315   2.383
 4483TIP3    H113392   0.980   4.371   2.311
 4483TIP3    H213393   0.923   4.381   2.451
 4484TIP3   OH213394   1.608   4.475   2.617
 4484TIP3    H113395   1.664   4.523   2.554
 4484TIP3    H213396   1.635   4.514   2.702
 4485TIP3   OH213397   2.151   4.623   2.598
 4485TIP3    H113398   2.152   4.582   2.511
 4485TIP3    H213399   2.140   4.544   2.656
 4486TIP3   OH213400   2.183   4.548   2.162
 4486TIP3    H113401   2.098   4.591   2.179
 4486TIP3    H213402   2.169   4.462   2.207
 4487TIP3   OH213403   0.669   5.888   2.156
 4487TIP3    H113404   0.580   5.860   2.127
 4487TIP3    H213405   0.666   5.981   2.125
 4488TIP3   OH213406   1.069   4.472   2.145
 4488TIP3    H113407   1.117   4.409   2.088
 4488TIP3    H213408   1.143   4.526   2.180
 4489TIP3   OH213409   1.578   4.650   2.245
 4489TIP3    H113410   1.638   4.603   2.305
 4489TIP3    H213411   1.600   4.743   2.270
 4490TIP3   OH213412   1.439   6.073   1.738
 4490TIP3    H113413   1.529   6.093   1.704
 4490TIP3    H213414   1.417   5.996   1.681
 4491TIP3   OH213415   2.161   6.194   1.838
 4491TIP3    H113416   2.154   6.096   1.829
 4491TIP3    H213417   2.113   6.223   1.758
 4492TIP3   OH213418   1.367   4.719   3.622
 4492TIP3    H113419   1.334   4.649   3.681
 4492TIP3    H213420   1.461   4.721   3.650
 4493TIP3   OH213421   1.615   4.723   3.742
 4493TIP3    H113422   1.704   4.712   3.705
 4493TIP3    H213423   1.610   4.650   3.807
 4494TIP3   OH213424   0.746   5.927   1.791
 4494TIP3    H113425   0.728   5.930   1.886
 4494TIP3    H213426   0.828   5.874   1.786
 4495TIP3   OH213427   2.447   4.784   3.532
 4495TIP3    H113428   2.465   4.754   3.623
 4495TIP3    H213429   2.536   4.780   3.491
 4496TIP3   OH213430   2.383   6.336   3.024
 4496TIP3    H113431   2.304   6.306   2.974
 4496TIP3    H213432   2.363   6.432   3.031
 4497TIP3   OH213433   3.652   5.708   1.787
 4497TIP3    H113434   3.622   5.799   1.768
 4497TIP3    H213435   3.575   5.658   1.758
 4498TIP3   OH213436   3.647   5.709   2.176
 4498TIP3    H113437   3.684   5.689   2.264
 4498TIP3    H213438   3.607   5.624   2.152
 4499TIP3   OH213439   2.947   5.601   2.537
 4499TIP3    H113440   2.975   5.532   2.599
 4499TIP3    H213441   3.026   5.657   2.535
 4500TIP3   OH213442   3.894   6.014   1.856
 4500TIP3    H113443   3.881   5.944   1.922
 4500TIP3    H213444   3.926   6.087   1.912
 4501TIP3   OH213445   2.920   6.014   2.256
 4501TIP3    H113446   2.911   5.916   2.258
 4501TIP3    H213447   3.016   6.023   2.261
 4502TIP3   OH213448   2.628   5.216   2.042
 4502TIP3    H113449   2.579   5.297   2.061
 4502TIP3    H213450   2.557   5.162   2.002
 4503TIP3   OH213451   2.685   5.503   2.222
 4503TIP3    H113452   2.734   5.425   2.257
 4503TIP3    H213453   2.746   5.536   2.155
 4504TIP3   OH213454   3.526   6.503   1.858
 4504TIP3    H113455   3.576   6.437   1.806
 4504TIP3    H213456   3.530   6.462   1.946
 4505TIP3   OH213457   3.448   5.936   2.219
 4505TIP3    H113458   3.489   5.858   2.179
 4505TIP3    H213459   3.531   5.983   2.246
 4506TIP3   OH213460   4.465   5.254   2.220
 4506TIP3    H113461   4.492   5.337   2.263
 4506TIP3    H213462   4.484   5.274   2.126
 4507TIP3   OH213463   3.862   5.435   2.250
 4507TIP3    H113464   3.904   5.350   2.272
 4507TIP3    H213465   3.829   5.416   2.159
 4508TIP3   OH213466   3.202   5.095   2.215
 4508TIP3    H113467   3.181   5.168   2.153
 4508TIP3    H213468   3.153   5.022   2.172
 4509TIP3   OH213469   3.896   5.186   1.837
 4509TIP3    H113470   3.967   5.171   1.904
 4509TIP3    H213471   3.950   5.222   1.764
 4510TIP3   OH213472   2.833   5.297   2.324
 4510TIP3    H113473   2.915   5.278   2.372
 4510TIP3    H213474   2.847   5.240   2.245
 4511TIP3   OH213475   3.272   5.494   2.118
 4511TIP3    H113476   3.366   5.470   2.131
 4511TIP3    H213477   3.234   5.410   2.087
 4512TIP3   OH213478   4.536   5.463   2.390
 4512TIP3    H113479   4.452   5.510   2.371
 4512TIP3    H213480   4.558   5.501   2.477
 4513TIP3   OH213481   3.196   5.078   2.652
 4513TIP3    H113482   3.136   5.116   2.584
 4513TIP3    H213483   3.143   5.095   2.733
 4514TIP3   OH213484   3.539   5.926   1.657
 4514TIP3    H113485   3.498   5.910   1.571
 4514TIP3    H213486   3.496   6.010   1.683
 4515TIP3   OH213487   3.302   5.854   2.443
 4515TIP3    H113488   3.242   5.922   2.481
 4515TIP3    H213489   3.347   5.905   2.372
 4516TIP3   OH213490   4.101   5.191   2.016
 4516TIP3    H113491   4.079   5.152   2.102
 4516TIP3    H213492   4.152   5.270   2.042
 4517TIP3   OH213493   3.067   5.193   2.434
 4517TIP3    H113494   3.129   5.266   2.459
 4517TIP3    H213495   3.118   5.153   2.360
 4518TIP3   OH213496   3.129   6.050   2.542
 4518TIP3    H113497   3.105   6.139   2.509
 4518TIP3    H213498   3.051   6.032   2.599
 4519TIP3   OH213499   2.523   5.740   1.779
 4519TIP3    H113500   2.480   5.767   1.696
 4519TIP3    H213501   2.555   5.825   1.815
 4520TIP3   OH213502   3.960   6.255   2.018
 4520TIP3    H113503   3.871   6.245   2.058
 4520TIP3    H213504   3.952   6.343   1.976
 4521TIP3   OH213505   4.257   5.149   2.382
 4521TIP3    H113506   4.170   5.181   2.353
 4521TIP3    H213507   4.317   5.185   2.313
 4522TIP3   OH213508   3.549   4.794   2.368
 4522TIP3    H113509   3.532   4.700   2.386
 4522TIP3    H213510   3.472   4.835   2.415
 4523TIP3   OH213511   3.657   6.311   1.693
 4523TIP3    H113512   3.706   6.226   1.680
 4523TIP3    H213513   3.723   6.372   1.653
 4524TIP3   OH213514   3.801   6.091   1.609
 4524TIP3    H113515   3.769   6.009   1.568
 4524TIP3    H213516   3.842   6.056   1.691
 4525TIP3   OH213517   4.187   6.167   2.363
 4525TIP3    H113518   4.176   6.087   2.307
 4525TIP3    H213519   4.173   6.239   2.298
 4526TIP3   OH213520   3.480   5.559   1.623
 4526TIP3    H113521   3.401   5.613   1.601
 4526TIP3    H213522   3.527   5.557   1.537
 4527TIP3   OH213523   3.438   5.348   1.334
 4527TIP3    H113524   3.505   5.399   1.383
 4527TIP3    H213525   3.496   5.285   1.287
 4528TIP3   OH213526   4.384   5.802   2.208
 4528TIP3    H113527   4.301   5.855   2.216
 4528TIP3    H213528   4.414   5.830   2.119
 4529TIP3   OH213529   3.830   5.643   1.590
 4529TIP3    H113530   3.775   5.667   1.669
 4529TIP3    H213531   3.914   5.619   1.634
 4530TIP3   OH213532   4.061   5.671   2.503
 4530TIP3    H113533   4.068   5.750   2.562
 4530TIP3    H213534   3.976   5.689   2.460
 4531TIP3   OH213535   3.062   5.640   2.010
 4531TIP3    H113536   3.021   5.581   1.943
 4531TIP3    H213537   3.138   5.586   2.041
 4532TIP3   OH213538   3.196   6.060   2.154
 4532TIP3    H113539   3.173   6.012   2.073
 4532TIP3    H213540   3.284   6.021   2.175
 4533TIP3   OH213541   3.196   5.611   2.364
 4533TIP3    H113542   3.231   5.587   2.276
 4533TIP3    H213543   3.241   5.697   2.383
 4534TIP3   OH213544   3.721   6.248   2.142
 4534TIP3    H113545   3.711   6.327   2.197
 4534TIP3    H213546   3.706   6.175   2.205
 4535TIP3   OH213547   3.337   6.170   2.685
 4535TIP3    H113548   3.277   6.229   2.736
 4535TIP3    H213549   3.271   6.115   2.638
 4536TIP3   OH213550   3.667   5.502   1.420
 4536TIP3    H113551   3.726   5.562   1.470
 4536TIP3    H213552   3.694   5.523   1.327
 4537TIP3   OH213553   3.090   5.723   2.791
 4537TIP3    H113554   3.095   5.811   2.834
 4537TIP3    H213555   2.996   5.703   2.806
 4538TIP3   OH213556   3.420   6.173   1.694
 4538TIP3    H113557   3.500   6.227   1.706
 4538TIP3    H213558   3.350   6.237   1.680
 4539TIP3   OH213559   3.128   6.334   2.776
 4539TIP3    H113560   3.092   6.334   2.686
 4539TIP3    H213561   3.048   6.313   2.830
 4540TIP3   OH213562   4.184   4.740   1.468
 4540TIP3    H113563   4.103   4.762   1.518
 4540TIP3    H213564   4.199   4.823   1.419
 4541TIP3   OH213565   2.929   5.483   1.812
 4541TIP3    H113566   2.858   5.526   1.758
 4541TIP3    H213567   2.891   5.396   1.828
 4542TIP3   OH213568   3.985   6.107   1.020
 4542TIP3    H113569   3.994   6.203   1.001
 4542TIP3    H213570   4.078   6.077   1.006
 4543TIP3   OH213571   2.708   5.867   2.722
 4543TIP3    H113572   2.640   5.845   2.655
 4543TIP3    H213573   2.745   5.780   2.745
 4544TIP3   OH213574   2.562   6.063   2.348
 4544TIP3    H113575   2.659   6.054   2.347
 4544TIP3    H213576   2.551   6.138   2.409
 4545TIP3   OH213577   4.425   6.512   2.411
 4545TIP3    H113578   4.426   6.416   2.430
 4545TIP3    H213579   4.343   6.537   2.459
 4546TIP3   OH213580   3.528   6.301   2.541
 4546TIP3    H113581   3.527   6.391   2.578
 4546TIP3    H213582   3.460   6.257   2.597
 4547TIP3   OH213583   3.277   6.464   1.475
 4547TIP3    H113584   3.274   6.402   1.400
 4547TIP3    H213585   3.183   6.481   1.487
 4548TIP3   OH213586   2.735   6.274   1.882
 4548TIP3    H113587   2.778   6.264   1.970
 4548TIP3    H213588   2.682   6.192   1.879
 4549TIP3   OH213589   3.499   6.332   1.138
 4549TIP3    H113590   3.554   6.260   1.098
 4549TIP3    H213591   3.533   6.333   1.230
 4550TIP3   OH213592   3.547   6.377   1.410
 4550TIP3    H113593   3.464   6.385   1.460
 4550TIP3    H213594   3.605   6.333   1.475
 4551TIP3   OH213595   4.321   5.640   2.691
 4551TIP3    H113596   4.237   5.661   2.649
 4551TIP3    H213597   4.329   5.543   2.676
 4552TIP3   OH213598   2.912   6.051   2.707
 4552TIP3    H113599   2.961   6.035   2.790
 4552TIP3    H213600   2.838   5.987   2.716
 4553TIP3   OH213601   3.312   4.873   2.497
 4553TIP3    H113602   3.223   4.843   2.468
 4553TIP3    H213603   3.286   4.954   2.545
 4554TIP3   OH213604   3.847   4.986   2.690
 4554TIP3    H113605   3.915   4.961   2.756
 4554TIP3    H213606   3.763   4.969   2.738
 4555TIP3   OH213607   4.082   5.416   2.607
 4555TIP3    H113608   4.032   5.415   2.692
 4555TIP3    H213609   4.062   5.504   2.571
 4556TIP3   OH213610   3.745   5.544   1.165
 4556TIP3    H113611   3.710   5.522   1.077
 4556TIP3    H213612   3.828   5.589   1.140
 4557TIP3   OH213613   3.458   4.920   1.468
 4557TIP3    H113614   3.423   4.917   1.559
 4557TIP3    H213615   3.417   4.839   1.432
 4558TIP3   OH213616   3.244   5.390   2.514
 4558TIP3    H113617   3.194   5.411   2.596
 4558TIP3    H213618   3.228   5.471   2.461
 4559TIP3   OH213619   3.127   5.276   2.027
 4559TIP3    H113620   3.035   5.249   2.047
 4559TIP3    H213621   3.139   5.234   1.939
 4560TIP3   OH213622   3.618   5.360   1.757
 4560TIP3    H113623   3.567   5.432   1.713
 4560TIP3    H213624   3.673   5.327   1.683
 4561TIP3   OH213625   3.790   5.634   2.836
 4561TIP3    H113626   3.773   5.563   2.902
 4561TIP3    H213627   3.881   5.659   2.860
 4562TIP3   OH213628   3.774   5.386   1.994
 4562TIP3    H113629   3.712   5.415   1.924
 4562TIP3    H213630   3.809   5.306   1.949
 4563TIP3   OH213631   3.062   5.417   2.721
 4563TIP3    H113632   3.093   5.480   2.788
 4563TIP3    H213633   3.051   5.335   2.774
 4564TIP3   OH213634   3.114   4.896   1.432
 4564TIP3    H113635   3.104   4.894   1.529
 4564TIP3    H213636   3.035   4.949   1.406
 4565TIP3   OH213637   2.656   4.938   2.302
 4565TIP3    H113638   2.731   4.971   2.357
 4565TIP3    H213639   2.699   4.906   2.221
 4566TIP3   OH213640   2.623   4.919   1.822
 4566TIP3    H113641   2.669   4.956   1.744
 4566TIP3    H213642   2.562   4.993   1.841
 4567TIP3   OH213643   3.775   5.633   2.411
 4567TIP3    H113644   3.814   5.562   2.355
 4567TIP3    H213645   3.751   5.580   2.490
 4568TIP3   OH213646   3.458   5.094   2.087
 4568TIP3    H113647   3.377   5.095   2.141
 4568TIP3    H213648   3.527   5.093   2.156
 4569TIP3   OH213649   2.890   5.154   2.095
 4569TIP3    H113650   2.795   5.162   2.067
 4569TIP3    H213651   2.911   5.062   2.074
 4570TIP3   OH213652   3.155   5.147   1.787
 4570TIP3    H113653   3.249   5.163   1.765
 4570TIP3    H213654   3.108   5.170   1.703
 4571TIP3   OH213655   3.947   5.172   2.287
 4571TIP3    H113656   3.919   5.185   2.380
 4571TIP3    H213657   3.876   5.113   2.256
 4572TIP3   OH213658   3.004   5.184   1.563
 4572TIP3    H113659   2.932   5.139   1.516
 4572TIP3    H213660   3.055   5.221   1.488
 4573TIP3   OH213661   4.118   6.865   2.512
 4573TIP3    H113662   4.120   6.887   2.417
 4573TIP3    H213663   4.200   6.908   2.544
 4574TIP3   OH213664   3.075   5.973   2.930
 4574TIP3    H113665   3.155   6.001   2.978
 4574TIP3    H213666   3.011   5.971   3.003
 4575TIP3   OH213667   3.536   5.426   2.186
 4575TIP3    H113668   3.612   5.388   2.139
 4575TIP3    H213669   3.542   5.385   2.274
 4576TIP3   OH213670   3.057   4.912   2.069
 4576TIP3    H113671   3.020   4.835   2.118
 4576TIP3    H213672   3.104   4.868   1.997
 4577TIP3   OH213673   3.514   5.326   2.474
 4577TIP3    H113674   3.425   5.362   2.490
 4577TIP3    H213675   3.572   5.387   2.525
 4578TIP3   OH213676   3.249   5.713   1.569
 4578TIP3    H113677   3.178   5.646   1.558
 4578TIP3    H213678   3.230   5.746   1.660
 4579TIP3   OH213679   4.152   5.949   2.196
 4579TIP3    H113680   4.175   6.000   2.116
 4579TIP3    H213681   4.066   5.907   2.171
 4580TIP3   OH213682   3.708   5.024   1.433
 4580TIP3    H113683   3.612   5.004   1.444
 4580TIP3    H213684   3.715   5.118   1.461
 4581TIP3   OH213685   3.645   6.029   2.570
 4581TIP3    H113686   3.693   6.012   2.653
 4581TIP3    H213687   3.612   6.119   2.583
 4582TIP3   OH213688   3.777   5.273   1.539
 4582TIP3    H113689   3.873   5.279   1.555
 4582TIP3    H213690   3.758   5.354   1.488
 4583TIP3   OH213691   2.945   5.738   2.244
 4583TIP3    H113692   2.984   5.706   2.160
 4583TIP3    H213693   2.987   5.679   2.309
 4584TIP3   OH213694   3.395   5.863   1.393
 4584TIP3    H113695   3.349   5.949   1.401
 4584TIP3    H213696   3.341   5.807   1.453
 4585TIP3   OH213697   2.826   5.655   2.860
 4585TIP3    H113698   2.843   5.641   2.955
 4585TIP3    H213699   2.756   5.589   2.843
 4586TIP3   OH213700   3.553   5.770   2.880
 4586TIP3    H113701   3.494   5.710   2.833
 4586TIP3    H213702   3.641   5.738   2.851
 4587TIP3   OH213703   3.807   6.300   2.461
 4587TIP3    H113704   3.711   6.295   2.479
 4587TIP3    H213705   3.837   6.345   2.543
 4588TIP3   OH213706   4.217   5.366   1.373
 4588TIP3    H113707   4.156   5.322   1.309
 4588TIP3    H213708   4.214   5.456   1.334
 4589TIP3   OH213709   4.437   6.225   2.454
 4589TIP3    H113710   4.339   6.218   2.449
 4589TIP3    H213711   4.461   6.191   2.364
 4590TIP3   OH213712   3.916   6.182   1.281
 4590TIP3    H113713   3.896   6.109   1.341
 4590TIP3    H213714   3.934   6.137   1.197
 4591TIP3   OH213715   3.915   5.814   2.110
 4591TIP3    H113716   3.822   5.790   2.127
 4591TIP3    H213717   3.949   5.732   2.069
 4592TIP3   OH213718   3.044   6.040   1.869
 4592TIP3    H113719   3.035   6.120   1.814
 4592TIP3    H213720   2.952   6.018   1.888
 4593TIP3   OH213721   2.610   5.343   1.578
 4593TIP3    H113722   2.654   5.427   1.600
 4593TIP3    H213723   2.532   5.346   1.638
 4594TIP3   OH213724   3.178   5.803   1.812
 4594TIP3    H113725   3.143   5.892   1.833
 4594TIP3    H213726   3.145   5.751   1.888
 4595TIP3   OH213727   3.316   6.382   2.340
 4595TIP3    H113728   3.364   6.453   2.294
 4595TIP3    H213729   3.388   6.341   2.392
 4596TIP3   OH213730   2.962   6.279   1.720
 4596TIP3    H113731   2.877   6.285   1.769
 4596TIP3    H213732   2.992   6.372   1.722
 4597TIP3   OH213733   3.700   6.017   2.302
 4597TIP3    H113734   3.687   6.015   2.399
 4597TIP3    H213735   3.783   5.969   2.294
 4598TIP3   OH213736   3.678   5.913   1.184
 4598TIP3    H113737   3.733   5.887   1.262
 4598TIP3    H213738   3.591   5.881   1.212
 4599TIP3   OH213739   3.949   6.548   2.353
 4599TIP3    H113740   3.872   6.487   2.351
 4599TIP3    H213741   3.928   6.609   2.279
 4600TIP3   OH213742   4.015   6.383   1.002
 4600TIP3    H113743   4.054   6.454   0.948
 4600TIP3    H213744   3.935   6.429   1.033
 4601TIP3   OH213745   3.033   5.160   2.865
 4601TIP3    H113746   2.937   5.164   2.878
 4601TIP3    H213747   3.061   5.104   2.939
 4602TIP3   OH213748   3.840   5.845   1.398
 4602TIP3    H113749   3.828   5.779   1.469
 4602TIP3    H213750   3.937   5.840   1.385
 4603TIP3   OH213751   2.753   6.243   2.498
 4603TIP3    H113752   2.807   6.171   2.535
 4603TIP3    H213753   2.775   6.315   2.558
 4604TIP3   OH213754   3.040   5.891   1.183
 4604TIP3    H113755   3.054   5.798   1.155
 4604TIP3    H213756   3.020   5.878   1.278
 4605TIP3   OH213757   2.985   5.895   1.455
 4605TIP3    H113758   3.058   5.865   1.512
 4605TIP3    H213759   2.992   5.993   1.464
 4606TIP3   OH213760   2.720   5.587   1.659
 4606TIP3    H113761   2.653   5.632   1.715
 4606TIP3    H213762   2.733   5.656   1.591
 4607TIP3   OH213763   3.879   5.220   2.546
 4607TIP3    H113764   3.953   5.265   2.590
 4607TIP3    H213765   3.864   5.142   2.604
 4608TIP3   OH213766   3.757   4.972   1.718
 4608TIP3    H113767   3.742   4.997   1.625
 4608TIP3    H213768   3.796   5.055   1.755
 4609TIP3   OH213769   3.256   6.094   1.404
 4609TIP3    H113770   3.168   6.118   1.439
 4609TIP3    H213771   3.261   6.149   1.325
 4610TIP3   OH213772   3.439   5.157   1.818
 4610TIP3    H113773   3.503   5.230   1.802
 4610TIP3    H213774   3.445   5.148   1.916
 4611TIP3   OH213775   3.712   5.473   2.623
 4611TIP3    H113776   3.734   5.530   2.700
 4611TIP3    H213777   3.766   5.394   2.640
 4612TIP3   OH213778   3.584   4.878   1.918
 4612TIP3    H113779   3.576   4.956   1.977
 4612TIP3    H213780   3.646   4.913   1.851
 4613TIP3   OH213781   3.002   6.169   1.471
 4613TIP3    H113782   2.969   6.239   1.410
 4613TIP3    H213783   2.981   6.208   1.558
 4614TIP3   OH213784   3.098   4.882   1.708
 4614TIP3    H113785   3.095   4.972   1.747
 4614TIP3    H213786   3.194   4.865   1.716
 4615TIP3   OH213787   4.348   5.371   2.608
 4615TIP3    H113788   4.250   5.369   2.614
 4615TIP3    H213789   4.361   5.340   2.517
 4616TIP3   OH213790   4.002   5.568   1.993
 4616TIP3    H113791   3.926   5.509   2.008
 4616TIP3    H213792   4.073   5.522   2.042
 4617TIP3   OH213793   2.716   5.794   1.462
 4617TIP3    H113794   2.788   5.859   1.471
 4617TIP3    H213795   2.759   5.735   1.396
 4618TIP3   OH213796   2.658   5.072   1.596
 4618TIP3    H113797   2.658   5.170   1.595
 4618TIP3    H213798   2.575   5.052   1.552
 4619TIP3   OH213799   3.971   6.527   1.941
 4619TIP3    H113800   3.931   6.576   1.867
 4619TIP3    H213801   4.066   6.545   1.924
 4620TIP3   OH213802   3.048   4.793   2.467
 4620TIP3    H113803   3.016   4.758   2.381
 4620TIP3    H213804   3.037   4.715   2.526
 4621TIP3   OH213805   2.585   6.016   1.847
 4621TIP3    H113806   2.521   6.041   1.914
 4621TIP3    H213807   2.547   6.057   1.766
 4622TIP3   OH213808   2.746   6.559   2.919
 4622TIP3    H113809   2.832   6.560   2.967
 4622TIP3    H213810   2.727   6.463   2.920
 4623TIP3   OH213811   3.223   6.517   2.964
 4623TIP3    H113812   3.316   6.493   2.974
 4623TIP3    H213813   3.197   6.455   2.893
 4624TIP3   OH213814   3.207   6.091   1.097
 4624TIP3    H113815   3.150   6.017   1.130
 4624TIP3    H213816   3.281   6.040   1.059
 4625TIP3   OH213817   3.865   6.421   2.701
 4625TIP3    H113818   3.854   6.351   2.770
 4625TIP3    H213819   3.945   6.466   2.733
 4626TIP3   OH213820   3.638   6.133   1.008
 4626TIP3    H113821   3.682   6.069   1.067
 4626TIP3    H213822   3.694   6.130   0.927
 4627TIP3   OH213823   2.873   5.961   3.122
 4627TIP3    H113824   2.889   5.865   3.129
 4627TIP3    H213825   2.786   5.963   3.077
 4628TIP3   OH213826   2.852   5.608   1.317
 4628TIP3    H113827   2.907   5.576   1.390
 4628TIP3    H213828   2.919   5.613   1.246
 4629TIP3   OH213829   3.476   6.044   2.897
 4629TIP3    H113830   3.443   6.064   2.808
 4629TIP3    H213831   3.513   5.954   2.887
 4630TIP3   OH213832   3.364   5.809   1.124
 4630TIP3    H113833   3.366   5.820   1.221
 4630TIP3    H213834   3.365   5.711   1.117
 4631TIP3   OH213835   3.968   6.058   2.498
 4631TIP3    H113836   4.050   6.098   2.464
 4631TIP3    H213837   3.905   6.131   2.485
 4632TIP3   OH213838   2.994   5.698   3.105
 4632TIP3    H113839   3.070   5.644   3.080
 4632TIP3    H213840   3.022   5.730   3.193
 4633TIP3   OH213841   3.057   5.516   1.536
 4633TIP3    H113842   3.029   5.476   1.621
 4633TIP3    H213843   3.094   5.440   1.488
 4634TIP3   OH213844   3.326   5.576   2.764
 4634TIP3    H113845   3.250   5.638   2.766
 4634TIP3    H213846   3.378   5.611   2.689
 4635TIP3   OH213847   3.160   5.311   1.377
 4635TIP3    H113848   3.135   5.318   1.282
 4635TIP3    H213849   3.258   5.313   1.370
 4636TIP3   OH213850   3.841   5.978   2.888
 4636TIP3    H113851   3.934   5.981   2.862
 4636TIP3    H213852   3.844   5.923   2.967
 4637TIP3   OH213853   3.979   5.638   1.046
 4637TIP3    H113854   3.957   5.595   0.961
 4637TIP3    H213855   3.946   5.729   1.025
 4638TIP3   OH213856   3.452   5.369   2.891
 4638TIP3    H113857   3.452   5.290   2.833
 4638TIP3    H213858   3.408   5.436   2.834
 4639TIP3   OH213859   3.455   5.154   2.699
 4639TIP3    H113860   3.482   5.197   2.615
 4639TIP3    H213861   3.361   5.132   2.680
 4640TIP3   OH213862   3.477   5.685   2.571
 4640TIP3    H113863   3.564   5.701   2.532
 4640TIP3    H213864   3.422   5.753   2.526
 4641TIP3   OH213865   4.057   5.655   2.949
 4641TIP3    H113866   4.116   5.579   2.963
 4641TIP3    H213867   4.116   5.720   2.908
 4642TIP3   OH213868   4.095   5.881   2.668
 4642TIP3    H113869   4.038   5.948   2.625
 4642TIP3    H213870   4.183   5.920   2.651
 4643TIP3   OH213871   3.330   5.475   3.125
 4643TIP3    H113872   3.262   5.406   3.140
 4643TIP3    H213873   3.363   5.451   3.036
 4644TIP3   OH213874   3.585   4.916   2.768
 4644TIP3    H113875   3.535   4.998   2.745
 4644TIP3    H213876   3.515   4.848   2.757
 4645TIP3   OH213877   3.714   5.417   2.984
 4645TIP3    H113878   3.699   5.405   3.079
 4645TIP3    H213879   3.624   5.395   2.951
 4646TIP3   OH213880   3.948   5.363   2.835
 4646TIP3    H113881   3.874   5.372   2.899
 4646TIP3    H213882   4.023   5.340   2.893
 4647TIP3   OH213883   4.180   5.313   2.988
 4647TIP3    H113884   4.191   5.218   3.006
 4647TIP3    H213885   4.174   5.351   3.079
 4648TIP3   OH213886   3.168   5.255   3.178
 4648TIP3    H113887   3.172   5.163   3.146
 4648TIP3    H213888   3.206   5.244   3.268
 4649TIP3   OH213889   3.680   4.926   3.025
 4649TIP3    H113890   3.745   4.853   3.018
 4649TIP3    H213891   3.639   4.922   2.937
 4650TIP3   OH213892   3.745   5.141   3.186
 4650TIP3    H113893   3.724   5.070   3.120
 4650TIP3    H213894   3.667   5.200   3.178
 4651TIP3   OH213895   2.976   6.384   1.293
 4651TIP3    H113896   3.068   6.368   1.265
 4651TIP3    H213897   2.941   6.425   1.212
 4652TIP3   OH213898   2.446   5.754   1.497
 4652TIP3    H113899   2.542   5.774   1.483
 4652TIP3    H213900   2.440   5.664   1.457
 4653TIP3   OH213901   2.365   6.365   1.915
 4653TIP3    H113902   2.298   6.304   1.877
 4653TIP3    H213903   2.408   6.306   1.981
 4654TIP3   OH213904   2.498   6.212   2.102
 4654TIP3    H113905   2.486   6.141   2.168
 4654TIP3    H213906   2.549   6.275   2.156
 4655TIP3   OH213907   4.223   6.622   1.901
 4655TIP3    H113908   4.253   6.647   1.991
 4655TIP3    H213909   4.296   6.654   1.846
 4656TIP3   OH213910   4.255   6.634   2.183
 4656TIP3    H113911   4.209   6.548   2.180
 4656TIP3    H213912   4.328   6.611   2.244
 4657TIP3   OH213913   4.302   6.314   2.742
 4657TIP3    H113914   4.251   6.282   2.821
 4657TIP3    H213915   4.340   6.398   2.772
 4658TIP3   OH213916   4.117   5.825   1.375
 4658TIP3    H113917   4.184   5.890   1.344
 4658TIP3    H213918   4.162   5.787   1.454
 4659TIP3   OH213919   4.245   5.692   1.579
 4659TIP3    H113920   4.178   5.651   1.639
 4659TIP3    H213921   4.311   5.728   1.641
 4660TIP3   OH213922   4.300   6.087   2.008
 4660TIP3    H113923   4.354   6.019   1.963
 4660TIP3    H213924   4.296   6.158   1.942
 4661TIP3   OH213925   4.128   6.388   2.201
 4661TIP3    H113926   4.057   6.423   2.259
 4661TIP3    H213927   4.076   6.339   2.133
 4662TIP3   OH213928   4.182   5.600   1.225
 4662TIP3    H113929   4.110   5.604   1.158
 4662TIP3    H213930   4.155   5.676   1.281
 4663TIP3   OH213931   4.053   5.271   1.177
 4663TIP3    H113932   4.003   5.310   1.104
 4663TIP3    H213933   4.031   5.176   1.167
 4664TIP3   OH213934   4.056   5.551   1.724
 4664TIP3    H113935   4.065   5.455   1.718
 4664TIP3    H213936   4.042   5.564   1.821
 4665TIP3   OH213937   2.682   5.624   2.472
 4665TIP3    H113938   2.680   5.590   2.381
 4665TIP3    H213939   2.779   5.624   2.489
 4666TIP3   OH213940   4.339   5.970   2.577
 4666TIP3    H113941   4.416   5.910   2.572
 4666TIP3    H213942   4.372   6.051   2.537
 4667TIP3   OH213943   4.531   5.776   2.587
 4667TIP3    H113944   4.458   5.730   2.633
 4667TIP3    H213945   4.604   5.714   2.606
 4668TIP3   OH213946   3.999   5.003   1.155
 4668TIP3    H113947   4.070   4.976   1.216
 4668TIP3    H213948   3.923   4.950   1.184
 4669TIP3   OH213949   4.054   5.266   1.617
 4669TIP3    H113950   4.095   5.178   1.631
 4669TIP3    H213951   4.113   5.300   1.547
 4670TIP3   OH213952   4.214   5.436   2.115
 4670TIP3    H113953   4.300   5.461   2.074
 4670TIP3    H213954   4.227   5.475   2.203
 4671TIP3   OH213955   4.285   5.582   2.344
 4671TIP3    H113956   4.208   5.615   2.395
 4671TIP3    H213957   4.317   5.665   2.302
 4672TIP3   OH213958   2.902   5.309   3.148
 4672TIP3    H113959   3.000   5.303   3.151
 4672TIP3    H213960   2.878   5.222   3.186
 4673TIP3   OH213961   4.739   5.178   2.902
 4673TIP3    H113962   4.798   5.113   2.857
 4673TIP3    H213963   4.705   5.230   2.826
 4674TIP3   OH213964   4.164   5.017   1.656
 4674TIP3    H113965   4.211   5.001   1.740
 4674TIP3    H213966   4.102   4.940   1.656
 4675TIP3   OH213967   2.863   5.002   2.475
 4675TIP3    H113968   2.925   4.926   2.485
 4675TIP3    H213969   2.926   5.076   2.468
 4676TIP3   OH213970   2.663   5.274   2.549
 4676TIP3    H113971   2.714   5.272   2.465
 4676TIP3    H213972   2.693   5.357   2.587
 4677TIP3   OH213973   4.605   5.312   2.709
 4677TIP3    H113974   4.523   5.358   2.737
 4677TIP3    H213975   4.567   5.245   2.649
 4678TIP3   OH213976   4.240   4.949   1.291
 4678TIP3    H113977   4.282   4.879   1.237
 4678TIP3    H213978   4.308   5.020   1.289
 4679TIP3   OH213979   2.650   4.777   2.050
 4679TIP3    H113980   2.557   4.772   2.079
 4679TIP3    H213981   2.643   4.837   1.972
 4680TIP3   OH213982   3.808   6.489   1.555
 4680TIP3    H113983   3.857   6.472   1.472
 4680TIP3    H213984   3.872   6.542   1.605
 4681TIP3   OH213985   2.870   4.857   2.864
 4681TIP3    H113986   2.819   4.853   2.947
 4681TIP3    H213987   2.804   4.896   2.804
 4682TIP3   OH213988   2.908   6.289   2.940
 4682TIP3    H113989   2.815   6.262   2.926
 4682TIP3    H213990   2.921   6.268   3.033
 4683TIP3   OH213991   3.087   6.320   2.488
 4683TIP3    H113992   3.041   6.397   2.450
 4683TIP3    H213993   3.174   6.334   2.445
 4684TIP3   OH213994   3.531   6.566   2.628
 4684TIP3    H113995   3.573   6.561   2.717
 4684TIP3    H213996   3.599   6.616   2.578
 4685TIP3   OH213997   3.711   6.718   2.486
 4685TIP3    H113998   3.782   6.663   2.450
 4685TIP3    H213999   3.762   6.775   2.548
 4686TIP3   OH214000   4.505   5.077   2.586
 4686TIP3    H114001   4.415   5.073   2.549
 4686TIP3    H214002   4.535   4.984   2.575
 4687TIP3   OH214003   2.763   6.579   2.512
 4687TIP3    H114004   2.672   6.610   2.493
 4687TIP3    H214005   2.777   6.619   2.599
 4688TIP3   OH214006   2.999   6.557   2.372
 4688TIP3    H114007   2.912   6.568   2.417
 4688TIP3    H214008   2.977   6.587   2.282
 4689TIP3   OH214009   3.427   6.589   2.162
 4689TIP3    H114010   3.347   6.609   2.111
 4689TIP3    H214011   3.439   6.671   2.214
 4690TIP3   OH214012   3.695   6.521   2.219
 4690TIP3    H114013   3.602   6.542   2.198
 4690TIP3    H214014   3.742   6.598   2.183
 4691TIP3   OH214015   3.897   6.711   2.134
 4691TIP3    H114016   3.888   6.795   2.084
 4691TIP3    H214017   3.928   6.649   2.064
 4692TIP3   OH214018   2.677   6.370   2.258
 4692TIP3    H114019   2.701   6.342   2.348
 4692TIP3    H214020   2.748   6.325   2.208
 4693TIP3   OH214021   2.872   6.242   2.116
 4693TIP3    H114022   2.884   6.157   2.166
 4693TIP3    H214023   2.964   6.275   2.115
 4694TIP3   OH214024   3.141   6.336   2.119
 4694TIP3    H114025   3.169   6.242   2.112
 4694TIP3    H214026   3.187   6.357   2.203
 4695TIP3   OH214027   3.710   4.991   2.206
 4695TIP3    H114028   3.668   4.921   2.258
 4695TIP3    H214029   3.785   4.944   2.164
 4696TIP3   OH214030   4.232   4.868   2.109
 4696TIP3    H114031   4.268   4.922   2.036
 4696TIP3    H214032   4.137   4.891   2.106
 4697TIP3   OH214033   4.327   4.970   1.874
 4697TIP3    H114034   4.402   4.919   1.834
 4697TIP3    H214035   4.361   5.062   1.860
 4698TIP3   OH214036   2.959   4.699   2.220
 4698TIP3    H114037   2.866   4.666   2.224
 4698TIP3    H214038   3.007   4.614   2.216
 4699TIP3   OH214039   2.747   4.572   1.871
 4699TIP3    H114040   2.776   4.629   1.798
 4699TIP3    H214041   2.720   4.637   1.938
 4700TIP3   OH214042   3.405   4.730   2.102
 4700TIP3    H114043   3.461   4.780   2.041
 4700TIP3    H214044   3.428   4.771   2.187
 4701TIP3   OH214045   3.947   4.880   2.085
 4701TIP3    H114046   3.947   4.841   1.997
 4701TIP3    H214047   3.935   4.801   2.142
 4702TIP3   OH214048   3.979   4.804   1.649
 4702TIP3    H114049   3.894   4.849   1.666
 4702TIP3    H214050   3.965   4.718   1.694
 4703TIP3   OH214051   2.463   6.145   1.644
 4703TIP3    H114052   2.377   6.110   1.613
 4703TIP3    H214053   2.451   6.239   1.621
 4704TIP3   OH214054   2.865   4.730   1.631
 4704TIP3    H114055   2.913   4.666   1.574
 4704TIP3    H214056   2.939   4.783   1.667
 4705TIP3   OH214057   3.375   4.907   1.731
 4705TIP3    H114058   3.434   4.860   1.792
 4705TIP3    H214059   3.396   4.999   1.756
 4706TIP3   OH214060   3.240   6.325   1.231
 4706TIP3    H114061   3.327   6.347   1.192
 4706TIP3    H214062   3.215   6.252   1.170
 4707TIP3   OH214063   3.952   6.448   1.326
 4707TIP3    H114064   3.945   6.350   1.314
 4707TIP3    H214065   3.912   6.478   1.242
 4708TIP3   OH214066   3.166   4.981   3.112
 4708TIP3    H114067   3.130   4.910   3.169
 4708TIP3    H214068   3.260   4.980   3.141
 4709TIP3   OH214069   3.416   4.978   3.232
 4709TIP3    H114070   3.502   4.953   3.194
 4709TIP3    H214071   3.403   4.908   3.299
 4710TIP3   OH214072   2.541   6.167   1.285
 4710TIP3    H114073   2.538   6.182   1.381
 4710TIP3    H214074   2.628   6.123   1.273
 4711TIP3   OH214075   4.243   5.040   3.018
 4711TIP3    H114076   4.261   5.011   3.110
 4711TIP3    H214077   4.333   5.037   2.979
 4712TIP3   OH214078   4.179   6.596   2.509
 4712TIP3    H114079   4.100   6.563   2.463
 4712TIP3    H214080   4.156   6.691   2.517
 4713TIP3   OH214081   5.447   5.965   1.277
 4713TIP3    H114082   5.416   6.055   1.255
 4713TIP3    H214083   5.372   5.913   1.241
 4714TIP3   OH214084   5.447   5.968   1.661
 4714TIP3    H114085   5.480   5.939   1.749
 4714TIP3    H214086   5.406   5.886   1.628
 4715TIP3   OH214087   4.743   5.857   2.023
 4715TIP3    H114088   4.772   5.789   2.086
 4715TIP3    H214089   4.820   5.916   2.023
 4716TIP3   OH214090   5.689   6.272   1.341
 4716TIP3    H114091   5.675   6.201   1.404
 4716TIP3    H214092   5.720   6.345   1.397
 4717TIP3   OH214093   4.716   6.270   1.745
 4717TIP3    H114094   4.709   6.172   1.747
 4717TIP3    H214095   4.813   6.280   1.740
 4718TIP3   OH214096   4.424   5.469   1.529
 4718TIP3    H114097   4.378   5.553   1.548
 4718TIP3    H214098   4.351   5.419   1.487
 4719TIP3   OH214099   4.481   5.759   1.707
 4719TIP3    H114100   4.531   5.681   1.742
 4719TIP3    H214101   4.544   5.797   1.645
 4720TIP3   OH214102   5.342   6.730   1.358
 4720TIP3    H114103   5.384   6.658   1.306
 4720TIP3    H214104   5.333   6.688   1.445
 4721TIP3   OH214105   5.243   6.192   1.708
 4721TIP3    H114106   5.284   6.116   1.663
 4721TIP3    H214107   5.326   6.239   1.733
 4722TIP3   OH214108   6.262   5.509   1.706
 4722TIP3    H114109   6.290   5.594   1.743
 4722TIP3    H214110   6.284   5.522   1.612
 4723TIP3   OH214111   5.655   5.689   1.738
 4723TIP3    H114112   5.700   5.605   1.757
 4723TIP3    H214113   5.625   5.674   1.646
 4724TIP3   OH214114   4.998   5.351   1.703
 4724TIP3    H114115   4.978   5.424   1.641
 4724TIP3    H214116   4.948   5.279   1.659
 4725TIP3   OH214117   5.690   5.444   1.326
 4725TIP3    H114118   5.763   5.429   1.391
 4725TIP3    H214119   5.741   5.477   1.250
 4726TIP3   OH214120   4.629   5.553   1.811
 4726TIP3    H114121   4.711   5.536   1.859
 4726TIP3    H214122   4.644   5.498   1.731
 4727TIP3   OH214123   5.069   5.751   1.606
 4727TIP3    H114124   5.163   5.726   1.617
 4727TIP3    H214125   5.031   5.667   1.573
 4728TIP3   OH214126   6.334   5.720   1.876
 4728TIP3    H114127   6.251   5.766   1.854
 4728TIP3    H214128   6.350   5.754   1.965
 4729TIP3   OH214129   4.991   5.335   2.139
 4729TIP3    H114130   4.933   5.373   2.071
 4729TIP3    H214131   4.938   5.353   2.219
 4730TIP3   OH214132   5.332   6.184   1.148
 4730TIP3    H114133   5.297   6.171   1.059
 4730TIP3    H214134   5.287   6.267   1.174
 4731TIP3   OH214135   5.098   6.111   1.931
 4731TIP3    H114136   5.038   6.179   1.968
 4731TIP3    H214137   5.141   6.160   1.857
 4732TIP3   OH214138   5.897   5.448   1.502
 4732TIP3    H114139   5.884   5.403   1.586
 4732TIP3    H214140   5.950   5.526   1.527
 4733TIP3   OH214141   4.864   5.450   1.922
 4733TIP3    H114142   4.925   5.523   1.946
 4733TIP3    H214143   4.913   5.410   1.847
 4734TIP3   OH214144   4.927   6.307   2.031
 4734TIP3    H114145   4.902   6.394   1.995
 4734TIP3    H214146   4.848   6.289   2.086
 4735TIP3   OH214147   4.317   5.996   1.266
 4735TIP3    H114148   4.280   6.024   1.181
 4735TIP3    H214149   4.351   6.081   1.302
 4736TIP3   OH214150   5.760   6.513   1.507
 4736TIP3    H114151   5.670   6.503   1.546
 4736TIP3    H214152   5.750   6.599   1.461
 4737TIP3   OH214153   6.053   5.409   1.871
 4737TIP3    H114154   5.965   5.435   1.838
 4737TIP3    H214155   6.112   5.442   1.801
 4738TIP3   OH214156   5.345   5.051   1.855
 4738TIP3    H114157   5.328   4.956   1.871
 4738TIP3    H214158   5.269   5.091   1.901
 4739TIP3   OH214159   5.458   6.556   1.175
 4739TIP3    H114160   5.506   6.472   1.158
 4739TIP3    H214161   5.526   6.619   1.141
 4740TIP3   OH214162   5.603   6.341   1.088
 4740TIP3    H114163   5.576   6.260   1.043
 4740TIP3    H214164   5.639   6.307   1.172
 4741TIP3   OH214165   5.985   6.422   1.851
 4741TIP3    H114166   5.972   6.345   1.791
 4741TIP3    H214167   5.967   6.497   1.791
 4742TIP3   OH214168   5.278   5.817   1.111
 4742TIP3    H114169   5.199   5.871   1.088
 4742TIP3    H214170   5.324   5.813   1.026
 4743TIP3   OH214171   5.236   5.602   0.821
 4743TIP3    H114172   5.302   5.655   0.869
 4743TIP3    H214173   5.296   5.542   0.771
 4744TIP3   OH214174   6.181   6.063   1.698
 4744TIP3    H114175   6.096   6.113   1.701
 4744TIP3    H214176   6.210   6.085   1.607
 4745TIP3   OH214177   5.625   5.899   1.078
 4745TIP3    H114178   5.572   5.923   1.157
 4745TIP3    H214179   5.710   5.874   1.120
 4746TIP3   OH214180   5.859   5.937   1.995
 4746TIP3    H114181   5.856   6.021   2.045
 4746TIP3    H214182   5.772   5.940   1.949
 4747TIP3   OH214183   4.857   5.896   1.499
 4747TIP3    H114184   4.816   5.838   1.430
 4747TIP3    H214185   4.934   5.842   1.528
 4748TIP3   OH214186   4.987   6.309   1.644
 4748TIP3    H114187   4.967   6.273   1.556
 4748TIP3    H214188   5.076   6.273   1.662
 4749TIP3   OH214189   4.993   5.868   1.851
 4749TIP3    H114190   5.026   5.844   1.762
 4749TIP3    H214191   5.037   5.954   1.868
 4750TIP3   OH214192   5.519   6.506   1.628
 4750TIP3    H114193   5.506   6.586   1.682
 4750TIP3    H214194   5.502   6.434   1.692
 4751TIP3   OH214195   5.132   6.424   2.176
 4751TIP3    H114196   5.071   6.485   2.223
 4751TIP3    H214197   5.068   6.371   2.125
 4752TIP3   OH214198   5.459   5.761   0.905
 4752TIP3    H114199   5.522   5.819   0.952
 4752TIP3    H214200   5.480   5.782   0.811
 4753TIP3   OH214201   4.887   5.977   2.278
 4753TIP3    H114202   4.893   6.066   2.320
 4753TIP3    H214203   4.792   5.957   2.294
 4754TIP3   OH214204   5.209   6.434   1.186
 4754TIP3    H114205   5.290   6.487   1.192
 4754TIP3    H214206   5.149   6.494   1.139
 4755TIP3   OH214207   4.925   6.589   2.263
 4755TIP3    H114208   4.889   6.592   2.173
 4755TIP3    H214209   4.845   6.569   2.317
 4756TIP3   OH214210   5.984   4.998   0.956
 4756TIP3    H114211   5.901   5.023   1.003
 4756TIP3    H214212   5.998   5.077   0.899
 4757TIP3   OH214213   4.724   5.740   1.301
 4757TIP3    H114214   4.656   5.784   1.245
 4757TIP3    H214215   4.686   5.652   1.313
 4758TIP3   OH214216   4.504   6.123   2.210
 4758TIP3    H114217   4.437   6.099   2.143
 4758TIP3    H214218   4.543   6.036   2.234
 4759TIP3   OH214219   4.360   6.319   1.836
 4759TIP3    H114220   4.456   6.307   1.829
 4759TIP3    H214221   4.355   6.392   1.900
 4760TIP3   OH214222   6.224   6.771   1.900
 4760TIP3    H114223   6.221   6.674   1.914
 4760TIP3    H214224   6.140   6.797   1.945
 4761TIP3   OH214225   5.328   6.553   2.033
 4761TIP3    H114226   5.325   6.645   2.065
 4761TIP3    H214227   5.257   6.512   2.087
 4762TIP3   OH214228   5.085   6.681   0.988
 4762TIP3    H114229   5.041   6.662   0.903
 4762TIP3    H214230   5.053   6.771   1.010
 4763TIP3   OH214231   4.527   6.530   1.371
 4763TIP3    H114232   4.575   6.522   1.456
 4763TIP3    H214233   4.478   6.446   1.370
 4764TIP3   OH214234   5.305   6.544   0.669
 4764TIP3    H114235   5.387   6.493   0.664
 4764TIP3    H214236   5.313   6.579   0.760
 4765TIP3   OH214237   5.340   6.631   0.922
 4765TIP3    H114238   5.250   6.644   0.959
 4765TIP3    H214239   5.389   6.598   1.000
 4766TIP3   OH214240   6.111   5.897   2.174
 4766TIP3    H114241   6.029   5.910   2.124
 4766TIP3    H214242   6.126   5.801   2.162
 4767TIP3   OH214243   4.708   6.307   2.194
 4767TIP3    H114244   4.757   6.291   2.277
 4767TIP3    H214245   4.633   6.244   2.204
 4768TIP3   OH214246   5.108   5.129   1.985
 4768TIP3    H114247   5.020   5.099   1.955
 4768TIP3    H214248   5.083   5.211   2.031
 4769TIP3   OH214249   5.643   5.244   2.177
 4769TIP3    H114250   5.711   5.216   2.242
 4769TIP3    H214251   5.559   5.225   2.224
 4770TIP3   OH214252   5.880   5.674   2.096
 4770TIP3    H114253   5.828   5.672   2.179
 4770TIP3    H214254   5.857   5.761   2.058
 4771TIP3   OH214255   5.509   5.804   0.638
 4771TIP3    H114256   5.520   5.751   0.558
 4771TIP3    H214257   5.595   5.851   0.635
 4772TIP3   OH214258   5.250   5.178   0.954
 4772TIP3    H114259   5.216   5.174   1.046
 4772TIP3    H214260   5.212   5.096   0.918
 4773TIP3   OH214261   5.040   5.647   2.001
 4773TIP3    H114262   4.989   5.668   2.082
 4773TIP3    H214263   5.024   5.728   1.948
 4774TIP3   OH214264   4.925   5.532   1.514
 4774TIP3    H114265   4.832   5.506   1.533
 4774TIP3    H214266   4.936   5.491   1.426
 4775TIP3   OH214267   5.414   5.615   1.243
 4775TIP3    H114268   5.364   5.687   1.199
 4775TIP3    H214269   5.470   5.583   1.170
 4776TIP3   OH214270   5.589   5.892   2.326
 4776TIP3    H114271   5.567   5.820   2.390
 4776TIP3    H214272   5.682   5.908   2.349
 4777TIP3   OH214273   5.570   5.644   1.480
 4777TIP3    H114274   5.509   5.673   1.409
 4777TIP3    H214275   5.606   5.565   1.435
 4778TIP3   OH214276   4.860   5.674   2.208
 4778TIP3    H114277   4.880   5.741   2.275
 4778TIP3    H214278   4.848   5.593   2.262
 4779TIP3   OH214279   4.905   5.150   0.920
 4779TIP3    H114280   4.898   5.152   1.017
 4779TIP3    H214281   4.831   5.207   0.895
 4780TIP3   OH214282   4.453   5.192   1.790
 4780TIP3    H114283   4.526   5.228   1.846
 4780TIP3    H214284   4.498   5.166   1.709
 4781TIP3   OH214285   4.418   5.175   1.309
 4781TIP3    H114286   4.465   5.212   1.231
 4781TIP3    H214287   4.359   5.250   1.328
 4782TIP3   OH214288   5.582   5.889   1.902
 4782TIP3    H114289   5.614   5.817   1.843
 4782TIP3    H214290   5.550   5.835   1.978
 4783TIP3   OH214291   5.255   5.350   1.575
 4783TIP3    H114292   5.174   5.351   1.629
 4783TIP3    H214293   5.325   5.350   1.643
 4784TIP3   OH214294   4.686   5.411   1.583
 4784TIP3    H114295   4.591   5.418   1.554
 4784TIP3    H214296   4.709   5.319   1.559
 4785TIP3   OH214297   4.951   5.404   1.273
 4785TIP3    H114298   5.045   5.420   1.253
 4785TIP3    H214299   4.905   5.427   1.189
 4786TIP3   OH214300   5.746   5.429   1.780
 4786TIP3    H114301   5.711   5.443   1.871
 4786TIP3    H214302   5.678   5.369   1.743
 4787TIP3   OH214303   4.799   5.438   1.048
 4787TIP3    H114304   4.729   5.395   0.996
 4787TIP3    H214305   4.853   5.478   0.977
 4788TIP3   OH214306   5.917   7.118   1.999
 4788TIP3    H114307   5.914   7.144   1.905
 4788TIP3    H214308   5.996   7.165   2.031
 4789TIP3   OH214309   4.873   6.227   2.414
 4789TIP3    H114310   4.950   6.258   2.465
 4789TIP3    H214311   4.806   6.223   2.485
 4790TIP3   OH214312   5.333   5.682   1.671
 4790TIP3    H114313   5.408   5.646   1.621
 4790TIP3    H214314   5.343   5.638   1.758
 4791TIP3   OH214315   4.853   5.170   1.555
 4791TIP3    H114316   4.818   5.092   1.603
 4791TIP3    H214317   4.900   5.129   1.481
 4792TIP3   OH214318   5.309   5.580   1.966
 4792TIP3    H114319   5.220   5.617   1.977
 4792TIP3    H214320   5.366   5.644   2.013
 4793TIP3   OH214321   5.047   5.969   1.056
 4793TIP3    H114322   4.974   5.905   1.044
 4793TIP3    H214323   5.027   6.003   1.147
 4794TIP3   OH214324   5.946   6.205   1.684
 4794TIP3    H114325   5.969   6.256   1.604
 4794TIP3    H214326   5.862   6.162   1.658
 4795TIP3   OH214327   5.505   5.275   0.933
 4795TIP3    H114328   5.408   5.261   0.932
 4795TIP3    H214329   5.514   5.372   0.945
 4796TIP3   OH214330   5.445   6.288   2.056
 4796TIP3    H114331   5.474   6.272   2.146
 4796TIP3    H214332   5.407   6.377   2.061
 4797TIP3   OH214333   5.572   5.531   1.026
 4797TIP3    H114334   5.668   5.534   1.039
 4797TIP3    H214335   5.555   5.608   0.969
 4798TIP3   OH214336   4.739   5.991   1.732
 4798TIP3    H114337   4.778   5.963   1.647
 4798TIP3    H214338   4.784   5.934   1.796
 4799TIP3   OH214339   5.195   6.118   0.877
 4799TIP3    H114340   5.147   6.203   0.884
 4799TIP3    H214341   5.141   6.062   0.937
 4800TIP3   OH214342   4.625   5.909   2.345
 4800TIP3    H114343   4.640   5.901   2.441
 4800TIP3    H214344   4.550   5.847   2.333
 4801TIP3   OH214345   5.348   6.027   2.366
 4801TIP3    H114346   5.285   5.968   2.321
 4801TIP3    H214347   5.434   5.991   2.336
 4802TIP3   OH214348   5.605   6.547   1.952
 4802TIP3    H114349   5.509   6.546   1.965
 4802TIP3    H214350   5.634   6.599   2.030
 4803TIP3   OH214351   6.236   6.479   1.939
 4803TIP3    H114352   6.138   6.474   1.931
 4803TIP3    H214353   6.262   6.449   1.850
 4804TIP3   OH214354   5.741   6.430   0.756
 4804TIP3    H114355   5.711   6.379   0.832
 4804TIP3    H214356   5.691   6.391   0.683
 4805TIP3   OH214357   5.713   6.068   1.603
 4805TIP3    H114358   5.619   6.045   1.616
 4805TIP3    H214359   5.746   5.988   1.558
 4806TIP3   OH214360   4.843   6.298   1.360
 4806TIP3    H114361   4.841   6.377   1.304
 4806TIP3    H214362   4.749   6.279   1.369
 4807TIP3   OH214363   4.402   5.599   1.058
 4807TIP3    H114364   4.450   5.682   1.080
 4807TIP3    H214365   4.328   5.603   1.122
 4808TIP3   OH214366   4.973   6.059   1.300
 4808TIP3    H114367   4.941   6.149   1.320
 4808TIP3    H214368   4.939   6.009   1.377
 4809TIP3   OH214369   5.111   6.639   1.826
 4809TIP3    H114370   5.154   6.712   1.776
 4809TIP3    H214371   5.187   6.602   1.874
 4810TIP3   OH214372   4.758   6.536   1.210
 4810TIP3    H114373   4.673   6.545   1.257
 4810TIP3    H214374   4.792   6.628   1.213
 4811TIP3   OH214375   5.495   6.274   1.787
 4811TIP3    H114376   5.485   6.272   1.885
 4811TIP3    H214377   5.575   6.220   1.775
 4812TIP3   OH214378   5.455   6.156   0.679
 4812TIP3    H114379   5.519   6.135   0.749
 4812TIP3    H214380   5.370   6.140   0.723
 4813TIP3   OH214381   5.746   6.804   1.835
 4813TIP3    H114382   5.665   6.750   1.829
 4813TIP3    H214383   5.730   6.869   1.763
 4814TIP3   OH214384   4.829   5.416   2.353
 4814TIP3    H114385   4.733   5.422   2.367
 4814TIP3    H214386   4.857   5.361   2.428
 4815TIP3   OH214387   5.632   6.104   0.890
 4815TIP3    H114388   5.625   6.034   0.958
 4815TIP3    H214389   5.729   6.103   0.873
 4816TIP3   OH214390   4.547   6.499   1.986
 4816TIP3    H114391   4.602   6.428   2.022
 4816TIP3    H214392   4.572   6.572   2.044
 4817TIP3   OH214393   4.826   6.153   0.670
 4817TIP3    H114394   4.864   6.068   0.642
 4817TIP3    H214395   4.811   6.137   0.766
 4818TIP3   OH214396   4.781   6.152   0.945
 4818TIP3    H114397   4.860   6.127   0.996
 4818TIP3    H214398   4.786   6.250   0.950
 4819TIP3   OH214399   4.515   5.842   1.145
 4819TIP3    H114400   4.450   5.889   1.201
 4819TIP3    H214401   4.532   5.910   1.077
 4820TIP3   OH214402   5.670   5.482   2.039
 4820TIP3    H114403   5.751   5.520   2.076
 4820TIP3    H214404   5.657   5.401   2.093
 4821TIP3   OH214405   5.549   5.229   1.207
 4821TIP3    H114406   5.535   5.250   1.112
 4821TIP3    H214407   5.588   5.313   1.240
 4822TIP3   OH214408   5.051   6.346   0.895
 4822TIP3    H114409   4.965   6.377   0.928
 4822TIP3    H214410   5.064   6.404   0.819
 4823TIP3   OH214411   5.234   5.414   1.305
 4823TIP3    H114412   5.298   5.485   1.285
 4823TIP3    H214413   5.242   5.406   1.402
 4824TIP3   OH214414   5.507   5.729   2.109
 4824TIP3    H114415   5.531   5.782   2.188
 4824TIP3    H214416   5.561   5.649   2.121
 4825TIP3   OH214417   5.379   5.134   1.405
 4825TIP3    H114418   5.370   5.213   1.461
 4825TIP3    H214419   5.442   5.168   1.337
 4826TIP3   OH214420   4.795   6.426   0.957
 4826TIP3    H114421   4.764   6.495   0.895
 4826TIP3    H214422   4.779   6.468   1.044
 4827TIP3   OH214423   4.893   5.139   1.197
 4827TIP3    H114424   4.892   5.230   1.233
 4827TIP3    H214425   4.989   5.121   1.204
 4828TIP3   OH214426   6.146   5.630   2.094
 4828TIP3    H114427   6.048   5.629   2.101
 4828TIP3    H214428   6.158   5.591   2.006
 4829TIP3   OH214429   5.798   5.825   1.482
 4829TIP3    H114430   5.722   5.765   1.491
 4829TIP3    H214431   5.869   5.777   1.529
 4830TIP3   OH214432   4.513   6.049   0.948
 4830TIP3    H114433   4.583   6.116   0.958
 4830TIP3    H214434   4.556   5.991   0.881
 4831TIP3   OH214435   4.452   5.329   1.085
 4831TIP3    H114436   4.458   5.426   1.080
 4831TIP3    H214437   4.368   5.313   1.039
 4832TIP3   OH214438   5.767   6.783   1.428
 4832TIP3    H114439   5.723   6.831   1.354
 4832TIP3    H214440   5.861   6.802   1.406
 4833TIP3   OH214441   4.844   5.049   1.955
 4833TIP3    H114442   4.813   5.016   1.868
 4833TIP3    H214443   4.832   4.971   2.012
 4834TIP3   OH214444   4.380   6.267   1.334
 4834TIP3    H114445   4.315   6.297   1.398
 4834TIP3    H214446   4.348   6.311   1.251
 4835TIP3   OH214447   4.541   6.815   2.409
 4835TIP3    H114448   4.627   6.815   2.456
 4835TIP3    H214449   4.521   6.720   2.409
 4836TIP3   OH214450   5.017   6.772   2.453
 4836TIP3    H114451   5.112   6.756   2.460
 4836TIP3    H214452   4.992   6.710   2.382
 4837TIP3   OH214453   5.012   6.340   0.593
 4837TIP3    H114454   4.934   6.284   0.614
 4837TIP3    H214455   5.078   6.269   0.584
 4838TIP3   OH214456   5.660   6.681   2.186
 4838TIP3    H114457   5.652   6.612   2.256
 4838TIP3    H214458   5.736   6.733   2.217
 4839TIP3   OH214459   4.672   6.222   2.604
 4839TIP3    H114460   4.677   6.129   2.631
 4839TIP3    H214461   4.581   6.226   2.569
 4840TIP3   OH214462   4.650   5.865   0.804
 4840TIP3    H114463   4.711   5.835   0.874
 4840TIP3    H214464   4.715   5.881   0.732
 4841TIP3   OH214465   5.277   6.304   2.382
 4841TIP3    H114466   5.235   6.324   2.297
 4841TIP3    H214467   5.307   6.212   2.371
 4842TIP3   OH214468   5.129   6.071   0.609
 4842TIP3    H114469   5.154   6.080   0.703
 4842TIP3    H214470   5.139   5.975   0.597
 4843TIP3   OH214471   5.769   6.314   1.991
 4843TIP3    H114472   5.845   6.357   1.947
 4843TIP3    H214473   5.699   6.381   1.975
 4844TIP3   OH214474   4.792   5.948   2.592
 4844TIP3    H114475   4.871   5.896   2.573
 4844TIP3    H214476   4.815   5.986   2.679
 4845TIP3   OH214477   4.851   5.773   1.021
 4845TIP3    H114478   4.827   5.732   1.106
 4845TIP3    H214479   4.891   5.699   0.972
 4846TIP3   OH214480   5.126   5.837   2.255
 4846TIP3    H114481   5.046   5.894   2.254
 4846TIP3    H214482   5.175   5.871   2.176
 4847TIP3   OH214483   4.958   5.566   0.868
 4847TIP3    H114484   4.932   5.571   0.773
 4847TIP3    H214485   5.056   5.568   0.859
 4848TIP3   OH214486   5.640   6.238   2.386
 4848TIP3    H114487   5.719   6.209   2.338
 4848TIP3    H214488   5.635   6.172   2.458
 4849TIP3   OH214489   5.757   5.858   0.529
 4849TIP3    H114490   5.795   5.800   0.461
 4849TIP3    H214491   5.765   5.947   0.486
 4850TIP3   OH214492   5.250   5.625   2.375
 4850TIP3    H114493   5.248   5.547   2.316
 4850TIP3    H214494   5.205   5.693   2.320
 4851TIP3   OH214495   5.250   5.410   2.187
 4851TIP3    H114496   5.278   5.453   2.104
 4851TIP3    H214497   5.156   5.388   2.167
 4852TIP3   OH214498   5.274   5.945   2.059
 4852TIP3    H114499   5.359   5.960   2.016
 4852TIP3    H214500   5.217   6.011   2.014
 4853TIP3   OH214501   5.857   5.912   2.438
 4853TIP3    H114502   5.909   5.830   2.443
 4853TIP3    H214503   5.923   5.975   2.403
 4854TIP3   OH214504   5.898   6.166   2.175
 4854TIP3    H114505   5.840   6.221   2.117
 4854TIP3    H214506   5.986   6.188   2.136
 4855TIP3   OH214507   5.130   5.729   2.612
 4855TIP3    H114508   5.059   5.664   2.627
 4855TIP3    H214509   5.159   5.707   2.521
 4856TIP3   OH214510   5.382   5.173   2.257
 4856TIP3    H114511   5.332   5.255   2.233
 4856TIP3    H214512   5.313   5.105   2.245
 4857TIP3   OH214513   5.508   5.674   2.470
 4857TIP3    H114514   5.488   5.663   2.565
 4857TIP3    H214515   5.420   5.652   2.433
 4858TIP3   OH214516   5.746   5.626   2.325
 4858TIP3    H114517   5.670   5.629   2.387
 4858TIP3    H214518   5.819   5.597   2.382
 4859TIP3   OH214519   5.978   5.568   2.476
 4859TIP3    H114520   5.991   5.473   2.495
 4859TIP3    H214521   5.973   5.607   2.566
 4860TIP3   OH214522   4.963   5.512   2.664
 4860TIP3    H114523   4.968   5.420   2.632
 4860TIP3    H214524   4.999   5.502   2.755
 4861TIP3   OH214525   5.475   5.182   2.515
 4861TIP3    H114526   5.541   5.110   2.508
 4861TIP3    H214527   5.436   5.179   2.426
 4862TIP3   OH214528   5.545   5.399   2.669
 4862TIP3    H114529   5.521   5.328   2.605
 4862TIP3    H214530   5.466   5.457   2.664
 4863TIP3   OH214531   4.761   6.629   0.770
 4863TIP3    H114532   4.857   6.622   0.752
 4863TIP3    H214533   4.733   6.677   0.689
 4864TIP3   OH214534   4.244   6.011   0.987
 4864TIP3    H114535   4.339   6.032   0.971
 4864TIP3    H214536   4.237   5.923   0.945
 4865TIP3   OH214537   4.157   6.620   1.405
 4865TIP3    H114538   4.094   6.557   1.364
 4865TIP3    H214539   4.203   6.561   1.468
 4866TIP3   OH214540   4.292   6.468   1.590
 4866TIP3    H114541   4.285   6.396   1.656
 4866TIP3    H214542   4.346   6.531   1.640
 4867TIP3   OH214543   6.023   6.871   1.387
 4867TIP3    H114544   6.045   6.900   1.478
 4867TIP3    H214545   6.087   6.919   1.333
 4868TIP3   OH214546   6.049   6.891   1.668
 4868TIP3    H114547   6.005   6.804   1.667
 4868TIP3    H214548   6.124   6.870   1.727
 4869TIP3   OH214549   6.097   6.568   2.244
 4869TIP3    H114550   6.024   6.578   2.309
 4869TIP3    H214551   6.139   6.656   2.247
 4870TIP3   OH214552   5.908   6.092   0.868
 4870TIP3    H114553   5.992   6.134   0.841
 4870TIP3    H214554   5.938   6.051   0.952
 4871TIP3   OH214555   6.021   5.977   1.080
 4871TIP3    H114556   5.970   5.909   1.129
 4871TIP3    H214557   6.107   5.977   1.126
 4872TIP3   OH214558   6.100   6.344   1.499
 4872TIP3    H114559   6.148   6.274   1.450
 4872TIP3    H214560   6.089   6.413   1.431
 4873TIP3   OH214561   5.925   6.642   1.692
 4873TIP3    H114562   5.853   6.685   1.744
 4873TIP3    H214563   5.875   6.596   1.621
 4874TIP3   OH214564   5.975   5.876   0.696
 4874TIP3    H114565   5.890   5.854   0.654
 4874TIP3    H214566   5.946   5.938   0.765
 4875TIP3   OH214567   5.807   5.550   0.664
 4875TIP3    H114568   5.823   5.569   0.570
 4875TIP3    H214569   5.801   5.453   0.665
 4876TIP3   OH214570   5.850   5.801   1.211
 4876TIP3    H114571   5.857   5.704   1.206
 4876TIP3    H214572   5.838   5.816   1.308
 4877TIP3   OH214573   4.478   5.881   1.958
 4877TIP3    H114574   4.476   5.847   1.866
 4877TIP3    H214575   4.575   5.881   1.975
 4878TIP3   OH214576   6.144   6.232   2.070
 4878TIP3    H114577   6.215   6.166   2.058
 4878TIP3    H214578   6.167   6.300   2.005
 4879TIP3   OH214579   6.326   6.032   2.078
 4879TIP3    H114580   6.252   5.984   2.120
 4879TIP3    H214581   6.399   5.969   2.097
 4880TIP3   OH214582   5.789   5.272   0.647
 4880TIP3    H114583   5.864   5.243   0.703
 4880TIP3    H214584   5.716   5.215   0.677
 4881TIP3   OH214585   5.847   5.521   1.111
 4881TIP3    H114586   5.889   5.432   1.123
 4881TIP3    H214587   5.902   5.556   1.040
 4882TIP3   OH214588   6.011   5.692   1.603
 4882TIP3    H114589   6.097   5.717   1.561
 4882TIP3    H214590   6.026   5.732   1.691
 4883TIP3   OH214591   6.084   5.841   1.832
 4883TIP3    H114592   6.005   5.875   1.880
 4883TIP3    H214593   6.116   5.922   1.787
 4884TIP3   OH214594   4.696   5.561   2.626
 4884TIP3    H114595   4.794   5.559   2.634
 4884TIP3    H214596   4.673   5.477   2.670
 4885TIP3   OH214597   6.533   5.434   2.388
 4885TIP3    H114598   6.593   5.369   2.345
 4885TIP3    H214599   6.501   5.485   2.310
 4886TIP3   OH214600   5.959   5.273   1.146
 4886TIP3    H114601   6.007   5.255   1.229
 4886TIP3    H214602   5.898   5.196   1.143
 4887TIP3   OH214603   4.659   5.258   1.963
 4887TIP3    H114604   4.722   5.184   1.972
 4887TIP3    H214605   4.721   5.333   1.955
 4888TIP3   OH214606   4.460   5.529   2.036
 4888TIP3    H114607   4.511   5.530   1.953
 4888TIP3    H214608   4.484   5.614   2.075
 4889TIP3   OH214609   6.401   5.569   2.193
 4889TIP3    H114610   6.316   5.613   2.212
 4889TIP3    H214611   6.369   5.497   2.134
 4890TIP3   OH214612   6.032   5.207   0.776
 4890TIP3    H114613   6.079   5.139   0.723
 4890TIP3    H214614   6.094   5.282   0.772
 4891TIP3   OH214615   4.446   5.030   1.534
 4891TIP3    H114616   4.354   5.029   1.566
 4891TIP3    H214617   4.440   5.092   1.458
 4892TIP3   OH214618   5.615   6.734   1.048
 4892TIP3    H114619   5.656   6.729   0.960
 4892TIP3    H214620   5.661   6.810   1.087
 4893TIP3   OH214621   4.664   5.109   2.349
 4893TIP3    H114622   4.615   5.112   2.433
 4893TIP3    H214623   4.600   5.152   2.289
 4894TIP3   OH214624   4.704   6.546   2.429
 4894TIP3    H114625   4.612   6.518   2.413
 4894TIP3    H214626   4.715   6.521   2.521
 4895TIP3   OH214627   4.885   6.578   1.975
 4895TIP3    H114628   4.838   6.654   1.937
 4895TIP3    H214629   4.971   6.591   1.931
 4896TIP3   OH214630   5.325   6.820   2.112
 4896TIP3    H114631   5.367   6.819   2.201
 4896TIP3    H214632   5.391   6.872   2.062
 4897TIP3   OH214633   5.505   6.974   1.975
 4897TIP3    H114634   5.576   6.923   1.933
 4897TIP3    H214635   5.557   7.031   2.036
 4898TIP3   OH214636   6.301   5.333   2.073
 4898TIP3    H114637   6.212   5.326   2.035
 4898TIP3    H214638   6.333   5.240   2.062
 4899TIP3   OH214639   4.558   6.833   2.000
 4899TIP3    H114640   4.468   6.867   1.980
 4899TIP3    H214641   4.574   6.875   2.085
 4900TIP3   OH214642   4.796   6.812   1.860
 4900TIP3    H114643   4.708   6.824   1.903
 4900TIP3    H214644   4.777   6.843   1.769
 4901TIP3   OH214645   5.221   6.838   1.657
 4901TIP3    H114646   5.152   6.857   1.592
 4901TIP3    H214647   5.233   6.926   1.699
 4902TIP3   OH214648   5.491   6.777   1.709
 4902TIP3    H114649   5.397   6.795   1.689
 4902TIP3    H214650   5.535   6.852   1.665
 4903TIP3   OH214651   5.696   6.969   1.622
 4903TIP3    H114652   5.683   7.054   1.574
 4903TIP3    H214653   5.723   6.909   1.549
 4904TIP3   OH214654   4.469   6.624   1.746
 4904TIP3    H114655   4.498   6.597   1.836
 4904TIP3    H214656   4.542   6.582   1.694
 4905TIP3   OH214657   4.665   6.499   1.604
 4905TIP3    H114658   4.681   6.415   1.653
 4905TIP3    H214659   4.757   6.534   1.600
 4906TIP3   OH214660   4.933   6.591   1.609
 4906TIP3    H114661   4.963   6.499   1.597
 4906TIP3    H214662   4.981   6.613   1.691
 4907TIP3   OH214663   5.509   5.249   1.696
 4907TIP3    H114664   5.465   5.177   1.744
 4907TIP3    H214665   5.582   5.203   1.650
 4908TIP3   OH214666   6.027   5.132   1.602
 4908TIP3    H114667   6.064   5.181   1.525
 4908TIP3    H214668   5.932   5.149   1.592
 4909TIP3   OH214669   6.123   5.224   1.364
 4909TIP3    H114670   6.196   5.173   1.323
 4909TIP3    H214671   6.157   5.316   1.348
 4910TIP3   OH214672   4.755   4.956   1.707
 4910TIP3    H114673   4.662   4.924   1.710
 4910TIP3    H214674   4.803   4.871   1.703
 4911TIP3   OH214675   4.541   4.828   1.357
 4911TIP3    H114676   4.573   4.885   1.285
 4911TIP3    H214677   4.515   4.893   1.424
 4912TIP3   OH214678   5.202   4.987   1.590
 4912TIP3    H114679   5.256   5.034   1.525
 4912TIP3    H214680   5.227   5.030   1.673
 4913TIP3   OH214681   5.743   5.137   1.573
 4913TIP3    H114682   5.744   5.100   1.483
 4913TIP3    H214683   5.731   5.056   1.628
 4914TIP3   OH214684   5.775   5.062   1.136
 4914TIP3    H114685   5.689   5.105   1.150
 4914TIP3    H214686   5.760   4.975   1.180
 4915TIP3   OH214687   4.257   6.403   1.136
 4915TIP3    H114688   4.172   6.369   1.102
 4915TIP3    H214689   4.249   6.496   1.108
 4916TIP3   OH214690   4.663   4.985   1.120
 4916TIP3    H114691   4.711   4.923   1.062
 4916TIP3    H214692   4.736   5.040   1.155
 4917TIP3   OH214693   5.170   5.162   1.220
 4917TIP3    H114694   5.233   5.117   1.278
 4917TIP3    H214695   5.191   5.256   1.243
 4918TIP3   OH214696   5.029   6.585   0.716
 4918TIP3    H114697   5.122   6.598   0.689
 4918TIP3    H214698   5.008   6.508   0.659
 4919TIP3   OH214699   5.756   6.704   0.808
 4919TIP3    H114700   5.744   6.608   0.787
 4919TIP3    H214701   5.746   6.745   0.720
 4920TIP3   OH214702   4.964   5.236   2.598
 4920TIP3    H114703   4.926   5.167   2.656
 4920TIP3    H214704   5.057   5.236   2.628
 4921TIP3   OH214705   5.214   5.235   2.720
 4921TIP3    H114706   5.295   5.205   2.675
 4921TIP3    H214707   5.199   5.163   2.785
 4922TIP3   OH214708   4.335   6.413   0.778
 4922TIP3    H114709   4.345   6.441   0.870
 4922TIP3    H214710   4.423   6.373   0.759
 4923TIP3   OH214711   6.049   5.290   2.506
 4923TIP3    H114712   6.077   5.226   2.574
 4923TIP3    H214713   6.131   5.299   2.454
 4924TIP3   OH214714   5.975   6.849   1.997
 4924TIP3    H114715   5.896   6.818   1.947
 4924TIP3    H214716   5.956   6.944   2.004
 4925TIP3   OH214717   7.230   6.209   1.147
 4925TIP3    H114718   7.273   6.197   1.234
 4925TIP3    H214719   7.184   6.124   1.137
 4926TIP3   OH214720   6.540   6.116   1.509
 4926TIP3    H114721   6.571   6.047   1.570
 4926TIP3    H214722   6.620   6.170   1.500
 4927TIP3   OH214723   6.515   6.529   1.234
 4927TIP3    H114724   6.509   6.431   1.236
 4927TIP3    H214725   6.612   6.539   1.229
 4928TIP3   OH214726   6.281   6.010   1.191
 4928TIP3    H114727   6.331   5.934   1.227
 4928TIP3    H214728   6.318   6.018   1.102
 4929TIP3   OH214729   7.039   6.447   1.194
 4929TIP3    H114730   7.079   6.372   1.148
 4929TIP3    H214731   7.121   6.495   1.218
 4930TIP3   OH214732   8.043   5.776   1.197
 4930TIP3    H114733   8.080   5.855   1.239
 4930TIP3    H214734   8.069   5.788   1.105
 4931TIP3   OH214735   7.455   5.948   1.236
 4931TIP3    H114736   7.496   5.861   1.252
 4931TIP3    H214737   7.424   5.937   1.144
 4932TIP3   OH214738   6.798   5.609   1.187
 4932TIP3    H114739   6.769   5.679   1.125
 4932TIP3    H214740   6.751   5.532   1.147
 4933TIP3   OH214741   7.459   5.701   0.845
 4933TIP3    H114742   7.543   5.684   0.893
 4933TIP3    H214743   7.493   5.716   0.755
 4934TIP3   OH214744   6.423   5.804   1.301
 4934TIP3    H114745   6.508   5.788   1.346
 4934TIP3    H214746   6.433   5.743   1.224
 4935TIP3   OH214747   6.860   6.004   1.093
 4935TIP3    H114748   6.954   5.979   1.105
 4935TIP3    H214749   6.821   5.921   1.059
 4936TIP3   OH214750   6.788   5.592   1.626
 4936TIP3    H114751   6.729   5.628   1.557
 4936TIP3    H214752   6.734   5.611   1.706
 4937TIP3   OH214753   6.895   6.368   1.418
 4937TIP3    H114754   6.834   6.437   1.454
 4937TIP3    H214755   6.936   6.416   1.343
 4938TIP3   OH214756   7.698   5.703   0.985
 4938TIP3    H114757   7.679   5.657   1.067
 4938TIP3    H214758   7.740   5.785   1.017
 4939TIP3   OH214759   6.662   5.705   1.408
 4939TIP3    H114760   6.724   5.777   1.431
 4939TIP3    H214761   6.710   5.666   1.331
 4940TIP3   OH214762   6.724   6.564   1.518
 4940TIP3    H114763   6.700   6.650   1.480
 4940TIP3    H214764   6.644   6.547   1.572
 4941TIP3   OH214765   6.114   6.248   0.747
 4941TIP3    H114766   6.022   6.272   0.729
 4941TIP3    H214767   6.148   6.330   0.787
 4942TIP3   OH214768   7.851   5.660   1.362
 4942TIP3    H114769   7.763   5.691   1.333
 4942TIP3    H214770   7.909   5.696   1.291
 4943TIP3   OH214771   7.144   5.311   1.344
 4943TIP3    H114772   7.126   5.216   1.357
 4943TIP3    H214773   7.066   5.350   1.390
 4944TIP3   OH214774   8.011   6.297   1.218
 4944TIP3    H114775   7.918   6.329   1.226
 4944TIP3    H214776   8.030   6.334   1.130
 4945TIP3   OH214777   7.653   6.191   1.483
 4945TIP3    H114778   7.650   6.273   1.534
 4945TIP3    H214779   7.567   6.196   1.437
 4946TIP3   OH214780   6.653   6.156   0.984
 4946TIP3    H114781   6.605   6.093   0.923
 4946TIP3    H214782   6.728   6.101   1.012
 4947TIP3   OH214783   6.782   6.564   1.143
 4947TIP3    H114784   6.756   6.539   1.052
 4947TIP3    H214785   6.871   6.526   1.151
 4948TIP3   OH214786   6.795   6.122   1.343
 4948TIP3    H114787   6.819   6.102   1.250
 4948TIP3    H214788   6.833   6.211   1.356
 4949TIP3   OH214789   7.293   6.744   1.096
 4949TIP3    H114790   7.302   6.827   1.146
 4949TIP3    H214791   7.293   6.675   1.164
 4950TIP3   OH214792   6.927   6.677   1.667
 4950TIP3    H114793   6.865   6.740   1.711
 4950TIP3    H214794   6.864   6.626   1.613
 4951TIP3   OH214795   6.684   6.233   1.770
 4951TIP3    H114796   6.688   6.323   1.808
 4951TIP3    H214797   6.588   6.214   1.779
 4952TIP3   OH214798   6.722   6.846   1.749
 4952TIP3    H114799   6.687   6.849   1.658
 4952TIP3    H214800   6.642   6.824   1.802
 4953TIP3   OH214801   6.515   5.988   0.821
 4953TIP3    H114802   6.458   6.029   0.752
 4953TIP3    H214803   6.466   5.904   0.832
 4954TIP3   OH214804   6.300   6.381   1.696
 4954TIP3    H114805   6.232   6.361   1.628
 4954TIP3    H214806   6.337   6.292   1.715
 4955TIP3   OH214807   6.154   6.578   1.321
 4955TIP3    H114808   6.250   6.567   1.319
 4955TIP3    H214809   6.145   6.653   1.382
 4956TIP3   OH214810   7.116   6.810   1.518
 4956TIP3    H114811   7.116   6.904   1.547
 4956TIP3    H214812   7.047   6.772   1.576
 4957TIP3   OH214813   6.298   6.775   0.872
 4957TIP3    H114814   6.372   6.775   0.936
 4957TIP3    H214815   6.224   6.760   0.934
 4958TIP3   OH214816   7.914   6.163   1.670
 4958TIP3    H114817   7.848   6.178   1.601
 4958TIP3    H214818   7.945   6.073   1.647
 4959TIP3   OH214819   6.504   6.563   1.680
 4959TIP3    H114820   6.553   6.548   1.763
 4959TIP3    H214821   6.430   6.500   1.688
 4960TIP3   OH214822   6.905   5.386   1.471
 4960TIP3    H114823   6.817   5.355   1.441
 4960TIP3    H214824   6.878   5.467   1.518
 4961TIP3   OH214825   7.439   5.501   1.665
 4961TIP3    H114826   7.508   5.473   1.729
 4961TIP3    H214827   7.355   5.482   1.712
 4962TIP3   OH214828   7.669   5.924   1.577
 4962TIP3    H114829   7.624   5.926   1.664
 4962TIP3    H214830   7.656   6.016   1.545
 4963TIP3   OH214831   6.839   5.900   1.490
 4963TIP3    H114832   6.785   5.921   1.569
 4963TIP3    H214833   6.825   5.982   1.436
 4964TIP3   OH214834   6.717   5.784   0.997
 4964TIP3    H114835   6.622   5.776   1.016
 4964TIP3    H214836   6.719   5.746   0.907
 4965TIP3   OH214837   7.385   6.150   1.814
 4965TIP3    H114838   7.365   6.077   1.877
 4965TIP3    H214839   7.479   6.164   1.833
 4966TIP3   OH214840   7.364   5.912   0.983
 4966TIP3    H114841   7.319   5.957   0.910
 4966TIP3    H214842   7.394   5.828   0.939
 4967TIP3   OH214843   6.657   5.931   1.694
 4967TIP3    H114844   6.678   5.997   1.762
 4967TIP3    H214845   6.644   5.850   1.747
 4968TIP3   OH214846   6.247   5.449   1.283
 4968TIP3    H114847   6.324   5.486   1.330
 4968TIP3    H214848   6.280   5.434   1.193
 4969TIP3   OH214849   6.209   5.454   0.799
 4969TIP3    H114850   6.270   5.453   0.723
 4969TIP3    H214851   6.223   5.548   0.826
 4970TIP3   OH214852   7.371   6.150   1.390
 4970TIP3    H114853   7.409   6.080   1.332
 4970TIP3    H214854   7.343   6.095   1.466
 4971TIP3   OH214855   7.051   5.605   1.059
 4971TIP3    H114856   6.966   5.608   1.109
 4971TIP3    H214857   7.116   5.608   1.131
 4972TIP3   OH214858   6.482   5.648   1.087
 4972TIP3    H114859   6.427   5.673   1.009
 4972TIP3    H214860   6.519   5.563   1.058
 4973TIP3   OH214861   6.750   5.665   0.745
 4973TIP3    H114862   6.847   5.679   0.754
 4973TIP3    H214863   6.727   5.721   0.670
 4974TIP3   OH214864   7.538   5.685   1.261
 4974TIP3    H114865   7.508   5.698   1.354
 4974TIP3    H214866   7.469   5.625   1.228
 4975TIP3   OH214867   6.667   6.484   1.903
 4975TIP3    H114868   6.746   6.516   1.951
 4975TIP3    H214869   6.601   6.484   1.976
 4976TIP3   OH214870   7.128   5.938   1.163
 4976TIP3    H114871   7.209   5.903   1.122
 4976TIP3    H214872   7.130   5.897   1.251
 4977TIP3   OH214873   6.660   5.422   1.042
 4977TIP3    H114874   6.618   5.347   1.088
 4977TIP3    H214875   6.698   5.379   0.964
 4978TIP3   OH214876   7.107   5.840   1.445
 4978TIP3    H114877   7.016   5.873   1.463
 4978TIP3    H214878   7.163   5.901   1.498
 4979TIP3   OH214879   7.751   6.371   1.163
 4979TIP3    H114880   7.731   6.461   1.130
 4979TIP3    H214881   7.660   6.334   1.166
 4980TIP3   OH214882   7.244   6.536   1.547
 4980TIP3    H114883   7.262   6.519   1.640
 4980TIP3    H214884   7.203   6.624   1.549
 4981TIP3   OH214885   6.542   6.256   1.219
 4981TIP3    H114886   6.574   6.222   1.133
 4981TIP3    H214887   6.568   6.186   1.280
 4982TIP3   OH214888   6.419   6.165   1.832
 4982TIP3    H114889   6.432   6.151   1.928
 4982TIP3    H214890   6.347   6.103   1.813
 4983TIP3   OH214891   7.143   6.283   1.854
 4983TIP3    H114892   7.080   6.225   1.808
 4983TIP3    H214893   7.229   6.247   1.824
 4984TIP3   OH214894   7.390   6.783   1.462
 4984TIP3    H114895   7.293   6.791   1.449
 4984TIP3    H214896   7.400   6.835   1.545
 4985TIP3   OH214897   7.490   6.307   1.119
 4985TIP3    H114898   7.394   6.293   1.110
 4985TIP3    H214899   7.524   6.236   1.061
 4986TIP3   OH214900   6.647   6.567   0.888
 4986TIP3    H114901   6.657   6.611   0.801
 4986TIP3    H214902   6.551   6.574   0.901
 4987TIP3   OH214903   6.198   5.859   0.548
 4987TIP3    H114904   6.256   5.886   0.621
 4987TIP3    H214905   6.113   5.853   0.599
 4988TIP3   OH214906   6.778   6.339   0.814
 4988TIP3    H114907   6.739   6.420   0.850
 4988TIP3    H214908   6.745   6.271   0.875
 4989TIP3   OH214909   6.904   6.884   1.320
 4989TIP3    H114910   6.944   6.952   1.260
 4989TIP3    H214911   6.985   6.851   1.363
 4990TIP3   OH214912   7.293   6.520   1.276
 4990TIP3    H114913   7.283   6.517   1.373
 4990TIP3    H214914   7.371   6.465   1.261
 4991TIP3   OH214915   6.624   5.674   1.840
 4991TIP3    H114916   6.527   5.677   1.850
 4991TIP3    H214917   6.650   5.615   1.912
 4992TIP3   OH214918   6.344   6.757   1.471
 4992TIP3    H114919   6.400   6.685   1.506
 4992TIP3    H214920   6.369   6.830   1.530
 4993TIP3   OH214921   6.335   6.106   0.651
 4993TIP3    H114922   6.256   6.126   0.705
 4993TIP3    H214923   6.328   6.178   0.587
 4994TIP3   OH214924   7.467   5.736   1.520
 4994TIP3    H114925   7.547   5.780   1.554
 4994TIP3    H214926   7.458   5.657   1.579
 4995TIP3   OH214927   7.022   5.665   0.792
 4995TIP3    H114928   7.096   5.724   0.774
 4995TIP3    H214929   7.029   5.652   0.889
 4996TIP3   OH214930   7.303   5.986   1.597
 4996TIP3    H114931   7.327   6.039   1.675
 4996TIP3    H214932   7.359   5.907   1.607
 4997TIP3   OH214933   7.190   5.403   0.902
 4997TIP3    H114934   7.166   5.469   0.970
 4997TIP3    H214935   7.261   5.450   0.856
 4998TIP3   OH214936   6.685   5.394   0.675
 4998TIP3    H114937   6.677   5.486   0.707
 4998TIP3    H214938   6.773   5.372   0.713
 4999TIP3   OH214939   7.942   5.905   1.568
 4999TIP3    H114940   7.845   5.899   1.576
 4999TIP3    H214941   7.957   5.855   1.487
 5000TIP3   OH214942   7.590   6.091   0.982
 5000TIP3    H114943   7.521   6.024   0.983
 5000TIP3    H214944   7.667   6.041   1.013
 5001TIP3   OH214945   6.259   5.579   0.545
 5001TIP3    H114946   6.258   5.663   0.596
 5001TIP3    H214947   6.168   5.550   0.556
 5002TIP3   OH214948   6.641   5.307   1.440
 5002TIP3    H114949   6.609   5.275   1.353
 5002TIP3    H214950   6.627   5.228   1.497
 5003TIP3   OH214951   6.163   6.505   0.830
 5003TIP3    H114952   6.116   6.548   0.903
 5003TIP3    H214953   6.238   6.564   0.817
 5004TIP3   OH214954   6.337   7.072   1.894
 5004TIP3    H114955   6.423   7.075   1.942
 5004TIP3    H214956   6.318   6.977   1.895
 5005TIP3   OH214957   6.811   7.025   1.945
 5005TIP3    H114958   6.907   7.015   1.947
 5005TIP3    H214959   6.787   6.965   1.871
 5006TIP3   OH214960   7.451   6.928   1.685
 5006TIP3    H114961   7.443   6.859   1.755
 5006TIP3    H214962   7.533   6.972   1.710
 5007TIP3   OH214963   6.465   6.473   2.095
 5007TIP3    H114964   6.480   6.377   2.100
 5007TIP3    H214965   6.378   6.477   2.050
 5008TIP3   OH214966   7.073   6.559   1.870
 5008TIP3    H114967   7.029   6.582   1.785
 5008TIP3    H214968   7.100   6.466   1.857
 5009TIP3   OH214969   7.563   6.566   1.473
 5009TIP3    H114970   7.614   6.635   1.430
 5009TIP3    H214971   7.476   6.610   1.477
 5010TIP3   OH214972   6.584   6.210   2.082
 5010TIP3    H114973   6.661   6.161   2.052
 5010TIP3    H214974   6.614   6.244   2.169
 5011TIP3   OH214975   6.924   6.094   1.743
 5011TIP3    H114976   6.843   6.150   1.742
 5011TIP3    H214977   6.972   6.128   1.664
 5012TIP3   OH214978   7.443   6.493   1.871
 5012TIP3    H114979   7.516   6.460   1.817
 5012TIP3    H214980   7.436   6.424   1.940
 5013TIP3   OH214981   7.046   5.882   1.863
 5013TIP3    H114982   7.044   5.804   1.804
 5013TIP3    H214983   7.002   5.950   1.807
 5014TIP3   OH214984   7.047   5.668   1.673
 5014TIP3    H114985   7.074   5.709   1.588
 5014TIP3    H214986   6.953   5.646   1.654
 5015TIP3   OH214987   7.071   6.203   1.548
 5015TIP3    H114988   7.155   6.217   1.503
 5015TIP3    H214989   7.013   6.268   1.501
 5016TIP3   OH214990   7.659   6.167   1.926
 5016TIP3    H114991   7.707   6.083   1.923
 5016TIP3    H214992   7.726   6.229   1.892
 5017TIP3   OH214993   7.667   6.425   1.680
 5017TIP3    H114994   7.617   6.477   1.613
 5017TIP3    H214995   7.756   6.430   1.638
 5018TIP3   OH214996   6.926   5.986   2.100
 5018TIP3    H114997   6.856   5.919   2.113
 5018TIP3    H214998   6.955   5.966   2.009
 5019TIP3   OH214999   7.177   5.430   1.744
 5019TIP3    H115000   7.128   5.512   1.719
 5019TIP3    H215001   7.109   5.362   1.731
 5020TIP3   OH215002   7.303   5.931   1.957
 5020TIP3    H115003   7.283   5.918   2.052
 5020TIP3    H215004   7.215   5.909   1.920
 5021TIP3   OH215005   7.543   5.887   1.814
 5021TIP3    H115006   7.468   5.887   1.877
 5021TIP3    H215007   7.617   5.857   1.870
 5022TIP3   OH215008   7.770   5.827   1.964
 5022TIP3    H115009   7.784   5.730   1.977
 5022TIP3    H215010   7.773   5.861   2.055
 5023TIP3   OH215011   6.760   5.769   2.151
 5023TIP3    H115012   6.763   5.678   2.117
 5023TIP3    H215013   6.796   5.756   2.241
 5024TIP3   OH215014   7.272   5.438   2.001
 5024TIP3    H115015   7.337   5.366   1.992
 5024TIP3    H215016   7.231   5.436   1.912
 5025TIP3   OH215017   7.337   5.652   2.160
 5025TIP3    H115018   7.316   5.582   2.094
 5025TIP3    H215019   7.260   5.712   2.151
 5026TIP3   OH215020   5.952   6.881   0.896
 5026TIP3    H115021   5.886   6.826   0.849
 5026TIP3    H215022   5.992   6.815   0.956
 5027TIP3   OH215023   6.107   6.718   1.064
 5027TIP3    H115024   6.081   6.651   1.130
 5027TIP3    H215025   6.147   6.784   1.125
 5028TIP3   OH215026   6.274   6.131   1.445
 5028TIP3    H115027   6.271   6.099   1.352
 5028TIP3    H215028   6.371   6.134   1.460
 5029TIP3   OH215029   7.895   6.463   1.537
 5029TIP3    H115030   7.984   6.431   1.561
 5029TIP3    H215031   7.917   6.525   1.466
 5030TIP3   OH215032   7.808   5.947   1.075
 5030TIP3    H115033   7.890   5.982   1.039
 5030TIP3    H215034   7.813   5.982   1.167
 5031TIP3   OH215035   7.853   6.079   1.308
 5031TIP3    H115036   7.784   6.120   1.363
 5031TIP3    H215037   7.917   6.151   1.298
 5032TIP3   OH215038   6.493   5.821   2.121
 5032TIP3    H115039   6.591   5.815   2.123
 5032TIP3    H215040   6.470   5.734   2.159
 5033TIP3   OH215041   6.456   5.516   1.459
 5033TIP3    H115042   6.518   5.440   1.461
 5033TIP3    H215043   6.518   5.590   1.444
 5034TIP3   OH215044   6.256   5.788   1.525
 5034TIP3    H115045   6.305   5.781   1.441
 5034TIP3    H215046   6.282   5.876   1.554
 5035TIP3   OH215047   6.237   5.299   1.020
 5035TIP3    H115048   6.145   5.289   1.049
 5035TIP3    H215049   6.228   5.361   0.944
 5036TIP3   OH215050   6.463   5.369   1.838
 5036TIP3    H115051   6.410   5.368   1.920
 5036TIP3    H215052   6.399   5.410   1.776
 5037TIP3   OH215053   6.502   6.798   1.913
 5037TIP3    H115054   6.408   6.775   1.898
 5037TIP3    H215055   6.510   6.786   2.009
 5038TIP3   OH215056   6.679   6.834   1.465
 5038TIP3    H115057   6.632   6.909   1.423
 5038TIP3    H215058   6.766   6.845   1.419
 5039TIP3   OH215059   7.137   7.085   1.595
 5039TIP3    H115060   7.169   7.081   1.688
 5039TIP3    H215061   7.208   7.137   1.554
 5040TIP3   OH215062   8.077   5.561   1.577
 5040TIP3    H115063   8.010   5.603   1.520
 5040TIP3    H215064   8.133   5.516   1.513
 5041TIP3   OH215065   6.353   7.091   1.487
 5041TIP3    H115066   6.262   7.123   1.468
 5041TIP3    H215067   6.369   7.135   1.572
 5042TIP3   OH215068   6.584   7.062   1.344
 5042TIP3    H115069   6.496   7.075   1.387
 5042TIP3    H215070   6.566   7.092   1.252
 5043TIP3   OH215071   7.003   7.070   1.156
 5043TIP3    H115072   6.950   7.108   1.084
 5043TIP3    H215073   7.029   7.148   1.207
 5044TIP3   OH215074   6.268   6.882   1.230
 5044TIP3    H115075   6.291   6.854   1.321
 5044TIP3    H215076   6.342   6.838   1.182
 5045TIP3   OH215077   6.463   6.753   1.089
 5045TIP3    H115078   6.478   6.671   1.143
 5045TIP3    H215079   6.555   6.790   1.089
 5046TIP3   OH215080   6.726   6.844   1.100
 5046TIP3    H115081   6.758   6.752   1.091
 5046TIP3    H215082   6.778   6.872   1.177
 5047TIP3   OH215083   7.303   5.501   1.178
 5047TIP3    H115084   7.262   5.432   1.232
 5047TIP3    H215085   7.378   5.455   1.136
 5048TIP3   OH215086   7.828   5.389   1.094
 5048TIP3    H115087   7.870   5.433   1.017
 5048TIP3    H215088   7.734   5.405   1.077
 5049TIP3   OH215089   7.943   5.478   0.861
 5049TIP3    H115090   7.989   5.429   0.791
 5049TIP3    H215091   7.942   5.567   0.826
 5050TIP3   OH215092   6.551   5.215   1.194
 5050TIP3    H115093   6.457   5.186   1.194
 5050TIP3    H215094   6.596   5.128   1.187
 5051TIP3   OH215095   6.358   5.081   0.859
 5051TIP3    H115096   6.387   5.133   0.781
 5051TIP3    H215097   6.316   5.150   0.914
 5052TIP3   OH215098   7.000   5.236   1.083
 5052TIP3    H115099   7.049   5.291   1.021
 5052TIP3    H215100   7.012   5.283   1.166
 5053TIP3   OH215101   7.542   5.391   1.054
 5053TIP3    H115102   7.551   5.344   0.970
 5053TIP3    H215103   7.531   5.315   1.117
 5054TIP3   OH215104   6.461   5.225   0.651
 5054TIP3    H115105   6.466   5.191   0.561
 5054TIP3    H215106   6.538   5.284   0.657
 5055TIP3   OH215107   6.936   5.395   0.779
 5055TIP3    H115108   7.019   5.352   0.806
 5055TIP3    H215109   6.965   5.487   0.774
 5056TIP3   OH215110   6.758   5.494   2.088
 5056TIP3    H115111   6.723   5.423   2.144
 5056TIP3    H215112   6.852   5.493   2.115
 5057TIP3   OH215113   7.010   5.493   2.206
 5057TIP3    H115114   7.093   5.465   2.165
 5057TIP3    H215115   6.996   5.421   2.272
 5058TIP3   OH215116   7.833   5.556   1.994
 5058TIP3    H115117   7.854   5.524   2.084
 5058TIP3    H215118   7.921   5.553   1.950
 5059TIP3   OH215119   0.510   6.551   2.883
 5059TIP3    H115120   0.536   6.637   2.921
 5059TIP3    H215121   0.533   6.564   2.789
 5060TIP3   OH215122  -0.078   6.526   2.521
 5060TIP3    H115123  -0.009   6.496   2.583
 5060TIP3    H215124  -0.033   6.526   2.436
 5061TIP3   OH215125   0.574   6.763   3.061
 5061TIP3    H115126   0.493   6.815   3.043
 5061TIP3    H215127   0.609   6.809   3.139
 5062TIP3   OH215128   0.140   6.496   2.687
 5062TIP3    H115129   0.172   6.408   2.711
 5062TIP3    H215130   0.213   6.555   2.708
 5063TIP3   OH215131   0.298   6.471   3.044
 5063TIP3    H115132   0.225   6.506   2.991
 5063TIP3    H215133   0.373   6.488   2.982
 5064TIP3   OH215134   0.225   7.482   3.032
 5064TIP3    H115135   0.206   7.396   2.989
 5064TIP3    H215136   0.260   7.535   2.958
 5065TIP3   OH215137   0.430   7.105   2.875
 5065TIP3    H115138   0.348   7.158   2.881
 5065TIP3    H215139   0.460   7.129   2.784
 5066TIP3   OH215140   0.222   6.044   2.158
 5066TIP3    H115141   0.125   6.042   2.156
 5066TIP3    H215142   0.242   6.124   2.104
 5067TIP3   OH215143   0.375   6.944   3.355
 5067TIP3    H115144   0.304   6.967   3.293
 5067TIP3    H215145   0.377   6.846   3.346
 5068TIP3   OH215146   0.198   7.255   2.871
 5068TIP3    H115147   0.234   7.304   2.793
 5068TIP3    H215148   0.112   7.226   2.840
 5069TIP3   OH215149   0.478   7.512   3.124
 5069TIP3    H115150   0.381   7.517   3.108
 5069TIP3    H215151   0.508   7.492   3.033
 5070TIP3   OH215152   0.376   6.679   3.274
 5070TIP3    H115153   0.290   6.636   3.272
 5070TIP3    H215154   0.411   6.657   3.186
 5071TIP3   OH215155   0.039   6.845   2.656
 5071TIP3    H115156  -0.015   6.764   2.655
 5071TIP3    H215157   0.120   6.814   2.702
 5072TIP3   OH215158   0.302   6.594   3.697
 5072TIP3    H115159   0.297   6.497   3.691
 5072TIP3    H215160   0.207   6.615   3.698
 5073TIP3   OH215161   0.300   6.996   2.228
 5073TIP3    H115162   0.230   6.953   2.283
 5073TIP3    H215163   0.361   7.028   2.297
 5074TIP3   OH215164   0.334   7.382   2.676
 5074TIP3    H115165   0.395   7.322   2.629
 5074TIP3    H215166   0.333   7.461   2.621
 5075TIP3   OH215167   0.137   6.840   2.392
 5075TIP3    H115168   0.123   6.744   2.383
 5075TIP3    H215169   0.101   6.856   2.481
 5076TIP3   OH215170   0.386   7.271   3.249
 5076TIP3    H115171   0.460   7.207   3.239
 5076TIP3    H215172   0.409   7.339   3.185
 5077TIP3   OH215173   0.582   7.080   3.252
 5077TIP3    H115174   0.510   7.034   3.301
 5077TIP3    H215175   0.655   7.017   3.269
 5078TIP3   OH215176   0.137   6.568   2.305
 5078TIP3    H115177   0.156   6.482   2.347
 5078TIP3    H215178   0.151   6.541   2.213
 5079TIP3   OH215179   0.264   6.748   2.786
 5079TIP3    H115180   0.349   6.770   2.740
 5079TIP3    H215181   0.282   6.788   2.873
 5080TIP3   OH215182   0.323   6.892   3.016
 5080TIP3    H115183   0.236   6.922   3.049
 5080TIP3    H215184   0.357   6.972   2.971
 5081TIP3   OH215185   0.781   6.478   3.564
 5081TIP3    H115186   0.841   6.411   3.523
 5081TIP3    H215187   0.751   6.528   3.486
 5082TIP3   OH215188   0.202   6.304   2.334
 5082TIP3    H115189   0.256   6.287   2.414
 5082TIP3    H215190   0.143   6.228   2.334
 5083TIP3   OH215191   0.647   6.614   3.368
 5083TIP3    H115192   0.564   6.656   3.399
 5083TIP3    H215193   0.612   6.543   3.311
 5084TIP3   OH215194   0.350   6.244   1.998
 5084TIP3    H115195   0.340   6.179   1.927
 5084TIP3    H215196   0.357   6.326   1.946
 5085TIP3   OH215197   0.550   6.375   3.250
 5085TIP3    H115198   0.461   6.356   3.214
 5085TIP3    H215199   0.591   6.285   3.242
 5086TIP3   OH215200   0.286   6.211   2.796
 5086TIP3    H115201   0.327   6.235   2.710
 5086TIP3    H215202   0.193   6.197   2.769
 5087TIP3   OH215203   0.375   6.276   2.545
 5087TIP3    H115204   0.446   6.222   2.504
 5087TIP3    H215205   0.408   6.366   2.525
 5088TIP3   OH215206   0.030   6.184   2.721
 5088TIP3    H115207  -0.018   6.148   2.643
 5088TIP3    H215208   0.014   6.112   2.785
 5089TIP3   OH215209   0.269   6.322   3.675
 5089TIP3    H115210   0.288   6.295   3.767
 5089TIP3    H215211   0.356   6.311   3.632
 5090TIP3   OH215212   1.495   7.256   1.947
 5090TIP3    H115213   1.450   7.341   1.929
 5090TIP3    H215214   1.428   7.195   1.912
 5091TIP3   OH215215   1.493   7.266   2.324
 5091TIP3    H115216   1.527   7.242   2.413
 5091TIP3    H215217   1.451   7.183   2.296
 5092TIP3   OH215218   0.786   7.159   2.690
 5092TIP3    H115219   0.817   7.091   2.752
 5092TIP3    H215220   0.866   7.213   2.680
 5093TIP3   OH215221   1.712   7.566   2.009
 5093TIP3    H115222   1.707   7.493   2.074
 5093TIP3    H215223   1.766   7.631   2.057
 5094TIP3   OH215224   0.819   7.517   2.488
 5094TIP3    H115225   0.791   7.428   2.459
 5094TIP3    H215226   0.900   7.530   2.434
 5095TIP3   OH215227   0.459   6.756   2.187
 5095TIP3    H115228   0.415   6.844   2.180
 5095TIP3    H215229   0.408   6.716   2.259
 5096TIP3   OH215230   0.526   7.061   2.375
 5096TIP3    H115231   0.573   6.981   2.409
 5096TIP3    H215232   0.596   7.102   2.322
 5097TIP3   OH215233   1.305   7.483   2.368
 5097TIP3    H115234   1.352   7.405   2.332
 5097TIP3    H215235   1.383   7.537   2.393
 5098TIP3   OH215236   2.304   6.813   2.369
 5098TIP3    H115237   2.334   6.895   2.413
 5098TIP3    H215238   2.324   6.833   2.276
 5099TIP3   OH215239   1.703   6.994   2.400
 5099TIP3    H115240   1.744   6.908   2.422
 5099TIP3    H215241   1.670   6.976   2.310
 5100TIP3   OH215242   1.043   6.652   2.365
 5100TIP3    H115243   1.021   6.724   2.303
 5100TIP3    H215244   0.996   6.578   2.322
 5101TIP3   OH215245   1.737   6.744   1.987
 5101TIP3    H115246   1.807   6.728   2.054
 5101TIP3    H215247   1.791   6.779   1.914
 5102TIP3   OH215248   0.673   6.851   2.474
 5102TIP3    H115249   0.755   6.833   2.523
 5102TIP3    H215250   0.689   6.797   2.394
 5103TIP3   OH215251   1.112   7.053   2.272
 5103TIP3    H115252   1.206   7.029   2.283
 5103TIP3    H215253   1.073   6.969   2.241
 5104TIP3   OH215254   2.378   7.022   2.537
 5104TIP3    H115255   2.292   7.066   2.521
 5104TIP3    H215256   2.395   7.048   2.629
 5105TIP3   OH215257   1.037   6.637   2.801
 5105TIP3    H115258   0.977   6.673   2.733
 5105TIP3    H215259   0.984   6.654   2.882
 5106TIP3   OH215260   1.362   7.466   1.827
 5106TIP3    H115261   1.347   7.445   1.732
 5106TIP3    H215262   1.400   7.556   1.823
 5107TIP3   OH215263   1.141   7.417   2.594
 5107TIP3    H115264   1.076   7.483   2.625
 5107TIP3    H215265   1.177   7.461   2.515
 5108TIP3   OH215266   1.942   6.750   2.165
 5108TIP3    H115267   1.926   6.704   2.248
 5108TIP3    H215268   1.993   6.828   2.193
 5109TIP3   OH215269   0.909   6.751   2.584
 5109TIP3    H115270   0.971   6.823   2.608
 5109TIP3    H215271   0.958   6.710   2.509
 5110TIP3   OH215272   0.967   7.630   2.700
 5110TIP3    H115273   0.923   7.621   2.614
 5110TIP3    H215274   0.889   7.625   2.759
 5111TIP3   OH215275   2.097   6.711   2.534
 5111TIP3    H115276   2.009   6.739   2.501
 5111TIP3    H215277   2.157   6.744   2.464
 5112TIP3   OH215278   1.389   6.352   2.517
 5112TIP3    H115279   1.375   6.257   2.536
 5112TIP3    H215280   1.312   6.391   2.564
 5113TIP3   OH215281   1.738   7.580   1.728
 5113TIP3    H115282   1.707   7.499   1.682
 5113TIP3    H215283   1.748   7.551   1.820
 5114TIP3   OH215284   2.022   7.723   2.516
 5114TIP3    H115285   2.010   7.644   2.459
 5114TIP3    H215286   2.051   7.791   2.451
 5115TIP3   OH215287   1.338   7.109   1.777
 5115TIP3    H115288   1.260   7.169   1.768
 5115TIP3    H215289   1.374   7.113   1.687
 5116TIP3   OH215290   1.304   6.893   1.507
 5116TIP3    H115291   1.371   6.952   1.547
 5116TIP3    H215292   1.362   6.834   1.455
 5117TIP3   OH215293   2.227   7.362   2.359
 5117TIP3    H115294   2.143   7.412   2.366
 5117TIP3    H215295   2.256   7.389   2.269
 5118TIP3   OH215296   1.673   7.195   1.749
 5118TIP3    H115297   1.616   7.217   1.826
 5118TIP3    H215298   1.756   7.169   1.794
 5119TIP3   OH215299   1.904   7.238   2.660
 5119TIP3    H115300   1.903   7.321   2.711
 5119TIP3    H215301   1.817   7.244   2.615
 5120TIP3   OH215302   0.905   7.195   2.152
 5120TIP3    H115303   0.861   7.132   2.092
 5120TIP3    H215304   0.981   7.143   2.186
 5121TIP3   OH215305   1.043   7.564   2.353
 5121TIP3    H115306   1.015   7.548   2.261
 5121TIP3    H215307   1.140   7.567   2.345
 5122TIP3   OH215308   1.032   7.174   2.513
 5122TIP3    H115309   1.068   7.147   2.426
 5122TIP3    H215310   1.078   7.258   2.531
 5123TIP3   OH215311   1.221   7.630   2.834
 5123TIP3    H115312   1.182   7.717   2.855
 5123TIP3    H215313   1.148   7.594   2.781
 5124TIP3   OH215314   1.518   7.052   1.570
 5124TIP3    H115315   1.571   7.118   1.620
 5124TIP3    H215316   1.542   7.073   1.477
 5125TIP3   OH215317   0.933   7.281   2.941
 5125TIP3    H115318   0.937   7.369   2.984
 5125TIP3    H215319   0.839   7.259   2.956
 5126TIP3   OH215320   2.025   6.298   1.619
 5126TIP3    H115321   1.943   6.318   1.669
 5126TIP3    H215322   2.039   6.381   1.569
 5127TIP3   OH215323   0.753   7.036   1.968
 5127TIP3    H115324   0.701   7.083   1.901
 5127TIP3    H215325   0.718   6.946   1.957
 5128TIP3   OH215326   0.563   7.427   2.880
 5128TIP3    H115327   0.498   7.407   2.811
 5128TIP3    H215328   0.599   7.339   2.902
 5129TIP3   OH215329   2.158   7.199   2.835
 5129TIP3    H115330   2.074   7.208   2.789
 5129TIP3    H215331   2.175   7.103   2.828
 5130TIP3   OH215332   0.753   7.629   2.876
 5130TIP3    H115333   0.809   7.590   2.947
 5130TIP3    H215334   0.682   7.562   2.869
 5131TIP3   OH215335   1.152   6.430   2.646
 5131TIP3    H115336   1.064   6.399   2.617
 5131TIP3    H215337   1.125   6.510   2.695
 5132TIP3   OH215338   1.689   6.546   2.841
 5132TIP3    H115339   1.758   6.517   2.903
 5132TIP3    H215340   1.606   6.525   2.889
 5133TIP3   OH215341   1.922   6.975   2.758
 5133TIP3    H115342   1.873   6.972   2.843
 5133TIP3    H215343   1.900   7.063   2.723
 5134TIP3   OH215344   1.594   7.085   1.315
 5134TIP3    H115345   1.557   7.066   1.227
 5134TIP3    H215346   1.638   7.170   1.299
 5135TIP3   OH215347   1.292   6.490   1.611
 5135TIP3    H115348   1.265   6.482   1.705
 5135TIP3    H215349   1.259   6.404   1.578
 5136TIP3   OH215350   1.084   6.950   2.662
 5136TIP3    H115351   1.034   6.970   2.744
 5136TIP3    H215352   1.066   7.032   2.610
 5137TIP3   OH215353   0.966   6.837   2.181
 5137TIP3    H115354   0.873   6.809   2.197
 5137TIP3    H215355   0.980   6.798   2.091
 5138TIP3   OH215356   1.465   6.912   1.911
 5138TIP3    H115357   1.414   6.982   1.864
 5138TIP3    H215358   1.520   6.877   1.838
 5139TIP3   OH215359   1.638   7.192   2.988
 5139TIP3    H115360   1.615   7.120   3.052
 5139TIP3    H215361   1.731   7.208   3.012
 5140TIP3   OH215362   1.617   6.945   2.144
 5140TIP3    H115363   1.554   6.970   2.074
 5140TIP3    H215364   1.653   6.864   2.101
 5141TIP3   OH215365   0.904   6.974   2.872
 5141TIP3    H115366   0.937   7.037   2.938
 5141TIP3    H215367   0.894   6.892   2.924
 5142TIP3   OH215368   0.938   6.437   1.575
 5142TIP3    H115369   0.947   6.433   1.672
 5142TIP3    H215370   0.855   6.485   1.570
 5143TIP3   OH215371   0.489   6.507   2.463
 5143TIP3    H115372   0.576   6.527   2.503
 5143TIP3    H215373   0.511   6.475   2.373
 5144TIP3   OH215374   0.466   6.517   1.956
 5144TIP3    H115375   0.545   6.535   1.903
 5144TIP3    H215376   0.463   6.590   2.019
 5145TIP3   OH215377   1.625   7.191   2.565
 5145TIP3    H115378   1.659   7.120   2.506
 5145TIP3    H215379   1.596   7.137   2.642
 5146TIP3   OH215380   1.301   6.658   2.240
 5146TIP3    H115381   1.219   6.654   2.293
 5146TIP3    H215382   1.370   6.647   2.307
 5147TIP3   OH215383   0.728   6.709   2.245
 5147TIP3    H115384   0.636   6.712   2.209
 5147TIP3    H215385   0.755   6.617   2.228
 5148TIP3   OH215386   1.006   6.716   1.940
 5148TIP3    H115387   1.103   6.721   1.926
 5148TIP3    H215388   0.970   6.717   1.848
 5149TIP3   OH215389   1.787   6.732   2.441
 5149TIP3    H115390   1.756   6.744   2.533
 5149TIP3    H215391   1.720   6.670   2.408
 5150TIP3   OH215392   0.872   6.696   1.708
 5150TIP3    H115393   0.777   6.707   1.725
 5150TIP3    H215394   0.885   6.756   1.633
 5151TIP3   OH215395   0.919   7.530   3.079
 5151TIP3    H115396   0.998   7.556   3.130
 5151TIP3    H215397   0.855   7.516   3.151
 5152TIP3   OH215398   1.377   6.986   2.338
 5152TIP3    H115399   1.449   6.943   2.288
 5152TIP3    H215400   1.381   6.941   2.424
 5153TIP3   OH215401   0.898   6.470   2.218
 5153TIP3    H115402   0.860   6.394   2.267
 5153TIP3    H215403   0.939   6.425   2.143
 5154TIP3   OH215404   1.355   6.885   2.622
 5154TIP3    H115405   1.264   6.919   2.639
 5154TIP3    H215406   1.411   6.944   2.675
 5155TIP3   OH215407   1.122   7.270   1.752
 5155TIP3    H115408   1.056   7.197   1.755
 5155TIP3    H215409   1.096   7.320   1.833
 5156TIP3   OH215410   1.992   7.502   2.351
 5156TIP3    H115411   2.018   7.552   2.271
 5156TIP3    H215412   1.907   7.461   2.323
 5157TIP3   OH215413   1.545   6.586   1.580
 5157TIP3    H115414   1.450   6.566   1.592
 5157TIP3    H215415   1.555   6.677   1.612
 5158TIP3   OH215416   1.501   7.613   2.718
 5158TIP3    H115417   1.535   7.559   2.791
 5158TIP3    H215418   1.417   7.645   2.755
 5159TIP3   OH215419   1.620   6.828   1.692
 5159TIP3    H115420   1.716   6.835   1.707
 5159TIP3    H215421   1.600   6.910   1.642
 5160TIP3   OH215422   0.772   7.257   2.389
 5160TIP3    H115423   0.819   7.246   2.304
 5160TIP3    H215424   0.829   7.208   2.450
 5161TIP3   OH215425   1.299   7.385   1.568
 5161TIP3    H115426   1.241   7.445   1.515
 5161TIP3    H215427   1.230   7.337   1.618
 5162TIP3   OH215428   0.670   7.207   3.011
 5162TIP3    H115429   0.683   7.191   3.107
 5162TIP3    H215430   0.599   7.144   2.992
 5163TIP3   OH215431   1.398   7.317   3.035
 5163TIP3    H115432   1.335   7.266   2.981
 5163TIP3    H215433   1.484   7.283   3.003
 5164TIP3   OH215434   2.059   6.922   1.524
 5164TIP3    H115435   1.998   6.878   1.460
 5164TIP3    H215436   2.056   7.012   1.484
 5165TIP3   OH215437   2.279   7.759   2.607
 5165TIP3    H115438   2.182   7.772   2.597
 5165TIP3    H215439   2.304   7.746   2.513
 5166TIP3   OH215440   1.756   7.375   2.254
 5166TIP3    H115441   1.664   7.348   2.276
 5166TIP3    H215442   1.790   7.291   2.217
 5167TIP3   OH215443   1.025   7.383   1.983
 5167TIP3    H115444   0.984   7.462   2.020
 5167TIP3    H215445   0.994   7.316   2.046
 5168TIP3   OH215446   1.547   7.574   2.448
 5168TIP3    H115447   1.535   7.586   2.544
 5168TIP3    H215448   1.631   7.529   2.443
 5169TIP3   OH215449   1.521   7.407   1.334
 5169TIP3    H115450   1.572   7.403   1.418
 5169TIP3    H215451   1.431   7.395   1.369
 5170TIP3   OH215452   0.876   6.718   3.017
 5170TIP3    H115453   0.780   6.714   3.029
 5170TIP3    H215454   0.907   6.661   3.089
 5171TIP3   OH215455   1.684   7.375   1.549
 5171TIP3    H115456   1.677   7.304   1.616
 5171TIP3    H215457   1.781   7.376   1.532
 5172TIP3   OH215458   1.715   6.782   2.701
 5172TIP3    H115459   1.795   6.821   2.739
 5172TIP3    H215460   1.703   6.702   2.756
 5173TIP3   OH215461   1.596   6.532   1.868
 5173TIP3    H115462   1.583   6.557   1.775
 5173TIP3    H215463   1.636   6.614   1.905
 5174TIP3   OH215464   1.283   6.715   1.971
 5174TIP3    H115465   1.348   6.787   1.954
 5174TIP3    H215466   1.289   6.706   2.069
 5175TIP3   OH215467   1.553   7.031   2.773
 5175TIP3    H115468   1.579   7.082   2.852
 5175TIP3    H215469   1.606   6.949   2.783
 5176TIP3   OH215470   1.425   6.437   2.070
 5176TIP3    H115471   1.420   6.515   2.128
 5176TIP3    H215472   1.487   6.470   2.001
 5177TIP3   OH215473   0.946   6.440   1.862
 5177TIP3    H115474   0.944   6.533   1.890
 5177TIP3    H215475   1.042   6.423   1.868
 5178TIP3   OH215476   2.189   6.932   2.754
 5178TIP3    H115477   2.092   6.932   2.763
 5178TIP3    H215478   2.200   6.883   2.672
 5179TIP3   OH215479   1.842   7.127   2.145
 5179TIP3    H115480   1.766   7.068   2.157
 5179TIP3    H215481   1.913   7.079   2.193
 5180TIP3   OH215482   0.887   6.350   2.619
 5180TIP3    H115483   0.857   6.316   2.532
 5180TIP3    H215484   0.876   6.272   2.676
 5181TIP3   OH215485   0.715   7.496   3.257
 5181TIP3    H115486   0.737   7.402   3.268
 5181TIP3    H215487   0.625   7.491   3.219
 5182TIP3   OH215488   1.336   7.581   3.076
 5182TIP3    H115489   1.303   7.595   2.984
 5182TIP3    H215490   1.372   7.491   3.068
 5183TIP3   OH215491   1.810   7.605   2.650
 5183TIP3    H115492   1.880   7.660   2.608
 5183TIP3    H215493   1.735   7.665   2.645
 5184TIP3   OH215494   0.841   7.248   3.257
 5184TIP3    H115495   0.919   7.197   3.232
 5184TIP3    H215496   0.867   7.282   3.346
 5185TIP3   OH215497   0.943   7.068   1.740
 5185TIP3    H115498   0.894   7.025   1.812
 5185TIP3    H215499   0.942   6.999   1.671
 5186TIP3   OH215500   1.166   7.135   2.914
 5186TIP3    H115501   1.090   7.196   2.916
 5186TIP3    H215502   1.219   7.171   2.839
 5187TIP3   OH215503   1.027   6.859   1.508
 5187TIP3    H115504   1.048   6.803   1.433
 5187TIP3    H215505   1.118   6.888   1.531
 5188TIP3   OH215506   1.691   7.530   3.048
 5188TIP3    H115507   1.774   7.508   3.004
 5188TIP3    H215508   1.689   7.466   3.121
 5189TIP3   OH215509   1.842   7.210   1.180
 5189TIP3    H115510   1.806   7.163   1.102
 5189TIP3    H215511   1.798   7.298   1.172
 5190TIP3   OH215512   1.291   6.927   3.042
 5190TIP3    H115513   1.293   6.848   2.984
 5190TIP3    H215514   1.247   6.993   2.984
 5191TIP3   OH215515   1.295   6.715   2.850
 5191TIP3    H115516   1.324   6.753   2.765
 5191TIP3    H215517   1.202   6.690   2.831
 5192TIP3   OH215518   1.316   7.250   2.724
 5192TIP3    H115519   1.400   7.256   2.677
 5192TIP3    H215520   1.261   7.317   2.678
 5193TIP3   OH215521   1.901   7.213   3.102
 5193TIP3    H115522   1.951   7.131   3.115
 5193TIP3    H215523   1.971   7.274   3.073
 5194TIP3   OH215524   1.943   7.464   2.838
 5194TIP3    H115525   1.886   7.519   2.779
 5194TIP3    H215526   2.031   7.485   2.800
 5195TIP3   OH215527   1.170   7.034   3.275
 5195TIP3    H115528   1.102   6.965   3.290
 5195TIP3    H215529   1.204   7.009   3.187
 5196TIP3   OH215530   1.427   6.475   2.919
 5196TIP3    H115531   1.376   6.556   2.896
 5196TIP3    H215532   1.358   6.406   2.907
 5197TIP3   OH215533   1.552   6.978   3.134
 5197TIP3    H115534   1.540   6.963   3.229
 5197TIP3    H215535   1.462   6.954   3.102
 5198TIP3   OH215536   1.790   6.928   2.987
 5198TIP3    H115537   1.716   6.929   3.052
 5198TIP3    H215538   1.865   6.899   3.043
 5199TIP3   OH215539   2.015   6.869   3.138
 5199TIP3    H115540   2.031   6.774   3.154
 5199TIP3    H215541   2.014   6.906   3.228
 5200TIP3   OH215542   1.008   6.814   3.329
 5200TIP3    H115543   1.012   6.723   3.296
 5200TIP3    H215544   1.046   6.803   3.419
 5201TIP3   OH215545   1.518   6.485   3.178
 5201TIP3    H115546   1.586   6.414   3.172
 5201TIP3    H215547   1.480   6.479   3.088
 5202TIP3   OH215548   1.587   6.699   3.335
 5202TIP3    H115549   1.566   6.628   3.271
 5202TIP3    H215550   1.508   6.757   3.328
 5203TIP3   OH215551   2.168   7.894   2.879
 5203TIP3    H115552   2.094   7.875   2.942
 5203TIP3    H215553   2.218   7.961   2.928
 5204TIP3   OH215554   1.954   7.373   1.531
 5204TIP3    H115555   2.025   7.433   1.500
 5204TIP3    H215556   1.997   7.335   1.611
 5205TIP3   OH215557   2.084   7.246   1.731
 5205TIP3    H115558   2.021   7.204   1.793
 5205TIP3    H215559   2.153   7.282   1.791
 5206TIP3   OH215560   2.124   7.637   2.157
 5206TIP3    H115561   2.189   7.580   2.112
 5206TIP3    H215562   2.130   7.721   2.108
 5207TIP3   OH215563   2.026   7.157   1.377
 5207TIP3    H115564   1.957   7.161   1.306
 5207TIP3    H215565   1.995   7.231   1.434
 5208TIP3   OH215566   1.896   6.830   1.328
 5208TIP3    H115567   1.845   6.867   1.255
 5208TIP3    H215568   1.873   6.735   1.320
 5209TIP3   OH215569   1.899   7.106   1.878
 5209TIP3    H115570   1.906   7.010   1.869
 5209TIP3    H215571   1.884   7.117   1.975
 5210TIP3   OH215572   0.523   7.187   2.624
 5210TIP3    H115573   0.521   7.150   2.533
 5210TIP3    H215574   0.620   7.186   2.640
 5211TIP3   OH215575   2.187   7.528   2.734
 5211TIP3    H115576   2.260   7.463   2.723
 5211TIP3    H215577   2.215   7.600   2.675
 5212TIP3   OH215578   2.374   7.334   2.740
 5212TIP3    H115579   2.299   7.285   2.781
 5212TIP3    H215580   2.447   7.271   2.759
 5213TIP3   OH215581   1.836   6.565   1.313
 5213TIP3    H115582   1.909   6.533   1.369
 5213TIP3    H215583   1.762   6.505   1.334
 5214TIP3   OH215584   1.897   6.825   1.768
 5214TIP3    H115585   1.937   6.736   1.783
 5214TIP3    H215586   1.955   6.856   1.696
 5215TIP3   OH215587   2.055   6.995   2.265
 5215TIP3    H115588   2.140   7.020   2.223
 5215TIP3    H215589   2.069   7.032   2.354
 5216TIP3   OH215590   2.126   7.141   2.494
 5216TIP3    H115591   2.050   7.175   2.545
 5216TIP3    H215592   2.159   7.223   2.451
 5217TIP3   OH215593   0.742   6.863   3.289
 5217TIP3    H115594   0.840   6.859   3.297
 5217TIP3    H215595   0.717   6.779   3.331
 5218TIP3   OH215596   2.574   6.730   3.050
 5218TIP3    H115597   2.637   6.667   3.008
 5218TIP3    H215598   2.547   6.786   2.974
 5219TIP3   OH215599   2.004   6.574   1.807
 5219TIP3    H115600   2.051   6.558   1.891
 5219TIP3    H215601   1.942   6.498   1.805
 5220TIP3   OH215602   0.706   6.559   2.635
 5220TIP3    H115603   0.766   6.482   2.639
 5220TIP3    H215604   0.769   6.632   2.622
 5221TIP3   OH215605   0.509   6.833   2.702
 5221TIP3    H115606   0.555   6.822   2.616
 5221TIP3    H215607   0.541   6.919   2.731
 5222TIP3   OH215608   2.448   6.871   2.854
 5222TIP3    H115609   2.364   6.914   2.883
 5222TIP3    H215610   2.412   6.799   2.799
 5223TIP3   OH215611   2.082   6.506   1.441
 5223TIP3    H115612   2.120   6.435   1.385
 5223TIP3    H215613   2.150   6.576   1.436
 5224TIP3   OH215614   0.478   6.391   2.215
 5224TIP3    H115615   0.399   6.336   2.229
 5224TIP3    H215616   0.482   6.389   2.117
 5225TIP3   OH215617   0.713   6.420   3.018
 5225TIP3    H115618   0.659   6.414   3.098
 5225TIP3    H215619   0.648   6.454   2.954
 5226TIP3   OH215620   2.347   6.633   2.736
 5226TIP3    H115621   2.256   6.621   2.703
 5226TIP3    H215622   2.381   6.541   2.727
 5227TIP3   OH215623   1.549   6.548   2.356
 5227TIP3    H115624   1.508   6.477   2.409
 5227TIP3    H215625   1.624   6.502   2.313
 5228TIP3   OH215626   2.072   6.430   2.259
 5228TIP3    H115627   2.107   6.482   2.184
 5228TIP3    H215628   1.976   6.448   2.253
 5229TIP3   OH215629   2.168   6.530   2.023
 5229TIP3    H115630   2.243   6.478   1.986
 5229TIP3    H215631   2.202   6.621   2.009
 5230TIP3   OH215632   0.800   6.258   2.372
 5230TIP3    H115633   0.707   6.226   2.371
 5230TIP3    H215634   0.847   6.173   2.365
 5231TIP3   OH215635   0.621   6.131   2.034
 5231TIP3    H115636   0.640   6.179   1.951
 5231TIP3    H215637   0.528   6.156   2.048
 5232TIP3   OH215638   1.247   6.290   2.253
 5232TIP3    H115639   1.304   6.338   2.191
 5232TIP3    H215640   1.273   6.327   2.338
 5233TIP3   OH215641   1.788   6.437   2.235
 5233TIP3    H115642   1.789   6.395   2.148
 5233TIP3    H215643   1.777   6.359   2.295
 5234TIP3   OH215644   1.820   6.362   1.800
 5234TIP3    H115645   1.734   6.403   1.816
 5234TIP3    H215646   1.808   6.275   1.844
 5235TIP3   OH215647   0.703   6.300   1.804
 5235TIP3    H115648   0.755   6.242   1.744
 5235TIP3    H215649   0.777   6.352   1.841
 5236TIP3   OH215650   1.221   6.466   1.876
 5236TIP3    H115651   1.274   6.413   1.938
 5236TIP3    H215652   1.246   6.557   1.906
 5237TIP3   OH215653   1.007   6.540   3.264
 5237TIP3    H115654   0.972   6.468   3.320
 5237TIP3    H215655   1.101   6.539   3.291
 5238TIP3   OH215656   1.258   6.537   3.381
 5238TIP3    H115657   1.343   6.512   3.340
 5238TIP3    H215658   1.247   6.466   3.448
 5239TIP3   OH215659   2.084   6.600   3.169
 5239TIP3    H115660   2.102   6.568   3.260
 5239TIP3    H215661   2.173   6.595   3.129
 5240TIP3   OH215662   3.288   7.502   1.437
 5240TIP3    H115663   3.254   7.591   1.414
 5240TIP3    H215664   3.217   7.449   1.396
 5241TIP3   OH215665   3.294   7.522   1.809
 5241TIP3    H115666   3.324   7.500   1.899
 5241TIP3    H215667   3.244   7.443   1.783
 5242TIP3   OH215668   2.584   7.415   2.174
 5242TIP3    H115669   2.614   7.346   2.235
 5242TIP3    H215670   2.657   7.479   2.181
 5243TIP3   OH215671   3.506   7.825   1.500
 5243TIP3    H115672   3.506   7.754   1.567
 5243TIP3    H215673   3.562   7.891   1.542
 5244TIP3   OH215674   2.611   7.769   1.973
 5244TIP3    H115675   2.584   7.679   1.945
 5244TIP3    H215676   2.697   7.779   1.926
 5245TIP3   OH215677   2.267   7.028   1.679
 5245TIP3    H115678   2.220   7.111   1.698
 5245TIP3    H215679   2.194   6.976   1.639
 5246TIP3   OH215680   2.319   7.317   1.858
 5246TIP3    H115681   2.368   7.239   1.892
 5246TIP3    H215682   2.389   7.370   1.818
 5247TIP3   OH215683   3.103   7.738   1.850
 5247TIP3    H115684   3.153   7.663   1.813
 5247TIP3    H215685   3.179   7.793   1.879
 5248TIP3   OH215686   4.097   7.069   1.854
 5248TIP3    H115687   4.129   7.151   1.898
 5248TIP3    H215688   4.127   7.085   1.762
 5249TIP3   OH215689   3.492   7.250   1.889
 5249TIP3    H115690   3.539   7.167   1.912
 5249TIP3    H215691   3.469   7.232   1.796
 5250TIP3   OH215692   2.839   6.908   1.850
 5250TIP3    H115693   2.812   6.982   1.790
 5250TIP3    H215694   2.787   6.835   1.809
 5251TIP3   OH215695   2.469   7.112   1.961
 5251TIP3    H115696   2.552   7.093   2.010
 5251TIP3    H215697   2.483   7.056   1.882
 5252TIP3   OH215698   2.909   7.307   1.754
 5252TIP3    H115699   3.002   7.280   1.767
 5252TIP3    H215700   2.868   7.224   1.723
 5253TIP3   OH215701   4.172   7.275   2.027
 5253TIP3    H115702   4.088   7.323   2.010
 5253TIP3    H215703   4.196   7.310   2.114
 5254TIP3   OH215704   2.833   6.892   2.288
 5254TIP3    H115705   2.772   6.930   2.223
 5254TIP3    H215706   2.782   6.906   2.370
 5255TIP3   OH215707   3.170   7.707   1.297
 5255TIP3    H115708   3.126   7.709   1.211
 5255TIP3    H215709   3.198   7.800   1.308
 5256TIP3   OH215710   2.936   7.675   2.082
 5256TIP3    H115711   2.871   7.739   2.116
 5256TIP3    H215712   2.967   7.720   2.001
 5257TIP3   OH215713   3.719   6.988   1.661
 5257TIP3    H115714   3.745   6.966   1.751
 5257TIP3    H215715   3.773   7.068   1.647
 5258TIP3   OH215716   2.705   7.008   2.071
 5258TIP3    H115717   2.766   7.081   2.096
 5258TIP3    H215718   2.756   6.968   1.997
 5259TIP3   OH215719   2.764   7.883   2.188
 5259TIP3    H115720   2.720   7.882   2.101
 5259TIP3    H215721   2.686   7.880   2.246
 5260TIP3   OH215722   2.164   7.517   1.429
 5260TIP3    H115723   2.128   7.545   1.343
 5260TIP3    H215724   2.182   7.605   1.466
 5261TIP3   OH215725   3.894   6.965   2.015
 5261TIP3    H115726   3.812   7.008   1.989
 5261TIP3    H215727   3.959   6.999   1.950
 5262TIP3   OH215728   3.186   6.616   2.005
 5262TIP3    H115729   3.175   6.521   2.025
 5262TIP3    H215730   3.108   6.653   2.052
 5263TIP3   OH215731   3.538   7.839   1.218
 5263TIP3    H115732   3.511   7.759   1.170
 5263TIP3    H215733   3.547   7.809   1.310
 5264TIP3   OH215734   3.819   7.977   2.004
 5264TIP3    H115735   3.808   7.900   1.946
 5264TIP3    H215736   3.848   8.047   1.941
 5265TIP3   OH215737   3.121   7.365   1.268
 5265TIP3    H115738   3.041   7.419   1.249
 5265TIP3    H215739   3.164   7.363   1.180
 5266TIP3   OH215740   3.077   7.158   0.976
 5266TIP3    H115741   3.145   7.213   1.020
 5266TIP3    H215742   3.135   7.095   0.928
 5267TIP3   OH215743   4.022   7.616   1.846
 5267TIP3    H115744   3.939   7.668   1.852
 5267TIP3    H215745   4.053   7.643   1.757
 5268TIP3   OH215746   3.466   7.449   1.235
 5268TIP3    H115747   3.413   7.470   1.315
 5268TIP3    H215748   3.552   7.425   1.276
 5269TIP3   OH215749   3.700   7.495   2.148
 5269TIP3    H115750   3.700   7.578   2.199
 5269TIP3    H215751   3.613   7.503   2.103
 5270TIP3   OH215752   2.703   7.452   1.640
 5270TIP3    H115753   2.662   7.392   1.573
 5270TIP3    H215754   2.780   7.400   1.671
 5271TIP3   OH215755   2.838   7.815   1.843
 5271TIP3    H115756   2.799   7.819   1.754
 5271TIP3    H215757   2.933   7.817   1.826
 5272TIP3   OH215758   2.834   7.429   1.999
 5272TIP3    H115759   2.868   7.408   1.909
 5272TIP3    H215760   2.876   7.516   2.018
 5273TIP3   OH215761   3.018   7.887   2.320
 5273TIP3    H115762   2.979   7.974   2.341
 5273TIP3    H215763   2.944   7.849   2.269
 5274TIP3   OH215764   3.298   7.314   1.060
 5274TIP3    H115765   3.361   7.372   1.109
 5274TIP3    H215766   3.329   7.329   0.967
 5275TIP3   OH215767   2.727   7.538   2.424
 5275TIP3    H115768   2.734   7.624   2.469
 5275TIP3    H215769   2.634   7.515   2.445
 5276TIP3   OH215770   3.823   6.557   1.107
 5276TIP3    H115771   3.745   6.585   1.158
 5276TIP3    H215772   3.841   6.637   1.052
 5277TIP3   OH215773   2.568   7.293   1.449
 5277TIP3    H115774   2.502   7.338   1.392
 5277TIP3    H215775   2.522   7.211   1.470
 5278TIP3   OH215776   2.363   7.681   2.360
 5278TIP3    H115777   2.293   7.660   2.297
 5278TIP3    H215778   2.396   7.592   2.387
 5279TIP3   OH215779   3.952   7.456   2.325
 5279TIP3    H115780   3.870   7.465   2.275
 5279TIP3    H215781   3.970   7.360   2.317
 5280TIP3   OH215782   2.551   7.884   2.363
 5280TIP3    H115783   2.605   7.845   2.434
 5280TIP3    H215784   2.479   7.817   2.354
 5281TIP3   OH215785   2.948   6.690   2.130
 5281TIP3    H115786   2.858   6.658   2.105
 5281TIP3    H215787   2.922   6.768   2.184
 5282TIP3   OH215788   3.486   6.799   2.329
 5282TIP3    H115789   3.556   6.773   2.392
 5282TIP3    H215790   3.404   6.781   2.380
 5283TIP3   OH215791   3.715   7.229   2.241
 5283TIP3    H115792   3.669   7.227   2.328
 5283TIP3    H215793   3.697   7.320   2.210
 5284TIP3   OH215794   3.387   7.346   0.811
 5284TIP3    H115795   3.344   7.331   0.725
 5284TIP3    H215796   3.457   7.411   0.787
 5285TIP3   OH215797   3.098   6.731   1.105
 5285TIP3    H115798   3.058   6.726   1.194
 5285TIP3    H215799   3.057   6.653   1.064
 5286TIP3   OH215800   2.882   7.206   2.149
 5286TIP3    H115801   2.833   7.225   2.231
 5286TIP3    H215802   2.865   7.288   2.097
 5287TIP3   OH215803   2.766   7.088   1.662
 5287TIP3    H115804   2.672   7.065   1.680
 5287TIP3    H215805   2.776   7.049   1.572
 5288TIP3   OH215806   3.260   7.166   1.395
 5288TIP3    H115807   3.207   7.238   1.353
 5288TIP3    H215808   3.313   7.136   1.318
 5289TIP3   OH215809   3.432   7.449   2.475
 5289TIP3    H115810   3.410   7.377   2.539
 5289TIP3    H215811   3.526   7.464   2.498
 5290TIP3   OH215812   3.416   7.205   1.631
 5290TIP3    H115813   3.351   7.236   1.565
 5290TIP3    H215814   3.466   7.143   1.577
 5291TIP3   OH215815   2.702   7.229   2.358
 5291TIP3    H115816   2.726   7.294   2.426
 5291TIP3    H215817   2.689   7.148   2.410
 5292TIP3   OH215818   2.751   6.712   1.069
 5292TIP3    H115819   2.734   6.710   1.165
 5292TIP3    H215820   2.673   6.763   1.039
 5293TIP3   OH215821   2.292   6.754   1.939
 5293TIP3    H115822   2.368   6.784   1.993
 5293TIP3    H215823   2.333   6.720   1.858
 5294TIP3   OH215824   2.261   6.734   1.460
 5294TIP3    H115825   2.306   6.771   1.381
 5294TIP3    H215826   2.199   6.807   1.479
 5295TIP3   OH215827   3.417   7.449   2.053
 5295TIP3    H115828   3.452   7.377   1.996
 5295TIP3    H215829   3.390   7.395   2.131
 5296TIP3   OH215830   3.094   6.894   1.747
 5296TIP3    H115831   3.000   6.890   1.773
 5296TIP3    H215832   3.128   6.954   1.815
 5297TIP3   OH215833   2.527   6.969   1.731
 5297TIP3    H115834   2.432   6.980   1.705
 5297TIP3    H215835   2.543   6.876   1.712
 5298TIP3   OH215836   2.799   6.965   1.418
 5298TIP3    H115837   2.887   6.981   1.381
 5298TIP3    H215838   2.740   6.984   1.341
 5299TIP3   OH215839   3.577   6.989   1.929
 5299TIP3    H115840   3.559   7.005   2.025
 5299TIP3    H215841   3.514   6.920   1.911
 5300TIP3   OH215842   2.641   6.995   1.202
 5300TIP3    H115843   2.570   6.951   1.153
 5300TIP3    H215844   2.693   7.033   1.128
 5301TIP3   OH215845   2.717   7.785   2.566
 5301TIP3    H115846   2.794   7.813   2.618
 5301TIP3    H215847   2.651   7.772   2.638
 5302TIP3   OH215848   3.170   7.228   1.821
 5302TIP3    H115849   3.260   7.213   1.787
 5302TIP3    H215850   3.178   7.202   1.915
 5303TIP3   OH215851   2.698   6.722   1.707
 5303TIP3    H115852   2.658   6.649   1.758
 5303TIP3    H215853   2.720   6.677   1.624
 5304TIP3   OH215854   3.153   7.145   2.102
 5304TIP3    H115855   3.062   7.176   2.123
 5304TIP3    H215856   3.209   7.200   2.160
 5305TIP3   OH215857   2.891   7.511   1.217
 5305TIP3    H115858   2.812   7.455   1.202
 5305TIP3    H215859   2.865   7.557   1.300
 5306TIP3   OH215860   3.788   7.759   1.838
 5306TIP3    H115861   3.816   7.809   1.757
 5306TIP3    H215862   3.704   7.719   1.809
 5307TIP3   OH215863   3.355   6.826   1.076
 5307TIP3    H115864   3.259   6.809   1.090
 5307TIP3    H215865   3.367   6.915   1.115
 5308TIP3   OH215866   3.297   7.869   2.205
 5308TIP3    H115867   3.329   7.817   2.280
 5308TIP3    H215868   3.212   7.901   2.239
 5309TIP3   OH215869   3.418   7.085   1.185
 5309TIP3    H115870   3.515   7.090   1.197
 5309TIP3    H215871   3.402   7.158   1.123
 5310TIP3   OH215872   2.563   7.508   1.873
 5310TIP3    H115873   2.614   7.497   1.791
 5310TIP3    H215874   2.619   7.463   1.939
 5311TIP3   OH215875   2.998   7.699   1.049
 5311TIP3    H115876   2.957   7.769   1.105
 5311TIP3    H215877   2.965   7.620   1.097
 5312TIP3   OH215878   2.468   7.461   2.498
 5312TIP3    H115879   2.482   7.447   2.594
 5312TIP3    H215880   2.395   7.398   2.481
 5313TIP3   OH215881   3.192   7.576   2.520
 5313TIP3    H115882   3.128   7.520   2.474
 5313TIP3    H215883   3.277   7.540   2.488
 5314TIP3   OH215884   3.855   7.180   1.010
 5314TIP3    H115885   3.791   7.137   0.948
 5314TIP3    H215886   3.852   7.270   0.971
 5315TIP3   OH215887   4.076   8.019   2.093
 5315TIP3    H115888   3.979   8.031   2.083
 5315TIP3    H215889   4.100   8.003   1.999
 5316TIP3   OH215890   3.552   7.633   1.741
 5316TIP3    H115891   3.461   7.606   1.762
 5316TIP3    H215892   3.587   7.550   1.702
 5317TIP3   OH215893   2.246   7.157   1.213
 5317TIP3    H115894   2.293   7.240   1.235
 5317TIP3    H215895   2.171   7.161   1.276
 5318TIP3   OH215896   2.813   7.632   1.454
 5318TIP3    H115897   2.772   7.711   1.493
 5318TIP3    H215898   2.787   7.568   1.522
 5319TIP3   OH215899   3.344   7.828   1.935
 5319TIP3    H115900   3.332   7.842   2.032
 5319TIP3    H215901   3.431   7.788   1.931
 5320TIP3   OH215902   3.349   7.666   0.788
 5320TIP3    H115903   3.381   7.650   0.879
 5320TIP3    H215904   3.266   7.716   0.805
 5321TIP3   OH215905   2.672   6.973   2.502
 5321TIP3    H115906   2.576   6.977   2.517
 5321TIP3    H215907   2.702   6.921   2.578
 5322TIP3   OH215908   3.472   7.637   1.038
 5322TIP3    H115909   3.467   7.564   1.103
 5322TIP3    H215910   3.568   7.636   1.016
 5323TIP3   OH215911   2.658   7.654   0.867
 5323TIP3    H115912   2.699   7.570   0.840
 5323TIP3    H215913   2.700   7.669   0.953
 5324TIP3   OH215914   2.366   7.397   1.292
 5324TIP3    H115915   2.300   7.434   1.354
 5324TIP3    H215916   2.372   7.470   1.227
 5325TIP3   OH215917   3.516   7.032   2.187
 5325TIP3    H115918   3.590   7.079   2.228
 5325TIP3    H215919   3.504   6.954   2.246
 5326TIP3   OH215920   3.106   6.948   1.465
 5326TIP3    H115921   3.155   7.031   1.441
 5326TIP3    H215922   3.095   6.958   1.561
 5327TIP3   OH215923   3.350   7.286   2.262
 5327TIP3    H115924   3.370   7.344   2.339
 5327TIP3    H215925   3.403   7.208   2.282
 5328TIP3   OH215926   2.730   6.697   1.347
 5328TIP3    H115927   2.730   6.788   1.382
 5328TIP3    H215928   2.826   6.680   1.344
 5329TIP3   OH215929   3.984   7.191   2.247
 5329TIP3    H115930   3.886   7.186   2.249
 5329TIP3    H215931   4.003   7.150   2.162
 5330TIP3   OH215932   3.641   7.387   1.632
 5330TIP3    H115933   3.565   7.329   1.652
 5330TIP3    H215934   3.715   7.343   1.679
 5331TIP3   OH215935   2.353   7.611   1.105
 5331TIP3    H115936   2.382   7.704   1.096
 5331TIP3    H215937   2.413   7.565   1.042
 5332TIP3   OH215938   2.295   6.888   1.236
 5332TIP3    H115939   2.293   6.985   1.233
 5332TIP3    H215940   2.216   6.864   1.188
 5333TIP3   OH215941   2.686   6.606   2.104
 5333TIP3    H115942   2.652   6.570   2.019
 5333TIP3    H215943   2.675   6.530   2.164
 5334TIP3   OH215944   2.512   7.755   2.745
 5334TIP3    H115945   2.534   7.660   2.755
 5334TIP3    H215946   2.422   7.750   2.705
 5335TIP3   OH215947   2.488   7.415   0.965
 5335TIP3    H115948   2.543   7.382   1.038
 5335TIP3    H215949   2.556   7.421   0.895
 5336TIP3   OH215950   3.135   7.841   2.563
 5336TIP3    H115951   3.101   7.854   2.471
 5336TIP3    H215952   3.169   7.750   2.555
 5337TIP3   OH215953   2.931   7.597   0.773
 5337TIP3    H115954   2.970   7.614   0.860
 5337TIP3    H215955   2.966   7.507   0.754
 5338TIP3   OH215956   3.607   7.859   2.137
 5338TIP3    H115957   3.676   7.915   2.095
 5338TIP3    H215958   3.531   7.920   2.134
 5339TIP3   OH215959   2.637   7.506   2.742
 5339TIP3    H115960   2.708   7.443   2.727
 5339TIP3    H215961   2.661   7.539   2.832
 5340TIP3   OH215962   2.684   7.328   1.169
 5340TIP3    H115963   2.660   7.285   1.253
 5340TIP3    H215964   2.727   7.255   1.120
 5341TIP3   OH215965   2.966   7.394   2.401
 5341TIP3    H115966   2.887   7.452   2.402
 5341TIP3    H215967   3.016   7.430   2.324
 5342TIP3   OH215968   2.799   7.124   1.018
 5342TIP3    H115969   2.774   7.125   0.923
 5342TIP3    H215970   2.897   7.127   1.010
 5343TIP3   OH215971   3.487   7.785   2.535
 5343TIP3    H115972   3.566   7.758   2.487
 5343TIP3    H215973   3.484   7.721   2.609
 5344TIP3   OH215974   3.612   7.480   0.710
 5344TIP3    H115975   3.595   7.420   0.635
 5344TIP3    H215976   3.602   7.565   0.664
 5345TIP3   OH215977   3.089   7.184   2.527
 5345TIP3    H115978   3.088   7.104   2.470
 5345TIP3    H215979   3.044   7.250   2.470
 5346TIP3   OH215980   3.091   6.970   2.335
 5346TIP3    H115981   3.117   7.010   2.250
 5346TIP3    H215982   2.997   6.946   2.319
 5347TIP3   OH215983   3.114   7.506   2.205
 5347TIP3    H115984   3.198   7.520   2.161
 5347TIP3    H215985   3.056   7.573   2.163
 5348TIP3   OH215986   3.698   7.468   2.587
 5348TIP3    H115987   3.745   7.386   2.607
 5348TIP3    H215988   3.769   7.524   2.553
 5349TIP3   OH215989   3.740   7.722   2.328
 5349TIP3    H115990   3.683   7.776   2.267
 5349TIP3    H215991   3.828   7.743   2.290
 5350TIP3   OH215992   2.967   7.291   2.759
 5350TIP3    H115993   2.898   7.224   2.778
 5350TIP3    H215994   3.000   7.261   2.672
 5351TIP3   OH215995   3.222   6.729   2.402
 5351TIP3    H115996   3.171   6.811   2.383
 5351TIP3    H215997   3.152   6.661   2.395
 5352TIP3   OH215998   3.349   7.235   2.621
 5352TIP3    H115999   3.337   7.219   2.716
 5352TIP3    H216000   3.259   7.212   2.590
 5353TIP3   OH216001   3.585   7.182   2.473
 5353TIP3    H116002   3.512   7.185   2.538
 5353TIP3    H216003   3.661   7.153   2.529
 5354TIP3   OH216004   3.813   7.126   2.622
 5354TIP3    H116005   3.829   7.030   2.639
 5354TIP3    H216006   3.811   7.163   2.713
 5355TIP3   OH216007   2.806   7.071   2.813
 5355TIP3    H116008   2.810   6.978   2.784
 5355TIP3    H216009   2.843   7.062   2.904
 5356TIP3   OH216010   3.317   6.743   2.661
 5356TIP3    H116011   3.384   6.672   2.659
 5356TIP3    H216012   3.277   6.733   2.572
 5357TIP3   OH216013   3.385   6.958   2.819
 5357TIP3    H116014   3.363   6.886   2.756
 5357TIP3    H216015   3.304   7.014   2.815
 5358TIP3   OH216016   2.083   7.529   1.113
 5358TIP3    H116017   2.173   7.566   1.104
 5358TIP3    H216018   2.091   7.441   1.071
 5359TIP3   OH216019   3.960   8.145   2.372
 5359TIP3    H116020   3.893   8.131   2.442
 5359TIP3    H216021   4.009   8.221   2.407
 5360TIP3   OH216022   3.745   7.634   1.022
 5360TIP3    H116023   3.817   7.691   0.988
 5360TIP3    H216024   3.790   7.594   1.100
 5361TIP3   OH216025   3.880   7.505   1.217
 5361TIP3    H116026   3.818   7.462   1.279
 5361TIP3    H216027   3.951   7.538   1.276
 5362TIP3   OH216028   3.919   7.893   1.642
 5362TIP3    H116029   3.985   7.835   1.598
 5362TIP3    H216030   3.927   7.977   1.594
 5363TIP3   OH216031   3.825   7.416   0.870
 5363TIP3    H116032   3.752   7.422   0.805
 5363TIP3    H216033   3.798   7.489   0.929
 5364TIP3   OH216034   3.687   7.091   0.819
 5364TIP3    H116035   3.673   7.124   0.729
 5364TIP3    H216036   3.661   6.997   0.810
 5365TIP3   OH216037   3.694   7.363   1.362
 5365TIP3    H116038   3.701   7.267   1.345
 5365TIP3    H216039   3.683   7.369   1.459
 5366TIP3   OH216040   2.320   7.444   2.109
 5366TIP3    H116041   2.316   7.408   2.018
 5366TIP3    H216042   2.417   7.442   2.125
 5367TIP3   OH216043   3.984   7.786   2.223
 5367TIP3    H116044   4.056   7.721   2.211
 5367TIP3    H216045   4.010   7.857   2.161
 5368TIP3   OH216046   4.168   7.590   2.232
 5368TIP3    H116047   4.094   7.541   2.273
 5368TIP3    H216048   4.242   7.527   2.248
 5369TIP3   OH216049   3.632   6.826   0.802
 5369TIP3    H116050   3.706   6.790   0.855
 5369TIP3    H216051   3.559   6.763   0.818
 5370TIP3   OH216052   3.697   7.092   1.244
 5370TIP3    H116053   3.730   7.003   1.268
 5370TIP3    H216054   3.756   7.114   1.170
 5371TIP3   OH216055   3.849   7.256   1.750
 5371TIP3    H116056   3.935   7.277   1.708
 5371TIP3    H216057   3.867   7.291   1.840
 5372TIP3   OH216058   3.921   7.397   1.982
 5372TIP3    H116059   3.846   7.434   2.032
 5372TIP3    H216060   3.956   7.478   1.937
 5373TIP3   OH216061   2.540   7.122   2.780
 5373TIP3    H116062   2.638   7.119   2.788
 5373TIP3    H216063   2.516   7.036   2.821
 5374TIP3   OH216064   4.370   6.990   2.537
 5374TIP3    H116065   4.433   6.925   2.498
 5374TIP3    H216066   4.344   7.043   2.459
 5375TIP3   OH216067   3.799   6.835   1.296
 5375TIP3    H116068   3.852   6.818   1.377
 5375TIP3    H216069   3.737   6.759   1.298
 5376TIP3   OH216070   2.501   6.815   2.109
 5376TIP3    H116071   2.562   6.740   2.122
 5376TIP3    H216072   2.563   6.890   2.105
 5377TIP3   OH216073   2.300   7.088   2.185
 5377TIP3    H116074   2.351   7.088   2.102
 5377TIP3    H216075   2.329   7.170   2.226
 5378TIP3   OH216076   4.242   7.127   2.339
 5378TIP3    H116077   4.156   7.168   2.362
 5378TIP3    H216078   4.212   7.052   2.284
 5379TIP3   OH216079   3.879   6.761   0.930
 5379TIP3    H116080   3.917   6.692   0.872
 5379TIP3    H216081   3.945   6.833   0.925
 5380TIP3   OH216082   2.288   6.594   1.689
 5380TIP3    H116083   2.195   6.586   1.717
 5380TIP3    H216084   2.280   6.652   1.610
 5381TIP3   OH216085   2.506   6.671   2.500
 5381TIP3    H116086   2.457   6.667   2.584
 5381TIP3    H216087   2.439   6.710   2.441
 5382TIP3   OH216088   4.144   6.887   2.224
 5382TIP3    H116089   4.053   6.872   2.193
 5382TIP3    H216090   4.181   6.796   2.215
 5383TIP3   OH216091   3.388   6.727   1.798
 5383TIP3    H116092   3.308   6.732   1.853
 5383TIP3    H216093   3.433   6.652   1.842
 5384TIP3   OH216094   3.875   6.689   1.747
 5384TIP3    H116095   3.923   6.735   1.675
 5384TIP3    H216096   3.784   6.707   1.721
 5385TIP3   OH216097   3.966   6.786   1.512
 5385TIP3    H116098   4.038   6.732   1.472
 5385TIP3    H216099   4.003   6.876   1.496
 5386TIP3   OH216100   2.595   6.512   1.855
 5386TIP3    H116101   2.502   6.481   1.860
 5386TIP3    H216102   2.642   6.426   1.853
 5387TIP3   OH216103   2.386   6.387   1.510
 5387TIP3    H116104   2.412   6.443   1.434
 5387TIP3    H216105   2.357   6.453   1.575
 5388TIP3   OH216106   3.042   6.559   1.738
 5388TIP3    H116107   3.078   6.647   1.728
 5388TIP3    H216108   3.029   6.556   1.834
 5389TIP3   OH216109   3.611   6.619   1.289
 5389TIP3    H116110   3.533   6.613   1.232
 5389TIP3    H216111   3.606   6.534   1.338
 5390TIP3   OH216112   2.500   6.542   1.269
 5390TIP3    H116113   2.547   6.478   1.211
 5390TIP3    H216114   2.575   6.595   1.304
 5391TIP3   OH216115   3.005   6.716   1.368
 5391TIP3    H116116   3.014   6.662   1.447
 5391TIP3    H216117   3.045   6.802   1.396
 5392TIP3   OH216118   2.805   6.796   2.748
 5392TIP3    H116119   2.768   6.726   2.805
 5392TIP3    H216120   2.899   6.794   2.778
 5393TIP3   OH216121   3.055   6.790   2.867
 5393TIP3    H116122   3.141   6.763   2.832
 5393TIP3    H216123   3.040   6.722   2.936
 5394TIP3   OH216124   3.879   6.857   2.656
 5394TIP3    H116125   3.897   6.823   2.747
 5394TIP3    H216126   3.969   6.852   2.616
 5395TIP3   OH216127   5.077   7.772   0.923
 5395TIP3    H116128   5.052   7.861   0.894
 5395TIP3    H216129   5.009   7.719   0.878
 5396TIP3   OH216130   5.085   7.779   1.298
 5396TIP3    H116131   5.120   7.755   1.386
 5396TIP3    H216132   5.044   7.696   1.269
 5397TIP3   OH216133   4.378   7.673   1.665
 5397TIP3    H116134   4.410   7.605   1.727
 5397TIP3    H216135   4.457   7.727   1.654
 5398TIP3   OH216136   5.303   8.081   0.985
 5398TIP3    H116137   5.310   8.001   1.041
 5398TIP3    H216138   5.360   8.142   1.032
 5399TIP3   OH216139   4.412   8.021   1.468
 5399TIP3    H116140   4.381   7.935   1.433
 5399TIP3    H216141   4.494   8.035   1.415
 5400TIP3   OH216142   4.060   7.281   1.166
 5400TIP3    H116143   4.017   7.366   1.184
 5400TIP3    H216144   3.987   7.233   1.123
 5401TIP3   OH216145   4.115   7.573   1.345
 5401TIP3    H116146   4.165   7.494   1.378
 5401TIP3    H216147   4.186   7.626   1.307
 5402TIP3   OH216148   4.898   7.995   1.338
 5402TIP3    H116149   4.947   7.917   1.305
 5402TIP3    H216150   4.975   8.050   1.365
 5403TIP3   OH216151   5.897   7.326   1.344
 5403TIP3    H116152   5.926   7.409   1.386
 5403TIP3    H216153   5.914   7.346   1.250
 5404TIP3   OH216154   5.293   7.505   1.376
 5404TIP3    H116155   5.337   7.420   1.397
 5404TIP3    H216156   5.264   7.489   1.284
 5405TIP3   OH216157   4.634   7.166   1.340
 5405TIP3    H116158   4.615   7.238   1.277
 5405TIP3    H216159   4.586   7.092   1.296
 5406TIP3   OH216160   5.326   7.260   0.957
 5406TIP3    H116161   5.398   7.243   1.022
 5406TIP3    H216162   5.380   7.287   0.879
 5407TIP3   OH216163   4.265   7.367   1.448
 5407TIP3    H116164   4.348   7.349   1.496
 5407TIP3    H216165   4.280   7.313   1.368
 5408TIP3   OH216166   4.704   7.565   1.246
 5408TIP3    H116167   4.799   7.542   1.256
 5408TIP3    H216168   4.666   7.481   1.212
 5409TIP3   OH216169   5.971   7.537   1.511
 5409TIP3    H116170   5.885   7.580   1.494
 5409TIP3    H216171   5.985   7.562   1.604
 5410TIP3   OH216172   4.629   7.150   1.775
 5410TIP3    H116173   4.569   7.187   1.707
 5410TIP3    H216174   4.577   7.167   1.856
 5411TIP3   OH216175   4.961   7.975   0.744
 5411TIP3    H116176   4.876   7.931   0.734
 5411TIP3    H216177   4.931   8.054   0.791
 5412TIP3   OH216178   4.733   7.930   1.568
 5412TIP3    H116179   4.668   7.996   1.598
 5412TIP3    H216180   4.768   7.974   1.488
 5413TIP3   OH216181   5.530   7.265   1.138
 5413TIP3    H116182   5.518   7.217   1.221
 5413TIP3    H216183   5.583   7.342   1.167
 5414TIP3   OH216184   4.500   7.264   1.559
 5414TIP3    H116185   4.562   7.337   1.582
 5414TIP3    H216186   4.550   7.224   1.484
 5415TIP3   OH216187   4.559   8.145   1.676
 5415TIP3    H116188   4.517   8.137   1.588
 5415TIP3    H216189   4.479   8.139   1.733
 5416TIP3   OH216190   3.958   7.774   0.918
 5416TIP3    H116191   3.922   7.809   0.834
 5416TIP3    H216192   3.979   7.858   0.961
 5417TIP3   OH216193   5.689   7.225   1.508
 5417TIP3    H116194   5.601   7.251   1.476
 5417TIP3    H216195   5.749   7.257   1.438
 5418TIP3   OH216196   4.981   6.865   1.490
 5418TIP3    H116197   4.967   6.770   1.509
 5418TIP3    H216198   4.904   6.904   1.537
 5419TIP3   OH216199   5.615   8.236   1.490
 5419TIP3    H116200   5.604   8.157   1.434
 5419TIP3    H216201   5.646   8.303   1.425
 5420TIP3   OH216202   4.921   7.631   0.740
 5420TIP3    H116203   4.835   7.679   0.733
 5420TIP3    H216204   4.951   7.639   0.649
 5421TIP3   OH216205   5.815   7.870   1.329
 5421TIP3    H116206   5.731   7.922   1.338
 5421TIP3    H216207   5.843   7.899   1.239
 5422TIP3   OH216208   5.261   7.719   0.727
 5422TIP3    H116209   5.208   7.742   0.805
 5422TIP3    H216210   5.345   7.690   0.769
 5423TIP3   OH216211   5.496   7.751   1.633
 5423TIP3    H116212   5.496   7.834   1.684
 5423TIP3    H216213   5.410   7.758   1.588
 5424TIP3   OH216214   4.496   7.710   1.129
 5424TIP3    H116215   4.458   7.650   1.061
 5424TIP3    H216216   4.574   7.659   1.160
 5425TIP3   OH216217   4.635   8.076   1.333
 5425TIP3    H116218   4.596   8.075   1.244
 5425TIP3    H216219   4.731   8.073   1.316
 5426TIP3   OH216220   4.622   7.688   1.486
 5426TIP3    H116221   4.659   7.661   1.400
 5426TIP3    H216222   4.669   7.772   1.504
 5427TIP3   OH216223   4.813   8.143   1.808
 5427TIP3    H116224   4.775   8.231   1.830
 5427TIP3    H216225   4.740   8.108   1.755
 5428TIP3   OH216226   4.525   7.794   1.916
 5428TIP3    H116227   4.530   7.882   1.958
 5428TIP3    H216228   4.431   7.773   1.929
 5429TIP3   OH216229   4.364   7.551   0.935
 5429TIP3    H116230   4.294   7.592   0.880
 5429TIP3    H216231   4.327   7.463   0.951
 5430TIP3   OH216232   4.158   7.938   1.847
 5430TIP3    H116233   4.092   7.916   1.780
 5430TIP3    H216234   4.193   7.851   1.874
 5431TIP3   OH216235   5.751   7.712   1.809
 5431TIP3    H116236   5.666   7.723   1.764
 5431TIP3    H216237   5.766   7.616   1.800
 5432TIP3   OH216238   4.343   8.145   1.854
 5432TIP3    H116239   4.401   8.104   1.922
 5432TIP3    H216240   4.275   8.075   1.842
 5433TIP3   OH216241   4.744   6.943   1.621
 5433TIP3    H116242   4.656   6.914   1.592
 5433TIP3    H216243   4.719   7.024   1.669
 5434TIP3   OH216244   5.281   7.058   1.814
 5434TIP3    H116245   5.350   7.031   1.878
 5434TIP3    H216246   5.198   7.039   1.863
 5435TIP3   OH216247   5.516   7.488   1.732
 5435TIP3    H116248   5.465   7.485   1.817
 5435TIP3    H216249   5.493   7.577   1.697
 5436TIP3   OH216250   4.901   7.003   0.592
 5436TIP3    H116251   4.863   6.985   0.680
 5436TIP3    H216252   4.871   6.924   0.543
 5437TIP3   OH216253   4.675   7.464   1.635
 5437TIP3    H116254   4.628   7.484   1.718
 5437TIP3    H216255   4.658   7.546   1.583
 5438TIP3   OH216256   4.560   7.347   1.152
 5438TIP3    H116257   4.468   7.320   1.171
 5438TIP3    H216258   4.573   7.306   1.064
 5439TIP3   OH216259   5.049   7.434   0.878
 5439TIP3    H116260   4.991   7.502   0.837
 5439TIP3    H216261   5.124   7.435   0.818
 5440TIP3   OH216262   5.230   7.705   1.961
 5440TIP3    H116263   5.208   7.633   2.025
 5440TIP3    H216264   5.323   7.722   1.985
 5441TIP3   OH216265   5.211   7.460   1.117
 5441TIP3    H116266   5.147   7.490   1.050
 5441TIP3    H216267   5.245   7.380   1.071
 5442TIP3   OH216268   4.496   7.488   1.846
 5442TIP3    H116269   4.533   7.550   1.911
 5442TIP3    H216270   4.487   7.406   1.899
 5443TIP3   OH216271   4.524   6.935   0.576
 5443TIP3    H116272   4.525   6.948   0.673
 5443TIP3    H216273   4.502   7.024   0.544
 5444TIP3   OH216274   4.090   7.008   1.431
 5444TIP3    H116275   4.165   7.043   1.483
 5444TIP3    H216276   4.131   6.983   1.347
 5445TIP3   OH216277   4.055   6.990   0.944
 5445TIP3    H116278   4.105   7.024   0.866
 5445TIP3    H216279   3.996   7.065   0.962
 5446TIP3   OH216280   5.216   7.704   1.539
 5446TIP3    H116281   5.250   7.633   1.480
 5446TIP3    H216282   5.187   7.650   1.616
 5447TIP3   OH216283   4.892   7.169   1.212
 5447TIP3    H116284   4.812   7.166   1.268
 5447TIP3    H216285   4.963   7.161   1.279
 5448TIP3   OH216286   4.322   7.225   1.220
 5448TIP3    H116287   4.228   7.231   1.191
 5448TIP3    H216288   4.347   7.133   1.197
 5449TIP3   OH216289   4.589   7.221   0.911
 5449TIP3    H116290   4.685   7.233   0.893
 5449TIP3    H216291   4.546   7.252   0.829
 5450TIP3   OH216292   5.382   7.244   1.416
 5450TIP3    H116293   5.349   7.257   1.508
 5450TIP3    H216294   5.314   7.184   1.381
 5451TIP3   OH216295   4.420   7.270   0.696
 5451TIP3    H116296   4.340   7.225   0.664
 5451TIP3    H216297   4.485   7.246   0.626
 5452TIP3   OH216298   4.511   8.042   2.053
 5452TIP3    H116299   4.591   8.068   2.104
 5452TIP3    H216300   4.448   8.031   2.127
 5453TIP3   OH216301   4.970   7.498   1.309
 5453TIP3    H116302   5.045   7.459   1.261
 5453TIP3    H216303   4.976   7.453   1.396
 5454TIP3   OH216304   4.490   6.984   1.191
 5454TIP3    H116305   4.456   6.906   1.240
 5454TIP3    H216306   4.536   6.943   1.117
 5455TIP3   OH216307   4.947   7.396   1.599
 5455TIP3    H116308   4.857   7.433   1.614
 5455TIP3    H216309   5.004   7.457   1.650
 5456TIP3   OH216310   4.699   7.783   0.704
 5456TIP3    H116311   4.626   7.722   0.685
 5456TIP3    H216312   4.667   7.824   0.788
 5457TIP3   OH216313   5.583   8.014   1.328
 5457TIP3    H116314   5.610   8.063   1.247
 5457TIP3    H216315   5.498   7.973   1.300
 5458TIP3   OH216316   5.094   8.125   1.692
 5458TIP3    H116317   5.128   8.074   1.767
 5458TIP3    H216318   5.010   8.158   1.728
 5459TIP3   OH216319   4.357   7.761   1.361
 5459TIP3    H116320   4.406   7.753   1.276
 5459TIP3    H216321   4.420   7.721   1.423
 5460TIP3   OH216322   4.261   7.721   1.987
 5460TIP3    H116323   4.279   7.705   2.081
 5460TIP3    H216324   4.193   7.655   1.969
 5461TIP3   OH216325   4.991   7.831   2.008
 5461TIP3    H116326   4.929   7.780   1.953
 5461TIP3    H216327   5.077   7.797   1.977
 5462TIP3   OH216328   5.873   8.273   1.580
 5462TIP3    H116329   5.776   8.286   1.569
 5462TIP3    H216330   5.899   8.259   1.486
 5463TIP3   OH216331   5.349   7.888   1.232
 5463TIP3    H116332   5.257   7.863   1.251
 5463TIP3    H216333   5.383   7.804   1.195
 5464TIP3   OH216334   4.052   7.404   0.712
 5464TIP3    H116335   4.095   7.491   0.727
 5464TIP3    H216336   3.971   7.413   0.766
 5465TIP3   OH216337   4.616   7.878   0.942
 5465TIP3    H116338   4.593   7.969   0.964
 5465TIP3    H216339   4.580   7.829   1.018
 5466TIP3   OH216340   5.139   8.087   1.422
 5466TIP3    H116341   5.128   8.098   1.519
 5466TIP3    H216342   5.224   8.043   1.415
 5467TIP3   OH216343   4.469   7.232   1.990
 5467TIP3    H116344   4.372   7.231   2.004
 5467TIP3    H216345   4.499   7.175   2.063
 5468TIP3   OH216346   4.161   7.652   0.781
 5468TIP3    H116347   4.094   7.690   0.842
 5468TIP3    H216348   4.175   7.727   0.719
 5469TIP3   OH216349   5.308   7.295   1.675
 5469TIP3    H116350   5.387   7.335   1.714
 5469TIP3    H216351   5.295   7.215   1.730
 5470TIP3   OH216352   5.175   7.050   0.846
 5470TIP3    H116353   5.147   7.082   0.759
 5470TIP3    H216354   5.228   7.126   0.879
 5471TIP3   OH216355   4.869   7.229   0.942
 5471TIP3    H116356   4.935   7.299   0.924
 5471TIP3    H216357   4.878   7.219   1.040
 5472TIP3   OH216358   5.144   7.543   1.747
 5472TIP3    H116359   5.171   7.596   1.826
 5472TIP3    H216360   5.198   7.463   1.758
 5473TIP3   OH216361   5.016   6.948   1.043
 5473TIP3    H116362   5.013   7.025   1.103
 5473TIP3    H216363   5.076   6.983   0.973
 5474TIP3   OH216364   4.529   6.957   0.850
 5474TIP3    H116365   4.533   7.049   0.883
 5474TIP3    H216366   4.625   6.935   0.850
 5475TIP3   OH216367   5.782   7.445   1.727
 5475TIP3    H116368   5.685   7.445   1.737
 5475TIP3    H216369   5.790   7.397   1.643
 5476TIP3   OH216370   5.437   7.644   1.126
 5476TIP3    H116371   5.361   7.582   1.130
 5476TIP3    H216372   5.508   7.593   1.171
 5477TIP3   OH216373   4.157   7.870   0.601
 5477TIP3    H116374   4.177   7.963   0.622
 5477TIP3    H216375   4.157   7.875   0.505
 5478TIP3   OH216376   4.097   7.138   0.713
 5478TIP3    H116377   4.095   7.235   0.721
 5478TIP3    H216378   4.008   7.120   0.680
 5479TIP3   OH216379   4.478   6.865   1.593
 5479TIP3    H116380   4.450   6.829   1.506
 5479TIP3    H216381   4.469   6.786   1.651
 5480TIP3   OH216382   4.307   8.010   2.234
 5480TIP3    H116383   4.330   7.915   2.240
 5480TIP3    H216384   4.219   8.007   2.191
 5481TIP3   OH216385   4.928   8.094   2.050
 5481TIP3    H116386   4.895   8.108   1.958
 5481TIP3    H216387   4.964   8.004   2.042
 5482TIP3   OH216388   5.403   8.118   1.624
 5482TIP3    H116389   5.473   8.173   1.581
 5482TIP3    H216390   5.328   8.179   1.618
 5483TIP3   OH216391   4.431   7.760   2.230
 5483TIP3    H116392   4.510   7.712   2.203
 5483TIP3    H216393   4.458   7.795   2.318
 5484TIP3   OH216394   4.508   7.581   0.675
 5484TIP3    H116395   4.462   7.553   0.756
 5484TIP3    H216396   4.532   7.497   0.635
 5485TIP3   OH216397   4.757   7.646   1.885
 5485TIP3    H116398   4.683   7.709   1.889
 5485TIP3    H216399   4.811   7.683   1.812
 5486TIP3   OH216400   5.283   8.043   2.022
 5486TIP3    H116401   5.366   8.021   1.978
 5486TIP3    H216402   5.281   7.980   2.096
 5487TIP3   OH216403   4.883   7.440   2.015
 5487TIP3    H116404   4.886   7.361   1.958
 5487TIP3    H216405   4.840   7.506   1.957
 5488TIP3   OH216406   4.887   7.227   1.824
 5488TIP3    H116407   4.916   7.267   1.740
 5488TIP3    H216408   4.794   7.203   1.805
 5489TIP3   OH216409   4.908   7.763   1.698
 5489TIP3    H116410   4.993   7.771   1.651
 5489TIP3    H216411   4.854   7.830   1.651
 5490TIP3   OH216412   5.492   7.727   2.074
 5490TIP3    H116413   5.543   7.647   2.092
 5490TIP3    H216414   5.561   7.789   2.045
 5491TIP3   OH216415   5.537   7.977   1.811
 5491TIP3    H116416   5.479   8.031   1.752
 5491TIP3    H216417   5.625   7.999   1.772
 5492TIP3   OH216418   4.760   7.548   2.247
 5492TIP3    H116419   4.694   7.477   2.263
 5492TIP3    H216420   4.796   7.522   2.160
 5493TIP3   OH216421   5.019   6.987   1.892
 5493TIP3    H116422   4.969   7.069   1.870
 5493TIP3    H216423   4.950   6.919   1.881
 5494TIP3   OH216424   5.146   7.491   2.107
 5494TIP3    H116425   5.134   7.476   2.203
 5494TIP3    H216426   5.055   7.467   2.077
 5495TIP3   OH216427   5.382   7.439   1.961
 5495TIP3    H116428   5.309   7.442   2.025
 5495TIP3    H216429   5.458   7.411   2.017
 5496TIP3   OH216430   5.611   7.382   2.109
 5496TIP3    H116431   5.625   7.287   2.127
 5496TIP3    H216432   5.606   7.421   2.199
 5497TIP3   OH216433   4.601   7.327   2.303
 5497TIP3    H116434   4.606   7.235   2.270
 5497TIP3    H216435   4.640   7.316   2.392
 5498TIP3   OH216436   5.112   6.998   2.150
 5498TIP3    H116437   5.178   6.926   2.144
 5498TIP3    H216438   5.073   6.992   2.061
 5499TIP3   OH216439   5.179   7.213   2.309
 5499TIP3    H116440   5.158   7.141   2.245
 5499TIP3    H216441   5.100   7.270   2.302
 5500TIP3   OH216442   3.879   7.792   0.600
 5500TIP3    H116443   3.974   7.814   0.603
 5500TIP3    H216444   3.879   7.695   0.584
 5501TIP3   OH216445   5.759   8.407   1.853
 5501TIP3    H116446   5.687   8.389   1.917
 5501TIP3    H216447   5.813   8.471   1.902
 5502TIP3   OH216448   5.718   8.146   1.133
 5502TIP3    H116449   5.781   8.091   1.083
 5502TIP3    H216450   5.718   8.230   1.085
 5503TIP3   OH216451   5.472   7.611   0.855
 5503TIP3    H116452   5.502   7.519   0.852
 5503TIP3    H216453   5.474   7.631   0.951
 5504TIP3   OH216454   4.115   7.700   1.597
 5504TIP3    H116455   4.113   7.664   1.506
 5504TIP3    H216456   4.212   7.700   1.614
 5505TIP3   OH216457   5.780   8.042   1.707
 5505TIP3    H116458   5.854   7.979   1.698
 5505TIP3    H216459   5.809   8.116   1.649
 5506TIP3   OH216460   5.968   7.847   1.720
 5506TIP3    H116461   5.892   7.799   1.760
 5506TIP3    H216462   6.039   7.781   1.736
 5507TIP3   OH216463   5.478   7.324   0.732
 5507TIP3    H116464   5.520   7.236   0.751
 5507TIP3    H216465   5.551   7.369   0.687
 5508TIP3   OH216466   5.647   7.505   1.240
 5508TIP3    H116467   5.733   7.531   1.199
 5508TIP3    H216468   5.661   7.543   1.329
 5509TIP3   OH216469   5.718   7.652   1.469
 5509TIP3    H116470   5.642   7.686   1.520
 5509TIP3    H216471   5.749   7.733   1.423
 5510TIP3   OH216472   4.335   7.378   2.267
 5510TIP3    H116473   4.433   7.374   2.273
 5510TIP3    H216474   4.311   7.292   2.307
 5511TIP3   OH216475   6.168   7.246   2.024
 5511TIP3    H116476   6.230   7.183   1.982
 5511TIP3    H216477   6.139   7.300   1.947
 5512TIP3   OH216478   5.581   7.086   0.792
 5512TIP3    H116479   5.639   7.065   0.868
 5512TIP3    H216480   5.529   7.003   0.785
 5513TIP3   OH216481   4.295   7.074   1.606
 5513TIP3    H116482   4.356   6.998   1.612
 5513TIP3    H216483   4.358   7.147   1.594
 5514TIP3   OH216484   4.094   7.346   1.670
 5514TIP3    H116485   4.146   7.342   1.588
 5514TIP3    H216486   4.128   7.427   1.710
 5515TIP3   OH216487   6.039   7.384   1.829
 5515TIP3    H116488   5.956   7.427   1.856
 5515TIP3    H216489   6.003   7.313   1.773
 5516TIP3   OH216490   4.082   6.851   1.174
 5516TIP3    H116491   3.989   6.847   1.200
 5516TIP3    H216492   4.079   6.909   1.095
 5517TIP3   OH216493   4.304   6.933   1.990
 5517TIP3    H116494   4.252   6.925   2.071
 5517TIP3    H216495   4.236   6.967   1.928
 5518TIP3   OH216496   5.939   7.147   1.709
 5518TIP3    H116497   5.848   7.138   1.675
 5518TIP3    H216498   5.972   7.054   1.700
 5519TIP3   OH216499   5.142   7.061   1.327
 5519TIP3    H116500   5.101   6.990   1.380
 5519TIP3    H216501   5.218   7.016   1.285
 5520TIP3   OH216502   5.663   6.947   1.238
 5520TIP3    H116503   5.698   6.998   1.162
 5520TIP3    H216504   5.567   6.963   1.230
 5521TIP3   OH216505   5.759   7.045   1.004
 5521TIP3    H116506   5.833   6.993   0.964
 5521TIP3    H216507   5.789   7.136   0.982
 5522TIP3   OH216508   4.391   6.770   1.345
 5522TIP3    H116509   4.299   6.738   1.348
 5522TIP3    H216510   4.440   6.685   1.341
 5523TIP3   OH216511   4.181   6.642   0.995
 5523TIP3    H116512   4.212   6.697   0.921
 5523TIP3    H216513   4.155   6.710   1.060
 5524TIP3   OH216514   4.837   6.803   1.229
 5524TIP3    H116515   4.892   6.849   1.163
 5524TIP3    H216516   4.869   6.841   1.312
 5525TIP3   OH216517   5.379   6.951   1.208
 5525TIP3    H116518   5.384   6.913   1.119
 5525TIP3    H216519   5.368   6.870   1.264
 5526TIP3   OH216520   5.413   6.876   0.813
 5526TIP3    H116521   5.322   6.907   0.799
 5526TIP3    H216522   5.399   6.784   0.846
 5527TIP3   OH216523   4.296   6.799   0.761
 5527TIP3    H116524   4.343   6.739   0.700
 5527TIP3    H216525   4.370   6.852   0.796
 5528TIP3   OH216526   4.806   6.976   0.856
 5528TIP3    H116527   4.868   6.929   0.914
 5528TIP3    H216528   4.830   7.069   0.879
 5529TIP3   OH216529   4.599   7.051   2.236
 5529TIP3    H116530   4.564   6.980   2.293
 5529TIP3    H216531   4.693   7.051   2.264
 5530TIP3   OH216532   4.849   7.050   2.355
 5530TIP3    H116533   4.935   7.024   2.317
 5530TIP3    H216534   4.837   6.980   2.423
 5531TIP3   OH216535   5.676   7.112   2.143
 5531TIP3    H116536   5.694   7.081   2.234
 5531TIP3    H216537   5.766   7.107   2.103
 5532TIP3   OH216538   6.173   7.925   1.139
 5532TIP3    H116539   6.226   7.889   1.211
 5532TIP3    H216540   6.242   7.956   1.075
 5533TIP3   OH216541   6.053   7.622   0.947
 5533TIP3    H116542   6.143   7.597   0.974
 5533TIP3    H216543   6.041   7.576   0.864
 5534TIP3   OH216544   6.413   7.402   1.269
 5534TIP3    H116545   6.355   7.440   1.200
 5534TIP3    H216546   6.358   7.419   1.349
 5535TIP3   OH216547   6.301   7.512   1.033
 5535TIP3    H116548   6.353   7.591   1.063
 5535TIP3    H216549   6.362   7.476   0.967
 5536TIP3   OH216550   6.777   7.125   0.992
 5536TIP3    H116551   6.760   7.030   0.998
 5536TIP3    H216552   6.692   7.161   1.026
 5537TIP3   OH216553   6.284   8.046   1.408
 5537TIP3    H116554   6.274   8.142   1.417
 5537TIP3    H216555   6.192   8.018   1.429
 5538TIP3   OH216556   5.942   8.188   1.334
 5538TIP3    H116557   5.874   8.170   1.268
 5538TIP3    H216558   5.975   8.100   1.360
 5539TIP3   OH216559   6.533   7.207   1.111
 5539TIP3    H116560   6.446   7.171   1.083
 5539TIP3    H216561   6.502   7.279   1.169
 5540TIP3   OH216562   7.050   7.277   1.334
 5540TIP3    H116563   7.078   7.320   1.415
 5540TIP3    H216564   6.954   7.268   1.348
 5541TIP3   OH216565   6.459   7.713   1.124
 5541TIP3    H116566   6.410   7.743   1.204
 5541TIP3    H216567   6.487   7.797   1.084
 5542TIP3   OH216568   6.314   7.752   1.350
 5542TIP3    H116569   6.291   7.822   1.413
 5542TIP3    H216570   6.289   7.671   1.399
 5543TIP3   OH216571   5.889   7.266   0.916
 5543TIP3    H116572   5.958   7.296   0.978
 5543TIP3    H216573   5.936   7.256   0.833
 5544TIP3   OH216574   6.036   7.966   1.479
 5544TIP3    H116575   6.044   7.948   1.575
 5544TIP3    H216576   5.961   7.909   1.455
 5545TIP3   OH216577   6.261   7.487   1.481
 5545TIP3    H116578   6.165   7.491   1.494
 5545TIP3    H216579   6.289   7.433   1.556
 5546TIP3   OH216580   6.275   7.124   1.087
 5546TIP3    H116581   6.241   7.091   1.001
 5546TIP3    H216582   6.265   7.044   1.143
 5547TIP3   OH216583   6.113   8.270   1.707
 5547TIP3    H116584   6.145   8.178   1.701
 5547TIP3    H216585   6.024   8.262   1.667
 5548TIP3   OH216586   6.230   8.020   1.714
 5548TIP3    H116587   6.300   7.955   1.703
 5548TIP3    H216588   6.247   8.051   1.805
 5549TIP3   OH216589   6.652   7.711   1.498
 5549TIP3    H116590   6.684   7.623   1.472
 5549TIP3    H216591   6.590   7.734   1.429
 5550TIP3   OH216592   6.661   7.504   1.283
 5550TIP3    H116593   6.637   7.542   1.197
 5550TIP3    H216594   6.575   7.463   1.306
 5551TIP3   OH216595   6.558   7.799   1.742
 5551TIP3    H116596   6.489   7.731   1.756
 5551TIP3    H216597   6.593   7.775   1.653
 5552TIP3   OH216598   6.783   7.250   1.385
 5552TIP3    H116599   6.728   7.324   1.354
 5552TIP3    H216600   6.723   7.173   1.373
 5553TIP3   OH216601   6.397   7.581   1.787
 5553TIP3    H116602   6.401   7.488   1.756
 5553TIP3    H216603   6.431   7.570   1.878
 5554TIP3   OH216604   6.908   7.246   1.631
 5554TIP3    H116605   6.977   7.179   1.620
 5554TIP3    H216606   6.857   7.237   1.548
 5555TIP3   OH216607   6.974   7.451   1.802
 5555TIP3    H116608   6.951   7.387   1.731
 5555TIP3    H216609   6.905   7.520   1.791
 5556TIP3   OH216610   5.913   7.951   1.078
 5556TIP3    H116611   5.921   7.903   0.995
 5556TIP3    H216612   6.007   7.952   1.106
 5557TIP3   OH216613   6.132   7.634   1.754
 5557TIP3    H116614   6.230   7.630   1.762
 5557TIP3    H216615   6.108   7.548   1.794
 5558TIP3   OH216616   6.091   7.330   1.089
 5558TIP3    H116617   6.151   7.253   1.100
 5558TIP3    H216618   6.155   7.402   1.079
 5559TIP3   OH216619   5.892   7.602   1.168
 5559TIP3    H116620   5.944   7.605   1.085
 5559TIP3    H216621   5.916   7.686   1.209
 5560TIP3   OH216622   6.098   7.185   1.474
 5560TIP3    H116623   6.048   7.181   1.557
 5560TIP3    H216624   6.031   7.224   1.415
 5561TIP3   OH216625   6.180   7.029   0.852
 5561TIP3    H116626   6.088   6.995   0.849
 5561TIP3    H216627   6.230   6.948   0.831
 5562TIP3   OH216628   6.395   7.308   1.719
 5562TIP3    H116629   6.357   7.239   1.777
 5562TIP3    H216630   6.489   7.306   1.749
 5563TIP3   OH216631   6.642   7.302   1.840
 5563TIP3    H116632   6.733   7.288   1.809
 5563TIP3    H216633   6.633   7.231   1.907
 5564TIP3   OH216634   1.846   0.499   5.750
 5564TIP3    H116635   1.812   0.449   5.825
 5564TIP3    H216636   1.866   0.585   5.791
 5565TIP3   OH216637   1.483   0.949   5.759
 5565TIP3    H116638   1.551   0.887   5.725
 5565TIP3    H216639   1.478   0.927   5.852
 5566TIP3   OH216640   2.436  -0.061   6.301
 5566TIP3    H116641   2.362  -0.002   6.276
 5566TIP3    H216642   2.497  -0.001   6.346
 5567TIP3   OH216643   1.528   0.435   5.520
 5567TIP3    H116644   1.445   0.391   5.499
 5567TIP3    H216645   1.494   0.512   5.567
 5568TIP3   OH216646   1.903   0.743   5.910
 5568TIP3    H116647   1.810   0.740   5.942
 5568TIP3    H216648   1.901   0.828   5.861
 5569TIP3   OH216649   1.660   0.791   5.627
 5569TIP3    H116650   1.690   0.709   5.584
 5569TIP3    H216651   1.692   0.856   5.562
 5570TIP3   OH216652   1.764   0.573   5.491
 5570TIP3    H116653   1.691   0.511   5.473
 5570TIP3    H216654   1.803   0.533   5.571
 5571TIP3   OH216655   2.131   0.652   6.256
 5571TIP3    H116656   2.118   0.578   6.194
 5571TIP3    H216657   2.109   0.730   6.199
 5572TIP3   OH216658   2.337   0.316   6.099
 5572TIP3    H116659   2.246   0.354   6.098
 5572TIP3    H216660   2.365   0.328   6.006
 5573TIP3   OH216661   1.764   0.153   5.491
 5573TIP3    H116662   1.706   0.157   5.567
 5573TIP3    H216663   1.843   0.109   5.525
 5574TIP3   OH216664   1.655   0.755   6.015
 5574TIP3    H116665   1.642   0.840   6.061
 5574TIP3    H216666   1.641   0.689   6.084
 5575TIP3   OH216667   1.392   0.730   5.523
 5575TIP3    H116668   1.430   0.763   5.605
 5575TIP3    H216669   1.299   0.717   5.546
 5576TIP3   OH216670   1.927   0.595   4.908
 5576TIP3    H116671   1.939   0.692   4.896
 5576TIP3    H216672   2.020   0.564   4.897
 5577TIP3   OH216673   2.369   1.003   6.309
 5577TIP3    H116674   2.367   0.907   6.327
 5577TIP3    H216675   2.285   1.030   6.351
 5578TIP3   OH216676   1.504   0.816   6.398
 5578TIP3    H116677   1.495   0.900   6.448
 5578TIP3    H216678   1.427   0.766   6.433
 5579TIP3   OH216679   1.217   0.925   5.374
 5579TIP3    H116680   1.170   0.928   5.290
 5579TIP3    H216681   1.196   1.012   5.414
 5580TIP3   OH216682   1.466   0.837   5.020
 5580TIP3    H116683   1.494   0.746   5.001
 5580TIP3    H216684   1.472   0.839   5.120
 5581TIP3   OH216685   1.473   0.863   5.288
 5581TIP3    H116686   1.387   0.871   5.335
 5581TIP3    H216687   1.520   0.811   5.356
 5582TIP3   OH216688   2.258   0.120   6.571
 5582TIP3    H116689   2.176   0.171   6.578
 5582TIP3    H216690   2.226   0.029   6.572
 5583TIP3   OH216691   1.669   0.054   5.046
 5583TIP3    H116692   1.651   0.006   4.964
 5583TIP3    H216693   1.760   0.084   5.032
 5584TIP3   OH216694   2.062   1.349   6.404
 5584TIP3    H116695   2.058   1.377   6.310
 5584TIP3    H216696   2.139   1.399   6.436
 5585TIP3   OH216697   2.092   0.442   6.081
 5585TIP3    H116698   2.125   0.495   6.005
 5585TIP3    H216699   2.009   0.404   6.044
 5586TIP3   OH216700   1.387   0.411   5.216
 5586TIP3    H116701   1.325   0.482   5.242
 5586TIP3    H216702   1.377   0.349   5.291
 5587TIP3   OH216703   1.771   0.776   6.376
 5587TIP3    H116704   1.674   0.790   6.371
 5587TIP3    H216705   1.793   0.837   6.449
 5588TIP3   OH216706   2.171  -0.138   5.253
 5588TIP3    H116707   2.107  -0.195   5.204
 5588TIP3    H216708   2.148  -0.051   5.213
 5589TIP3   OH216709   2.383   0.715   6.340
 5589TIP3    H116710   2.285   0.707   6.337
 5589TIP3    H216711   2.406   0.678   6.252
 5590TIP3   OH216712   1.854   0.671   5.174
 5590TIP3    H116713   1.829   0.604   5.241
 5590TIP3    H216714   1.872   0.617   5.095
 5591TIP3   OH216715   1.869   0.295   5.998
 5591TIP3    H116716   1.779   0.285   6.035
 5591TIP3    H216717   1.873   0.224   5.933
 5592TIP3   OH216718   1.273   0.887   6.242
 5592TIP3    H116719   1.300   0.959   6.183
 5592TIP3    H216720   1.353   0.875   6.296
 5593TIP3   OH216721   1.689   0.537   6.200
 5593TIP3    H116722   1.651   0.563   6.285
 5593TIP3    H216723   1.783   0.546   6.218
 5594TIP3   OH216724   1.617   0.414   5.070
 5594TIP3    H116725   1.675   0.376   5.140
 5594TIP3    H216726   1.532   0.411   5.119
 5595TIP3   OH216727   1.889   1.037   6.238
 5595TIP3    H116728   1.805   0.989   6.225
 5595TIP3    H216729   1.881   1.105   6.168
 5596TIP3   OH216730   1.957   0.876   4.899
 5596TIP3    H116731   2.004   0.941   4.843
 5596TIP3    H216732   1.872   0.923   4.907
 5597TIP3   OH216733   1.780   0.330   5.271
 5597TIP3    H116734   1.759   0.270   5.346
 5597TIP3    H216735   1.878   0.325   5.272
 5598TIP3   OH216736   1.195   0.598   5.280
 5598TIP3    H116737   1.138   0.594   5.358
 5598TIP3    H216738   1.206   0.693   5.268
 5599TIP3   OH216739   1.915   1.011   5.834
 5599TIP3    H116740   1.870   1.055   5.759
 5599TIP3    H216741   2.009   1.032   5.812
 5600TIP3   OH216742   1.149   0.563   4.998
 5600TIP3    H116743   1.157   0.528   5.089
 5600TIP3    H216744   1.223   0.517   4.953
 5601TIP3   OH216745   1.808   0.910   6.621
 5601TIP3    H116746   1.846   0.837   6.672
 5601TIP3    H216747   1.878   0.978   6.631
 5602TIP3   OH216748   1.588   0.627   4.896
 5602TIP3    H116749   1.626   0.559   4.956
 5602TIP3    H216750   1.645   0.618   4.816
 5603TIP3   OH216751   1.918   0.550   6.399
 5603TIP3    H116752   2.003   0.582   6.361
 5603TIP3    H216753   1.867   0.634   6.398
 5604TIP3   OH216754   1.919   0.126   4.932
 5604TIP3    H116755   1.903   0.085   4.845
 5604TIP3    H216756   1.883   0.215   4.914
 5605TIP3   OH216757   2.081   0.380   6.563
 5605TIP3    H116758   2.021   0.435   6.507
 5605TIP3    H216759   2.167   0.407   6.525
 5606TIP3   OH216760   0.919   0.875   5.155
 5606TIP3    H116761   1.014   0.858   5.142
 5606TIP3    H216762   0.899   0.924   5.074
 5607TIP3   OH216763   2.171   1.095   5.795
 5607TIP3    H116764   2.191   1.135   5.882
 5607TIP3    H216765   2.225   1.148   5.735
 5608TIP3   OH216766   2.191   1.124   6.077
 5608TIP3    H116767   2.151   1.034   6.073
 5608TIP3    H216768   2.268   1.105   6.132
 5609TIP3   OH216769   2.240   0.798   6.647
 5609TIP3    H116770   2.169   0.806   6.714
 5609TIP3    H216771   2.282   0.886   6.653
 5610TIP3   OH216772   2.059   0.317   5.263
 5610TIP3    H116773   2.127   0.381   5.234
 5610TIP3    H216774   2.101   0.279   5.343
 5611TIP3   OH216775   2.177   0.184   5.469
 5611TIP3    H116776   2.110   0.145   5.528
 5611TIP3    H216777   2.244   0.220   5.531
 5612TIP3   OH216778   2.249   0.578   5.902
 5612TIP3    H116779   2.290   0.520   5.836
 5612TIP3    H216780   2.238   0.660   5.850
 5613TIP3   OH216781   2.067   0.871   6.100
 5613TIP3    H116782   1.998   0.920   6.150
 5613TIP3    H216783   2.015   0.831   6.028
 5614TIP3   OH216784   2.117   0.093   5.115
 5614TIP3    H116785   2.046   0.097   5.046
 5614TIP3    H216786   2.089   0.169   5.170
 5615TIP3   OH216787   1.998  -0.248   5.063
 5615TIP3    H116788   1.952  -0.179   5.014
 5615TIP3    H216789   1.946  -0.326   5.041
 5616TIP3   OH216790   1.997   0.037   5.627
 5616TIP3    H116791   2.019  -0.053   5.599
 5616TIP3    H216792   2.012   0.033   5.723
 5617TIP3   OH216793   2.311   0.471   6.457
 5617TIP3    H116794   2.382   0.402   6.454
 5617TIP3    H216795   2.349   0.544   6.406
 5618TIP3   OH216796   2.479   0.269   6.499
 5618TIP3    H116797   2.403   0.213   6.528
 5618TIP3    H216798   2.551   0.204   6.509
 5619TIP3   OH216799   2.143  -0.060   6.013
 5619TIP3    H116800   2.228  -0.042   5.967
 5619TIP3    H216801   2.162  -0.016   6.098
 5620TIP3   OH216802   2.209   0.092   6.235
 5620TIP3    H116803   2.127   0.128   6.274
 5620TIP3    H216804   2.255   0.173   6.206
 5621TIP3   OH216805   1.740   0.975   5.443
 5621TIP3    H116806   1.797   0.965   5.364
 5621TIP3    H216807   1.789   1.040   5.495
 5622TIP3   OH216808   1.475   1.059   6.525
 5622TIP3    H116809   1.512   1.052   6.615
 5622TIP3    H216810   1.542   1.114   6.479
 5623TIP3   OH216811   1.659   1.203   6.384
 5623TIP3    H116812   1.731   1.159   6.337
 5623TIP3    H216813   1.710   1.263   6.444
 5624TIP3   OH216814   1.373   1.074   6.057
 5624TIP3    H116815   1.297   1.090   5.998
 5624TIP3    H216816   1.386   1.163   6.095
 5625TIP3   OH216817   1.638   1.012   6.114
 5625TIP3    H116818   1.543   1.031   6.100
 5625TIP3    H216819   1.679   1.091   6.074
 5626TIP3   OH216820   1.843   1.201   6.027
 5626TIP3    H116821   1.828   1.286   5.981
 5626TIP3    H216822   1.868   1.142   5.953
 5627TIP3   OH216823   1.184   0.823   5.103
 5627TIP3    H116824   1.273   0.841   5.068
 5627TIP3    H216825   1.164   0.738   5.060
 5628TIP3   OH216826   1.890   0.936   5.213
 5628TIP3    H116827   1.885   0.838   5.211
 5628TIP3    H216828   1.857   0.956   5.124
 5629TIP3   OH216829   2.120   1.080   6.399
 5629TIP3    H116830   2.040   1.052   6.350
 5629TIP3    H216831   2.102   1.176   6.408
 5630TIP3   OH216832   3.385   0.449   5.173
 5630TIP3    H116833   3.357   0.541   5.152
 5630TIP3    H216834   3.311   0.401   5.131
 5631TIP3   OH216835   3.385   0.457   5.554
 5631TIP3    H116836   3.417   0.430   5.642
 5631TIP3    H216837   3.349   0.374   5.519
 5632TIP3   OH216838   3.632   0.755   5.236
 5632TIP3    H116839   3.618   0.689   5.305
 5632TIP3    H216840   3.663   0.832   5.287
 5633TIP3   OH216841   2.661   0.753   5.640
 5633TIP3    H116842   2.656   0.656   5.648
 5633TIP3    H216843   2.757   0.765   5.625
 5634TIP3   OH216844   2.345  -0.033   5.444
 5634TIP3    H116845   2.293   0.049   5.442
 5634TIP3    H216846   2.292  -0.089   5.384
 5635TIP3   OH216847   2.409   0.252   5.597
 5635TIP3    H116848   2.454   0.168   5.623
 5635TIP3    H216849   2.468   0.285   5.528
 5636TIP3   OH216850   3.283   1.219   5.252
 5636TIP3    H116851   3.323   1.149   5.196
 5636TIP3    H216852   3.278   1.175   5.338
 5637TIP3   OH216853   3.183   0.675   5.606
 5637TIP3    H116854   3.226   0.601   5.559
 5637TIP3    H216855   3.265   0.725   5.629
 5638TIP3   OH216856   3.599   0.179   5.647
 5638TIP3    H116857   3.628   0.090   5.671
 5638TIP3    H216858   3.564   0.168   5.557
 5639TIP3   OH216859   2.910  -0.194   5.582
 5639TIP3    H116860   2.889  -0.111   5.534
 5639TIP3    H216861   2.843  -0.254   5.549
 5640TIP3   OH216862   3.591  -0.046   5.270
 5640TIP3    H116863   3.650  -0.092   5.334
 5640TIP3    H216864   3.648  -0.046   5.192
 5641TIP3   OH216865   2.545   0.038   5.693
 5641TIP3    H116866   2.638   0.043   5.728
 5641TIP3    H216867   2.559  -0.022   5.618
 5642TIP3   OH216868   3.002   0.240   5.510
 5642TIP3    H116869   3.097   0.216   5.519
 5642TIP3    H216870   2.965   0.155   5.478
 5643TIP3   OH216871   4.232   0.191   5.803
 5643TIP3    H116872   4.160   0.244   5.763
 5643TIP3    H216873   4.296   0.257   5.829
 5644TIP3   OH216874   3.270   0.669   5.043
 5644TIP3    H116875   3.238   0.661   4.951
 5644TIP3    H216876   3.229   0.754   5.069
 5645TIP3   OH216877   3.039   0.593   5.826
 5645TIP3    H116878   2.981   0.666   5.856
 5645TIP3    H216879   3.086   0.636   5.750
 5646TIP3   OH216880   2.801   0.015   5.774
 5646TIP3    H116881   2.887   0.043   5.809
 5646TIP3    H216882   2.818  -0.079   5.757
 5647TIP3   OH216883   2.868   0.794   5.924
 5647TIP3    H116884   2.846   0.881   5.883
 5647TIP3    H216885   2.787   0.781   5.977
 5648TIP3   OH216886   2.260   0.484   5.159
 5648TIP3    H116887   2.220   0.511   5.074
 5648TIP3    H216888   2.291   0.570   5.195
 5649TIP3   OH216889   3.699   1.000   5.399
 5649TIP3    H116890   3.609   0.992   5.437
 5649TIP3    H216891   3.692   1.086   5.353
 5650TIP3   OH216892   3.397   1.045   5.069
 5650TIP3    H116893   3.446   0.961   5.050
 5650TIP3    H216894   3.462   1.109   5.031
 5651TIP3   OH216895   3.538   0.827   4.986
 5651TIP3    H116896   3.519   0.746   4.937
 5651TIP3    H216897   3.577   0.792   5.069
 5652TIP3   OH216898   3.925   0.908   5.745
 5652TIP3    H116899   3.914   0.833   5.683
 5652TIP3    H216900   3.907   0.985   5.686
 5653TIP3   OH216901   3.218   0.311   4.999
 5653TIP3    H116902   3.138   0.363   4.979
 5653TIP3    H216903   3.261   0.305   4.912
 5654TIP3   OH216904   3.174   0.089   4.718
 5654TIP3    H116905   3.245   0.141   4.759
 5654TIP3    H216906   3.226   0.021   4.670
 5655TIP3   OH216907   4.122   0.554   5.591
 5655TIP3    H116908   4.038   0.604   5.593
 5655TIP3    H216909   4.153   0.574   5.500
 5656TIP3   OH216910   3.563   0.387   4.971
 5656TIP3    H116911   3.510   0.411   5.051
 5656TIP3    H216912   3.649   0.367   5.013
 5657TIP3   OH216913   3.799   0.427   5.892
 5657TIP3    H116914   3.794   0.510   5.944
 5657TIP3    H216915   3.713   0.431   5.844
 5658TIP3   OH216916   2.791   0.387   5.396
 5658TIP3    H116917   2.751   0.329   5.327
 5658TIP3    H216918   2.869   0.334   5.424
 5659TIP3   OH216919   2.922   0.786   5.541
 5659TIP3    H116920   2.907   0.763   5.448
 5659TIP3    H216921   3.013   0.753   5.557
 5660TIP3   OH216922   2.923   0.353   5.749
 5660TIP3    H116923   2.957   0.322   5.661
 5660TIP3    H216924   2.969   0.438   5.762
 5661TIP3   OH216925   3.458   0.994   5.521
 5661TIP3    H116926   3.445   1.076   5.573
 5661TIP3    H216927   3.442   0.923   5.586
 5662TIP3   OH216928   3.074   0.910   6.071
 5662TIP3    H116929   3.013   0.973   6.116
 5662TIP3    H216930   3.009   0.859   6.018
 5663TIP3   OH216931   3.403   0.245   4.797
 5663TIP3    H116932   3.461   0.307   4.847
 5663TIP3    H216933   3.431   0.264   4.704
 5664TIP3   OH216934   3.149   0.925   5.077
 5664TIP3    H116935   3.233   0.975   5.082
 5664TIP3    H216936   3.091   0.988   5.032
 5665TIP3   OH216937   2.867   1.076   6.155
 5665TIP3    H116938   2.831   1.084   6.065
 5665TIP3    H216939   2.786   1.056   6.208
 5666TIP3   OH216940   2.660   0.228   5.201
 5666TIP3    H116941   2.596   0.274   5.142
 5666TIP3    H216942   2.626   0.138   5.200
 5667TIP3   OH216943   3.715   0.844   4.407
 5667TIP3    H116944   3.685   0.927   4.360
 5667TIP3    H216945   3.808   0.836   4.380
 5668TIP3   OH216946   2.438   0.581   6.111
 5668TIP3    H116947   2.382   0.602   6.033
 5668TIP3    H216948   2.414   0.487   6.122
 5669TIP3   OH216949   2.300   0.805   5.744
 5669TIP3    H116950   2.395   0.811   5.728
 5669TIP3    H216951   2.282   0.890   5.788
 5670TIP3   OH216952   4.164   1.259   5.794
 5670TIP3    H116953   4.162   1.162   5.807
 5670TIP3    H216954   4.080   1.285   5.838
 5671TIP3   OH216955   3.269   1.040   5.926
 5671TIP3    H116956   3.267   1.133   5.957
 5671TIP3    H216957   3.199   1.000   5.981
 5672TIP3   OH216958   3.031   1.164   4.878
 5672TIP3    H116959   2.984   1.156   4.793
 5672TIP3    H216960   3.005   1.254   4.907
 5673TIP3   OH216961   2.467   1.019   5.263
 5673TIP3    H116962   2.518   1.011   5.347
 5673TIP3    H216963   2.410   0.941   5.269
 5674TIP3   OH216964   3.221   1.069   4.521
 5674TIP3    H116965   3.280   1.011   4.469
 5674TIP3    H216966   3.271   1.079   4.604
 5675TIP3   OH216967   3.286   1.121   4.789
 5675TIP3    H116968   3.196   1.130   4.828
 5675TIP3    H216969   3.336   1.085   4.864
 5676TIP3   OH216970   4.050   0.372   6.071
 5676TIP3    H116971   3.975   0.403   6.018
 5676TIP3    H216972   4.048   0.276   6.052
 5677TIP3   OH216973   2.647   0.781   6.086
 5677TIP3    H116974   2.698   0.779   6.170
 5677TIP3    H216975   2.575   0.718   6.105
 5678TIP3   OH216976   3.810   0.167   6.009
 5678TIP3    H116977   3.803   0.203   6.097
 5678TIP3    H216978   3.804   0.245   5.951
 5679TIP3   OH216979   3.484   0.282   4.543
 5679TIP3    H116980   3.446   0.264   4.454
 5679TIP3    H216981   3.561   0.335   4.518
 5680TIP3   OH216982   3.018   0.148   5.904
 5680TIP3    H116983   2.954   0.161   5.974
 5680TIP3    H216984   2.991   0.217   5.839
 5681TIP3   OH216985   2.863   0.019   5.416
 5681TIP3    H116986   2.767   0.003   5.421
 5681TIP3    H216987   2.881  -0.009   5.323
 5682TIP3   OH216988   3.347   0.110   5.136
 5682TIP3    H116989   3.301   0.182   5.089
 5682TIP3    H216990   3.414   0.082   5.070
 5683TIP3   OH216991   3.540   0.412   6.209
 5683TIP3    H116992   3.517   0.331   6.260
 5683TIP3    H216993   3.635   0.421   6.231
 5684TIP3   OH216994   3.490   0.174   5.393
 5684TIP3    H116995   3.438   0.219   5.324
 5684TIP3    H216996   3.514   0.092   5.344
 5685TIP3   OH216997   2.437  -0.218   5.240
 5685TIP3    H116998   2.451  -0.226   5.144
 5685TIP3    H216999   2.342  -0.197   5.241
 5686TIP3   OH217000   3.516   0.383   5.798
 5686TIP3    H117001   3.553   0.312   5.740
 5686TIP3    H217002   3.492   0.329   5.876
 5687TIP3   OH217003   2.608  -0.101   5.458
 5687TIP3    H117004   2.515  -0.073   5.442
 5687TIP3    H217005   2.607  -0.182   5.405
 5688TIP3   OH217006   2.904  -0.080   5.167
 5688TIP3    H117007   2.996  -0.095   5.138
 5688TIP3    H217008   2.852  -0.093   5.085
 5689TIP3   OH217009   2.739  -0.100   4.939
 5689TIP3    H117010   2.665  -0.115   4.878
 5689TIP3    H217011   2.800  -0.053   4.878
 5690TIP3   OH217012   3.857   1.606   5.891
 5690TIP3    H117013   3.854   1.632   5.797
 5690TIP3    H217014   3.936   1.655   5.922
 5691TIP3   OH217015   2.811   0.715   6.309
 5691TIP3    H117016   2.891   0.747   6.355
 5691TIP3    H217017   2.747   0.718   6.382
 5692TIP3   OH217018   3.261   0.169   5.564
 5692TIP3    H117019   3.345   0.147   5.522
 5692TIP3    H217020   3.274   0.133   5.655
 5693TIP3   OH217021   3.284   0.098   5.825
 5693TIP3    H117022   3.193   0.088   5.860
 5693TIP3    H217023   3.331   0.137   5.900
 5694TIP3   OH217024   2.986   0.458   4.949
 5694TIP3    H117025   2.913   0.393   4.938
 5694TIP3    H217026   2.966   0.491   5.040
 5695TIP3   OH217027   3.887   0.694   5.577
 5695TIP3    H117028   3.912   0.745   5.497
 5695TIP3    H217029   3.802   0.652   5.550
 5696TIP3   OH217030   3.421  -0.160   4.770
 5696TIP3    H117031   3.363  -0.211   4.830
 5696TIP3    H217032   3.458  -0.095   4.833
 5697TIP3   OH217033   3.375   0.770   5.955
 5697TIP3    H117034   3.428   0.769   6.036
 5697TIP3    H217035   3.347   0.863   5.949
 5698TIP3   OH217036   3.522   0.033   4.934
 5698TIP3    H117037   3.620   0.045   4.942
 5698TIP3    H217038   3.497   0.111   4.880
 5699TIP3   OH217039   2.682   0.461   5.646
 5699TIP3    H117040   2.701   0.447   5.551
 5699TIP3    H217041   2.760   0.418   5.686
 5700TIP3   OH217042   3.134   0.607   4.772
 5700TIP3    H117043   3.085   0.692   4.774
 5700TIP3    H217044   3.080   0.553   4.833
 5701TIP3   OH217045   3.285   0.507   6.238
 5701TIP3    H117046   3.266   0.486   6.144
 5701TIP3    H217047   3.381   0.487   6.238
 5702TIP3   OH217048   3.544   1.027   5.851
 5702TIP3    H117049   3.448   1.035   5.860
 5702TIP3    H217050   3.574   1.084   5.925
 5703TIP3   OH217051   3.955   0.108   4.740
 5703TIP3    H117052   3.895   0.059   4.680
 5703TIP3    H217053   3.942   0.199   4.704
 5704TIP3   OH217054   4.176   0.966   5.833
 5704TIP3    H117055   4.078   0.961   5.823
 5704TIP3    H217056   4.202   0.937   5.743
 5705TIP3   OH217057   3.666   0.928   4.667
 5705TIP3    H117058   3.633   0.853   4.718
 5705TIP3    H217059   3.676   0.890   4.577
 5706TIP3   OH217060   3.652   0.559   5.496
 5706TIP3    H117061   3.559   0.533   5.508
 5706TIP3    H217062   3.687   0.480   5.450
 5707TIP3   OH217063   2.785   0.788   5.257
 5707TIP3    H117064   2.786   0.867   5.200
 5707TIP3    H217065   2.690   0.769   5.259
 5708TIP3   OH217066   2.343   0.087   4.958
 5708TIP3    H117067   2.389   0.171   4.978
 5708TIP3    H217068   2.266   0.093   5.019
 5709TIP3   OH217069   2.912   0.547   5.194
 5709TIP3    H117070   2.882   0.638   5.212
 5709TIP3    H217071   2.877   0.499   5.271
 5710TIP3   OH217072   3.052   1.126   5.719
 5710TIP3    H117073   3.093   1.200   5.668
 5710TIP3    H217074   3.130   1.092   5.766
 5711TIP3   OH217075   2.701   1.019   5.106
 5711TIP3    H117076   2.614   1.033   5.147
 5711TIP3    H217077   2.736   1.111   5.109
 5712TIP3   OH217078   3.434   0.762   5.683
 5712TIP3    H117079   3.426   0.754   5.780
 5712TIP3    H217080   3.516   0.712   5.667
 5713TIP3   OH217081   3.414   0.649   4.567
 5713TIP3    H117082   3.468   0.627   4.645
 5713TIP3    H217083   3.325   0.629   4.599
 5714TIP3   OH217084   3.686   1.293   5.726
 5714TIP3    H117085   3.603   1.242   5.716
 5714TIP3    H217086   3.674   1.360   5.656
 5715TIP3   OH217087   3.577   0.591   4.784
 5715TIP3    H117088   3.567   0.522   4.852
 5715TIP3    H217089   3.673   0.586   4.767
 5716TIP3   OH217090   2.491   0.991   5.877
 5716TIP3    H117091   2.551   0.925   5.916
 5716TIP3    H217092   2.512   1.070   5.928
 5717TIP3   OH217093   2.776   0.633   4.561
 5717TIP3    H117094   2.793   0.540   4.537
 5717TIP3    H217095   2.756   0.625   4.656
 5718TIP3   OH217096   2.723   0.639   4.834
 5718TIP3    H117097   2.800   0.614   4.886
 5718TIP3    H217098   2.725   0.737   4.842
 5719TIP3   OH217099   2.458   0.332   5.039
 5719TIP3    H117100   2.392   0.379   5.094
 5719TIP3    H217101   2.472   0.400   4.970
 5720TIP3   OH217102   2.990   0.836   4.780
 5720TIP3    H117103   2.902   0.861   4.815
 5720TIP3    H217104   3.013   0.917   4.732
 5721TIP3   OH217105   3.188  -0.110   5.158
 5721TIP3    H117106   3.239  -0.026   5.152
 5721TIP3    H217107   3.212  -0.140   5.247
 5722TIP3   OH217108   3.455   0.225   6.010
 5722TIP3    H117109   3.467   0.279   6.091
 5722TIP3    H217110   3.515   0.151   6.029
 5723TIP3   OH217111   2.735   0.909   4.853
 5723TIP3    H117112   2.705   0.975   4.786
 5723TIP3    H217113   2.719   0.957   4.937
 5724TIP3   OH217114   3.739   0.318   5.375
 5724TIP3    H117115   3.661   0.263   5.394
 5724TIP3    H217116   3.811   0.270   5.423
 5725TIP3   OH217117   2.452   0.538   4.842
 5725TIP3    H117118   2.521   0.607   4.851
 5725TIP3    H217119   2.497   0.481   4.776
 5726TIP3   OH217120   2.396  -0.184   4.962
 5726TIP3    H117121   2.387  -0.087   4.957
 5726TIP3    H217122   2.304  -0.213   4.957
 5727TIP3   OH217123   3.708   1.270   5.321
 5727TIP3    H117124   3.665   1.317   5.246
 5727TIP3    H217125   3.802   1.289   5.300
 5728TIP3   OH217126   2.318   0.748   5.229
 5728TIP3    H117127   2.253   0.784   5.290
 5728TIP3    H217128   2.292   0.794   5.145
 5729TIP3   OH217129   2.482   1.304   6.302
 5729TIP3    H117130   2.568   1.307   6.350
 5729TIP3    H217131   2.464   1.209   6.302
 5730TIP3   OH217132   2.957   1.258   6.350
 5730TIP3    H117133   3.053   1.248   6.353
 5730TIP3    H217134   2.935   1.197   6.276
 5731TIP3   OH217135   2.934   0.839   4.472
 5731TIP3    H117136   2.882   0.765   4.512
 5731TIP3    H217137   3.016   0.792   4.449
 5732TIP3   OH217138   3.599   1.169   6.081
 5732TIP3    H117139   3.593   1.101   6.151
 5732TIP3    H217140   3.676   1.222   6.109
 5733TIP3   OH217141   3.371   0.880   4.384
 5733TIP3    H117142   3.422   0.822   4.442
 5733TIP3    H217143   3.440   0.942   4.351
 5734TIP3   OH217144   2.612   0.708   6.500
 5734TIP3    H117145   2.613   0.615   6.526
 5734TIP3    H217146   2.523   0.716   6.458
 5735TIP3   OH217147   2.588   0.352   4.698
 5735TIP3    H117148   2.645   0.322   4.770
 5735TIP3    H217149   2.654   0.358   4.625
 5736TIP3   OH217150   3.216   0.790   6.277
 5736TIP3    H117151   3.179   0.818   6.190
 5736TIP3    H217152   3.249   0.700   6.258
 5737TIP3   OH217153   3.096   0.557   4.502
 5737TIP3    H117154   3.102   0.568   4.599
 5737TIP3    H217155   3.101   0.459   4.496
 5738TIP3   OH217156   3.708   0.804   5.883
 5738TIP3    H117157   3.786   0.842   5.838
 5738TIP3    H217158   3.642   0.875   5.866
 5739TIP3   OH217159   2.777   0.424   6.455
 5739TIP3    H117160   2.840   0.357   6.488
 5739TIP3    H217161   2.765   0.473   6.540
 5740TIP3   OH217162   2.791   0.260   4.916
 5740TIP3    H117163   2.772   0.218   5.000
 5740TIP3    H217164   2.831   0.187   4.864
 5741TIP3   OH217165   2.980   0.376   6.130
 5741TIP3    H117166   3.046   0.425   6.182
 5741TIP3    H217167   3.034   0.370   6.047
 5742TIP3   OH217168   2.895   0.054   4.764
 5742TIP3    H117169   2.870   0.059   4.670
 5742TIP3    H217170   2.993   0.056   4.756
 5743TIP3   OH217171   3.580   0.725   6.279
 5743TIP3    H117172   3.656   0.697   6.226
 5743TIP3    H217173   3.579   0.658   6.350
 5744TIP3   OH217174   3.717   0.379   4.422
 5744TIP3    H117175   3.695   0.339   4.336
 5744TIP3    H217176   3.685   0.470   4.405
 5745TIP3   OH217177   3.144   0.130   6.255
 5745TIP3    H117178   3.098   0.061   6.203
 5745TIP3    H217179   3.128   0.208   6.200
 5746TIP3   OH217180   3.206   0.439   5.983
 5746TIP3    H117181   3.288   0.423   5.934
 5746TIP3    H217182   3.160   0.501   5.923
 5747TIP3   OH217183   3.791   0.404   6.310
 5747TIP3    H117184   3.825   0.348   6.384
 5747TIP3    H217185   3.870   0.454   6.284
 5748TIP3   OH217186   3.839   0.656   6.066
 5748TIP3    H117187   3.780   0.711   6.008
 5748TIP3    H217188   3.926   0.680   6.027
 5749TIP3   OH217189   3.013   0.257   6.477
 5749TIP3    H117190   2.994   0.194   6.548
 5749TIP3    H217191   3.083   0.211   6.427
 5750TIP3   OH217192   3.435   0.187   6.306
 5750TIP3    H117193   3.470   0.149   6.389
 5750TIP3    H217194   3.341   0.169   6.315
 5751TIP3   OH217195   2.692   1.093   4.651
 5751TIP3    H117196   2.785   1.109   4.629
 5751TIP3    H217197   2.654   1.183   4.658
 5752TIP3   OH217198   2.184   0.497   4.879
 5752TIP3    H117199   2.279   0.519   4.864
 5752TIP3    H217200   2.178   0.408   4.837
 5753TIP3   OH217201   2.097   1.106   5.295
 5753TIP3    H117202   2.033   1.044   5.256
 5753TIP3    H217203   2.144   1.048   5.358
 5754TIP3   OH217204   2.236   0.955   5.478
 5754TIP3    H117205   2.219   0.888   5.546
 5754TIP3    H217206   2.288   1.019   5.528
 5755TIP3   OH217207   3.963   1.357   5.282
 5755TIP3    H117208   3.989   1.394   5.368
 5755TIP3    H217209   4.024   1.401   5.221
 5756TIP3   OH217210   3.988   1.381   5.565
 5756TIP3    H117211   3.947   1.292   5.559
 5756TIP3    H217212   4.066   1.359   5.618
 5757TIP3   OH217213   4.039   1.055   6.139
 5757TIP3    H117214   3.965   1.067   6.202
 5757TIP3    H217215   4.080   1.144   6.140
 5758TIP3   OH217216   3.853   0.568   4.752
 5758TIP3    H117217   3.917   0.635   4.722
 5758TIP3    H217218   3.899   0.533   4.832
 5759TIP3   OH217219   3.980   0.442   4.957
 5759TIP3    H117220   3.913   0.403   5.018
 5759TIP3    H217221   4.045   0.481   5.019
 5760TIP3   OH217222   4.038   0.831   5.391
 5760TIP3    H117223   4.089   0.763   5.343
 5760TIP3    H217224   4.035   0.905   5.327
 5761TIP3   OH217225   3.865   1.128   5.587
 5761TIP3    H117226   3.793   1.173   5.635
 5761TIP3    H217227   3.817   1.084   5.514
 5762TIP3   OH217228   3.913   0.343   4.605
 5762TIP3    H117229   3.844   0.352   4.535
 5762TIP3    H217230   3.888   0.420   4.661
 5763TIP3   OH217231   3.782   0.005   4.546
 5763TIP3    H117232   3.762   0.085   4.497
 5763TIP3    H217233   3.733  -0.062   4.496
 5764TIP3   OH217234   3.792   0.309   5.103
 5764TIP3    H117235   3.796   0.215   5.078
 5764TIP3    H217236   3.780   0.307   5.200
 5765TIP3   OH217237   2.448   0.368   5.840
 5765TIP3    H117238   2.420   0.317   5.761
 5765TIP3    H217239   2.524   0.414   5.801
 5766TIP3   OH217240   4.084   0.720   5.961
 5766TIP3    H117241   4.156   0.654   5.950
 5766TIP3    H217242   4.109   0.789   5.897
 5767TIP3   OH217243   4.264   0.518   5.979
 5767TIP3    H117244   4.191   0.464   6.016
 5767TIP3    H217245   4.340   0.459   5.997
 5768TIP3   OH217246   3.794   0.059   4.971
 5768TIP3    H117247   3.821  -0.020   5.023
 5768TIP3    H217248   3.858   0.058   4.897
 5769TIP3   OH217249   3.947   0.192   5.502
 5769TIP3    H117250   4.033   0.212   5.459
 5769TIP3    H217251   3.966   0.225   5.592
 5770TIP3   OH217252   4.016   0.340   5.729
 5770TIP3    H117253   3.937   0.376   5.773
 5770TIP3    H217254   4.050   0.418   5.680
 5771TIP3   OH217255   2.638   0.050   6.516
 5771TIP3    H117256   2.733   0.039   6.523
 5771TIP3    H217257   2.605  -0.033   6.554
 5772TIP3   OH217258   2.388   0.025   5.920
 5772TIP3    H117259   2.441   0.018   5.837
 5772TIP3    H217260   2.423   0.106   5.959
 5773TIP3   OH217261   3.551   1.223   4.936
 5773TIP3    H117262   3.591   1.217   4.847
 5773TIP3    H217263   3.603   1.295   4.976
 5774TIP3   OH217264   2.646   1.026   6.317
 5774TIP3    H117265   2.551   1.008   6.307
 5774TIP3    H217266   2.658   1.018   6.413
 5775TIP3   OH217267   2.826   1.065   5.867
 5775TIP3    H117268   2.778   1.141   5.828
 5775TIP3    H217269   2.912   1.080   5.823
 5776TIP3   OH217270   3.266   1.307   6.005
 5776TIP3    H117271   3.308   1.308   6.094
 5776TIP3    H217272   3.331   1.359   5.954
 5777TIP3   OH217273   3.446   1.461   5.868
 5777TIP3    H117274   3.517   1.414   5.824
 5777TIP3    H217275   3.498   1.519   5.929
 5778TIP3   OH217276   2.499   1.316   5.899
 5778TIP3    H117277   2.408   1.346   5.874
 5778TIP3    H217278   2.515   1.372   5.976
 5779TIP3   OH217279   2.735   1.298   5.753
 5779TIP3    H117280   2.647   1.310   5.796
 5779TIP3    H217281   2.717   1.331   5.663
 5780TIP3   OH217282   3.161   1.324   5.552
 5780TIP3    H117283   3.093   1.344   5.485
 5780TIP3    H217284   3.174   1.412   5.593
 5781TIP3   OH217285   3.432   1.263   5.604
 5781TIP3    H117286   3.338   1.283   5.583
 5781TIP3    H217287   3.478   1.336   5.558
 5782TIP3   OH217288   3.634   1.455   5.513
 5782TIP3    H117289   3.622   1.541   5.467
 5782TIP3    H217290   3.663   1.397   5.440
 5783TIP3   OH217291   2.411   1.113   5.634
 5783TIP3    H117292   2.437   1.088   5.725
 5783TIP3    H217293   2.484   1.071   5.584
 5784TIP3   OH217294   2.607   0.985   5.497
 5784TIP3    H117295   2.625   0.902   5.545
 5784TIP3    H217296   2.697   1.024   5.491
 5785TIP3   OH217297   2.871   1.081   5.502
 5785TIP3    H117298   2.906   0.992   5.484
 5785TIP3    H217299   2.920   1.102   5.584
 5786TIP3   OH217300   2.199   0.891   5.033
 5786TIP3    H117301   2.114   0.861   4.998
 5786TIP3    H217302   2.196   0.985   5.006
 5787TIP3   OH217303   2.967   1.076   4.608
 5787TIP3    H117304   3.059   1.090   4.577
 5787TIP3    H217305   2.945   0.997   4.554
 5788TIP3   OH217306   3.680   1.198   4.688
 5788TIP3    H117307   3.679   1.099   4.689
 5788TIP3    H217308   3.636   1.214   4.604
 5789TIP3   OH217309   2.272   0.909   4.666
 5789TIP3    H117310   2.285   0.945   4.755
 5789TIP3    H217311   2.360   0.867   4.648
 5790TIP3   OH217312   3.914   1.336   5.891
 5790TIP3    H117313   3.837   1.307   5.839
 5790TIP3    H217314   3.897   1.432   5.895
 5791TIP3   OH217315   5.184   0.708   4.655
 5791TIP3    H117316   5.157   0.800   4.637
 5791TIP3    H217317   5.105   0.661   4.621
 5792TIP3   OH217318   5.189   0.702   5.037
 5792TIP3    H117319   5.219   0.687   5.129
 5792TIP3    H217320   5.135   0.623   5.021
 5793TIP3   OH217321   4.479   0.605   5.404
 5793TIP3    H117322   4.512   0.535   5.463
 5793TIP3    H217323   4.561   0.655   5.389
 5794TIP3   OH217324   5.429   1.010   4.724
 5794TIP3    H117325   5.411   0.948   4.795
 5794TIP3    H217326   5.459   1.089   4.772
 5795TIP3   OH217327   4.455   1.015   5.127
 5795TIP3    H117328   4.447   0.917   5.128
 5795TIP3    H217329   4.552   1.024   5.119
 5796TIP3   OH217330   4.151   0.228   4.926
 5796TIP3    H117331   4.094   0.307   4.935
 5796TIP3    H217332   4.094   0.172   4.870
 5797TIP3   OH217333   4.212   0.515   5.086
 5797TIP3    H117334   4.253   0.431   5.116
 5797TIP3    H217335   4.276   0.546   5.022
 5798TIP3   OH217336   5.078   1.475   4.738
 5798TIP3    H117337   5.121   1.403   4.687
 5798TIP3    H217338   5.068   1.434   4.824
 5799TIP3   OH217339   4.980   0.936   5.087
 5799TIP3    H117340   5.019   0.863   5.038
 5799TIP3    H217341   5.063   0.982   5.114
 5800TIP3   OH217342   5.400   0.437   5.124
 5800TIP3    H117343   5.416   0.352   5.168
 5800TIP3    H217344   5.363   0.410   5.038
 5801TIP3   OH217345   4.729   0.052   5.038
 5801TIP3    H117346   4.699   0.143   5.020
 5801TIP3    H217347   4.644   0.006   5.048
 5802TIP3   OH217348   5.444   0.227   4.709
 5802TIP3    H117349   5.486   0.229   4.796
 5802TIP3    H217350   5.456   0.316   4.675
 5803TIP3   OH217351   4.342   0.296   5.181
 5803TIP3    H117352   4.435   0.301   5.213
 5803TIP3    H217353   4.354   0.234   5.107
 5804TIP3   OH217354   4.803   0.499   4.990
 5804TIP3    H117355   4.896   0.472   5.002
 5804TIP3    H217356   4.761   0.414   4.963
 5805TIP3   OH217357   6.025   0.444   5.284
 5805TIP3    H117358   5.954   0.501   5.249
 5805TIP3    H217359   6.092   0.508   5.313
 5806TIP3   OH217360   5.074   0.930   4.523
 5806TIP3    H117361   5.031   0.916   4.438
 5806TIP3    H217362   5.030   1.012   4.553
 5807TIP3   OH217363   4.836   0.855   5.311
 5807TIP3    H117364   4.775   0.923   5.348
 5807TIP3    H217365   4.877   0.904   5.236
 5808TIP3   OH217366   4.601   0.262   5.246
 5808TIP3    H117367   4.671   0.313   5.291
 5808TIP3    H217368   4.618   0.174   5.283
 5809TIP3   OH217369   4.665   1.052   5.410
 5809TIP3    H117370   4.640   1.139   5.373
 5809TIP3    H217371   4.585   1.034   5.464
 5810TIP3   OH217372   4.053   0.740   4.645
 5810TIP3    H117373   4.013   0.766   4.560
 5810TIP3    H217374   4.084   0.826   4.679
 5811TIP3   OH217375   5.495   1.256   4.883
 5811TIP3    H117376   5.406   1.248   4.924
 5811TIP3    H217377   5.487   1.343   4.840
 5812TIP3   OH217378   5.196   1.300   4.558
 5812TIP3    H117379   5.247   1.218   4.538
 5812TIP3    H217380   5.258   1.366   4.519
 5813TIP3   OH217381   5.341   1.084   4.472
 5813TIP3    H117382   5.296   1.006   4.436
 5813TIP3    H217383   5.379   1.049   4.555
 5814TIP3   OH217384   5.721   1.166   5.231
 5814TIP3    H117385   5.710   1.090   5.171
 5814TIP3    H217386   5.703   1.242   5.171
 5815TIP3   OH217387   5.014   0.561   4.489
 5815TIP3    H117388   4.932   0.612   4.474
 5815TIP3    H217389   5.052   0.559   4.400
 5816TIP3   OH217390   4.971   0.343   4.206
 5816TIP3    H117391   5.042   0.397   4.245
 5816TIP3    H217392   5.023   0.281   4.151
 5817TIP3   OH217393   5.918   0.808   5.075
 5817TIP3    H117394   5.835   0.860   5.078
 5817TIP3    H217395   5.950   0.831   4.985
 5818TIP3   OH217396   5.361   0.642   4.457
 5818TIP3    H117397   5.305   0.668   4.534
 5818TIP3    H217398   5.444   0.616   4.502
 5819TIP3   OH217399   5.594   0.684   5.378
 5819TIP3    H117400   5.591   0.766   5.431
 5819TIP3    H217401   5.507   0.688   5.334
 5820TIP3   OH217402   4.593   0.641   4.876
 5820TIP3    H117403   4.553   0.582   4.809
 5820TIP3    H217404   4.670   0.588   4.907
 5821TIP3   OH217405   4.722   1.052   5.025
 5821TIP3    H117406   4.703   1.018   4.936
 5821TIP3    H217407   4.812   1.016   5.042
 5822TIP3   OH217408   4.730   0.610   5.239
 5822TIP3    H117409   4.759   0.584   5.148
 5822TIP3    H217410   4.774   0.697   5.251
 5823TIP3   OH217411   5.256   1.250   5.008
 5823TIP3    H117412   5.242   1.332   5.060
 5823TIP3    H217413   5.238   1.179   5.073
 5824TIP3   OH217414   4.869   1.168   5.556
 5824TIP3    H117415   4.808   1.230   5.601
 5824TIP3    H217416   4.805   1.115   5.504
 5825TIP3   OH217417   5.203   0.497   4.283
 5825TIP3    H117418   5.256   0.564   4.332
 5825TIP3    H217419   5.228   0.518   4.190
 5826TIP3   OH217420   4.617   0.732   5.656
 5826TIP3    H117421   4.621   0.819   5.702
 5826TIP3    H217422   4.522   0.710   5.667
 5827TIP3   OH217423   4.948   1.177   4.562
 5827TIP3    H117424   5.029   1.232   4.571
 5827TIP3    H217425   4.887   1.238   4.520
 5828TIP3   OH217426   4.663   1.334   5.642
 5828TIP3    H117427   4.628   1.339   5.551
 5828TIP3    H217428   4.582   1.312   5.694
 5829TIP3   OH217429   4.461   0.483   4.678
 5829TIP3    H117430   4.392   0.530   4.625
 5829TIP3    H217431   4.419   0.398   4.692
 5830TIP3   OH217432   5.518   1.108   3.883
 5830TIP3    H117433   5.525   1.205   3.868
 5830TIP3    H217434   5.611   1.080   3.871
 5831TIP3   OH217435   4.240   0.869   5.589
 5831TIP3    H117436   4.174   0.850   5.519
 5831TIP3    H217437   4.278   0.781   5.608
 5832TIP3   OH217438   4.095   1.059   5.224
 5832TIP3    H117439   4.191   1.057   5.212
 5832TIP3    H217440   4.085   1.141   5.276
 5833TIP3   OH217441   5.959   1.515   5.279
 5833TIP3    H117442   5.958   1.418   5.294
 5833TIP3    H217443   5.876   1.540   5.325
 5834TIP3   OH217444   5.065   1.297   5.413
 5834TIP3    H117445   5.062   1.390   5.444
 5834TIP3    H217446   4.994   1.257   5.467
 5835TIP3   OH217447   4.830   1.426   4.364
 5835TIP3    H117448   4.782   1.409   4.282
 5835TIP3    H217449   4.795   1.513   4.392
 5836TIP3   OH217450   4.265   1.276   4.749
 5836TIP3    H117451   4.312   1.266   4.835
 5836TIP3    H217452   4.209   1.196   4.749
 5837TIP3   OH217453   5.028   1.329   4.002
 5837TIP3    H117454   5.086   1.259   3.966
 5837TIP3    H217455   5.063   1.340   4.093
 5838TIP3   OH217456   5.080   1.377   4.271
 5838TIP3    H117457   4.991   1.387   4.312
 5838TIP3    H217458   5.131   1.341   4.345
 5839TIP3   OH217459   5.846   0.628   5.556
 5839TIP3    H117460   5.768   0.659   5.507
 5839TIP3    H217461   5.841   0.532   5.543
 5840TIP3   OH217462   4.445   1.051   5.573
 5840TIP3    H117463   4.494   1.036   5.656
 5840TIP3    H217464   4.371   0.988   5.581
 5841TIP3   OH217465   5.617   0.425   5.494
 5841TIP3    H117466   5.592   0.455   5.582
 5841TIP3    H217467   5.601   0.503   5.439
 5842TIP3   OH217468   5.283   0.538   4.030
 5842TIP3    H117469   5.242   0.521   3.943
 5842TIP3    H217470   5.360   0.592   4.004
 5843TIP3   OH217471   4.795   0.396   5.397
 5843TIP3    H117472   4.734   0.414   5.470
 5843TIP3    H217473   4.782   0.476   5.341
 5844TIP3   OH217474   4.658   0.283   4.899
 5844TIP3    H117475   4.565   0.257   4.913
 5844TIP3    H217476   4.674   0.249   4.808
 5845TIP3   OH217477   5.155   0.367   4.626
 5845TIP3    H117478   5.103   0.439   4.584
 5845TIP3    H217479   5.214   0.341   4.553
 5846TIP3   OH217480   5.334   0.669   5.695
 5846TIP3    H117481   5.309   0.588   5.745
 5846TIP3    H217482   5.429   0.676   5.718
 5847TIP3   OH217483   5.299   0.395   4.872
 5847TIP3    H117484   5.242   0.454   4.818
 5847TIP3    H217485   5.299   0.319   4.812
 5848TIP3   OH217486   4.596   0.424   5.588
 5848TIP3    H117487   4.615   0.487   5.659
 5848TIP3    H217488   4.580   0.341   5.636
 5849TIP3   OH217489   4.228   0.035   4.725
 5849TIP3    H117490   4.245   0.033   4.629
 5849TIP3    H217491   4.133   0.054   4.725
 5850TIP3   OH217492   5.314   0.639   5.281
 5850TIP3    H117493   5.351   0.569   5.223
 5850TIP3    H217494   5.290   0.585   5.359
 5851TIP3   OH217495   4.409   0.153   4.945
 5851TIP3    H117496   4.318   0.185   4.930
 5851TIP3    H217497   4.404   0.070   4.894
 5852TIP3   OH217498   4.706   0.176   4.649
 5852TIP3    H117499   4.790   0.157   4.607
 5852TIP3    H217500   4.642   0.165   4.576
 5853TIP3   OH217501   4.537   0.153   4.428
 5853TIP3    H117502   4.462   0.140   4.368
 5853TIP3    H217503   4.596   0.202   4.366
 5854TIP3   OH217504   5.653   1.862   5.378
 5854TIP3    H117505   5.651   1.888   5.284
 5854TIP3    H217506   5.733   1.911   5.409
 5855TIP3   OH217507   4.606   0.974   5.798
 5855TIP3    H117508   4.687   1.003   5.845
 5855TIP3    H217509   4.542   0.976   5.872
 5856TIP3   OH217510   5.064   0.430   5.051
 5856TIP3    H117511   5.143   0.384   5.022
 5856TIP3    H217512   5.060   0.403   5.146
 5857TIP3   OH217513   5.069   0.365   5.311
 5857TIP3    H117514   4.980   0.351   5.351
 5857TIP3    H217515   5.119   0.403   5.386
 5858TIP3   OH217516   4.786   0.711   4.439
 5858TIP3    H117517   4.712   0.648   4.426
 5858TIP3    H217518   4.764   0.747   4.529
 5859TIP3   OH217519   5.683   0.951   5.063
 5859TIP3    H117520   5.708   1.002   4.984
 5859TIP3    H217521   5.598   0.911   5.037
 5860TIP3   OH217522   5.224   0.098   4.255
 5860TIP3    H117523   5.159   0.041   4.300
 5860TIP3    H217524   5.249   0.159   4.327
 5861TIP3   OH217525   5.181   1.033   5.434
 5861TIP3    H117526   5.211   1.015   5.523
 5861TIP3    H217527   5.144   1.123   5.440
 5862TIP3   OH217528   5.325   0.293   4.420
 5862TIP3    H117529   5.419   0.293   4.398
 5862TIP3    H217530   5.291   0.367   4.366
 5863TIP3   OH217531   4.479   0.737   5.111
 5863TIP3    H117532   4.515   0.708   5.025
 5863TIP3    H217533   4.521   0.674   5.172
 5864TIP3   OH217534   4.930   0.864   4.263
 5864TIP3    H117535   4.881   0.949   4.264
 5864TIP3    H217536   4.875   0.809   4.323
 5865TIP3   OH217537   4.358   0.655   5.728
 5865TIP3    H117538   4.376   0.639   5.822
 5865TIP3    H217539   4.286   0.593   5.709
 5866TIP3   OH217540   5.083   0.775   5.750
 5866TIP3    H117541   5.021   0.720   5.699
 5866TIP3    H217542   5.170   0.745   5.716
 5867TIP3   OH217543   5.342   1.289   5.333
 5867TIP3    H117544   5.246   1.291   5.346
 5867TIP3    H217545   5.371   1.343   5.409
 5868TIP3   OH217546   5.735   0.364   4.239
 5868TIP3    H117547   5.680   0.314   4.175
 5868TIP3    H217548   5.728   0.453   4.199
 5869TIP3   OH217549   5.972   1.223   5.319
 5869TIP3    H117550   5.874   1.218   5.310
 5869TIP3    H217551   5.999   1.194   5.229
 5870TIP3   OH217552   5.455   1.184   4.148
 5870TIP3    H117553   5.426   1.115   4.209
 5870TIP3    H217554   5.467   1.137   4.064
 5871TIP3   OH217555   5.448   0.817   4.980
 5871TIP3    H117556   5.355   0.790   4.995
 5871TIP3    H217557   5.482   0.737   4.935
 5872TIP3   OH217558   4.579   1.042   4.738
 5872TIP3    H117559   4.576   1.123   4.683
 5872TIP3    H217560   4.485   1.024   4.750
 5873TIP3   OH217561   4.139   0.344   4.445
 5873TIP3    H117562   4.185   0.429   4.463
 5873TIP3    H217563   4.063   0.351   4.506
 5874TIP3   OH217564   4.712   0.805   4.681
 5874TIP3    H117565   4.678   0.895   4.699
 5874TIP3    H217566   4.675   0.755   4.756
 5875TIP3   OH217567   4.848   1.384   5.206
 5875TIP3    H117568   4.889   1.457   5.155
 5875TIP3    H217569   4.925   1.348   5.253
 5876TIP3   OH217570   4.497   1.279   4.591
 5876TIP3    H117571   4.411   1.289   4.636
 5876TIP3    H217572   4.530   1.371   4.592
 5877TIP3   OH217573   5.232   1.015   5.167
 5877TIP3    H117574   5.221   1.016   5.264
 5877TIP3    H217575   5.316   0.968   5.157
 5878TIP3   OH217576   5.211   0.911   4.049
 5878TIP3    H117577   5.263   0.886   4.129
 5878TIP3    H217578   5.122   0.886   4.076
 5879TIP3   OH217579   5.482   1.549   5.214
 5879TIP3    H117580   5.401   1.496   5.207
 5879TIP3    H217581   5.468   1.615   5.143
 5880TIP3   OH217582   5.548   1.384   3.868
 5880TIP3    H117583   5.585   1.457   3.815
 5880TIP3    H217584   5.468   1.429   3.902
 5881TIP3   OH217585   5.372   0.842   4.262
 5881TIP3    H117586   5.362   0.778   4.335
 5881TIP3    H217587   5.469   0.841   4.250
 5882TIP3   OH217588   4.285   1.246   5.365
 5882TIP3    H117589   4.340   1.175   5.401
 5882TIP3    H217590   4.313   1.321   5.418
 5883TIP3   OH217591   4.576   0.891   4.048
 5883TIP3    H117592   4.587   0.798   4.022
 5883TIP3    H217593   4.555   0.882   4.143
 5884TIP3   OH217594   4.521   0.897   4.320
 5884TIP3    H117595   4.592   0.873   4.380
 5884TIP3    H217596   4.522   0.995   4.326
 5885TIP3   OH217597   4.253   0.590   4.526
 5885TIP3    H117598   4.186   0.635   4.581
 5885TIP3    H217599   4.266   0.657   4.457
 5886TIP3   OH217600   4.788   1.094   4.269
 5886TIP3    H117601   4.700   1.117   4.305
 5886TIP3    H217602   4.802   1.169   4.210
 5887TIP3   OH217603   5.006   0.139   4.648
 5887TIP3    H117604   5.044   0.230   4.647
 5887TIP3    H217605   4.972   0.131   4.738
 5888TIP3   OH217606   5.261   0.477   5.494
 5888TIP3    H117607   5.254   0.540   5.568
 5888TIP3    H217608   5.309   0.405   5.535
 5889TIP3   OH217609   4.533   1.168   4.339
 5889TIP3    H117610   4.502   1.238   4.276
 5889TIP3    H217611   4.516   1.212   4.425
 5890TIP3   OH217612   5.534   0.572   4.860
 5890TIP3    H117613   5.459   0.522   4.894
 5890TIP3    H217614   5.609   0.532   4.911
 5891TIP3   OH217615   4.251   0.794   4.331
 5891TIP3    H117616   4.317   0.865   4.337
 5891TIP3    H217617   4.294   0.739   4.262
 5892TIP3   OH217618   4.196   0.074   4.449
 5892TIP3    H117619   4.186   0.171   4.444
 5892TIP3    H217620   4.105   0.044   4.434
 5893TIP3   OH217621   5.504   1.527   4.808
 5893TIP3    H117622   5.461   1.574   4.733
 5893TIP3    H217623   5.599   1.546   4.787
 5894TIP3   OH217624   4.113   1.012   4.709
 5894TIP3    H117625   4.048   1.043   4.773
 5894TIP3    H217626   4.081   1.057   4.627
 5895TIP3   OH217627   4.278   1.559   5.789
 5895TIP3    H117628   4.364   1.561   5.836
 5895TIP3    H217629   4.260   1.464   5.787
 5896TIP3   OH217630   4.753   1.514   5.836
 5896TIP3    H117631   4.849   1.501   5.839
 5896TIP3    H217632   4.729   1.454   5.763
 5897TIP3   OH217633   4.738   1.094   3.958
 5897TIP3    H117634   4.682   1.022   3.996
 5897TIP3    H217635   4.813   1.042   3.926
 5898TIP3   OH217636   5.396   1.426   5.566
 5898TIP3    H117637   5.388   1.357   5.636
 5898TIP3    H217638   5.472   1.478   5.596
 5899TIP3   OH217639   5.174   1.133   3.873
 5899TIP3    H117640   5.218   1.070   3.932
 5899TIP3    H217641   5.229   1.131   3.793
 5900TIP3   OH217642   4.405   0.961   5.990
 5900TIP3    H117643   4.421   0.864   5.992
 5900TIP3    H217644   4.319   0.965   5.943
 5901TIP3   OH217645   4.385   0.609   4.183
 5901TIP3    H117646   4.442   0.581   4.257
 5901TIP3    H217647   4.452   0.615   4.111
 5902TIP3   OH217648   5.012   1.049   5.763
 5902TIP3    H117649   4.972   1.069   5.676
 5902TIP3    H217650   5.042   0.956   5.753
 5903TIP3   OH217651   4.901   0.814   3.992
 5903TIP3    H117652   4.899   0.825   4.089
 5903TIP3    H217653   4.901   0.716   3.986
 5904TIP3   OH217654   5.505   1.059   5.369
 5904TIP3    H117655   5.581   1.101   5.325
 5904TIP3    H217656   5.436   1.127   5.354
 5905TIP3   OH217657   4.529   0.694   5.973
 5905TIP3    H117658   4.613   0.654   5.945
 5905TIP3    H217659   4.553   0.730   6.061
 5906TIP3   OH217660   4.590   0.518   4.404
 5906TIP3    H117661   4.564   0.480   4.489
 5906TIP3    H217662   4.626   0.442   4.356
 5907TIP3   OH217663   4.862   0.611   5.632
 5907TIP3    H117664   4.778   0.662   5.626
 5907TIP3    H217665   4.908   0.638   5.549
 5908TIP3   OH217666   4.691   0.309   4.252
 5908TIP3    H117667   4.663   0.316   4.158
 5908TIP3    H217668   4.788   0.311   4.242
 5909TIP3   OH217669   5.382   0.985   5.767
 5909TIP3    H117670   5.452   0.950   5.711
 5909TIP3    H217671   5.368   0.913   5.831
 5910TIP3   OH217672   5.514   0.637   3.909
 5910TIP3    H117673   5.493   0.596   3.823
 5910TIP3    H217674   5.482   0.729   3.891
 5911TIP3   OH217675   4.944   0.388   5.754
 5911TIP3    H117676   4.895   0.326   5.696
 5911TIP3    H217677   4.919   0.473   5.712
 5912TIP3   OH217678   5.023   0.698   5.434
 5912TIP3    H117679   5.105   0.706   5.384
 5912TIP3    H217680   4.964   0.762   5.388
 5913TIP3   OH217681   5.587   0.662   5.798
 5913TIP3    H117682   5.621   0.606   5.871
 5913TIP3    H217683   5.666   0.711   5.772
 5914TIP3   OH217684   5.636   0.912   5.553
 5914TIP3    H117685   5.577   0.967   5.496
 5914TIP3    H217686   5.723   0.936   5.514
 5915TIP3   OH217687   4.827   0.511   5.986
 5915TIP3    H117688   4.788   0.430   6.018
 5915TIP3    H217689   4.887   0.479   5.917
 5916TIP3   OH217690   5.226   0.444   5.789
 5916TIP3    H117691   5.252   0.411   5.877
 5916TIP3    H217692   5.130   0.428   5.791
 5917TIP3   OH217693   4.502   1.371   4.152
 5917TIP3    H117694   4.597   1.365   4.130
 5917TIP3    H217695   4.471   1.422   4.074
 5918TIP3   OH217696   3.982   0.756   4.365
 5918TIP3    H117697   4.077   0.775   4.349
 5918TIP3    H217698   3.972   0.669   4.322
 5919TIP3   OH217699   3.891   1.364   4.782
 5919TIP3    H117700   3.827   1.305   4.737
 5919TIP3    H217701   3.936   1.303   4.843
 5920TIP3   OH217702   4.031   1.211   4.965
 5920TIP3    H117703   4.017   1.142   5.032
 5920TIP3    H217704   4.083   1.275   5.017
 5921TIP3   OH217705   5.759   1.615   4.769
 5921TIP3    H117706   5.785   1.648   4.856
 5921TIP3    H217707   5.823   1.659   4.710
 5922TIP3   OH217708   5.785   1.636   5.051
 5922TIP3    H117709   5.742   1.549   5.046
 5922TIP3    H217710   5.862   1.614   5.106
 5923TIP3   OH217711   5.834   1.312   5.625
 5923TIP3    H117712   5.761   1.324   5.689
 5923TIP3    H217713   5.876   1.401   5.627
 5924TIP3   OH217714   5.651   0.825   4.238
 5924TIP3    H117715   5.715   0.893   4.207
 5924TIP3    H217716   5.696   0.791   4.318
 5925TIP3   OH217717   5.774   0.696   4.444
 5925TIP3    H117718   5.710   0.663   4.510
 5925TIP3    H217719   5.844   0.736   4.500
 5926TIP3   OH217720   5.833   1.087   4.876
 5926TIP3    H117721   5.886   1.020   4.829
 5926TIP3    H217722   5.831   1.161   4.812
 5927TIP3   OH217723   5.661   1.386   5.072
 5927TIP3    H117724   5.589   1.429   5.122
 5927TIP3    H217725   5.612   1.341   5.000
 5928TIP3   OH217726   5.707   0.596   4.095
 5928TIP3    H117727   5.640   0.607   4.023
 5928TIP3    H217728   5.685   0.675   4.148
 5929TIP3   OH217729   5.572   0.258   4.034
 5929TIP3    H117730   5.562   0.342   3.988
 5929TIP3    H217731   5.525   0.198   3.975
 5930TIP3   OH217732   5.587   0.539   4.597
 5930TIP3    H117733   5.653   0.473   4.618
 5930TIP3    H217734   5.565   0.573   4.687
 5931TIP3   OH217735   4.215   0.623   5.341
 5931TIP3    H117736   4.212   0.593   5.248
 5931TIP3    H217737   4.312   0.625   5.356
 5932TIP3   OH217738   5.881   0.977   5.448
 5932TIP3    H117739   5.953   0.911   5.438
 5932TIP3    H217740   5.907   1.046   5.384
 5933TIP3   OH217741   6.060   0.776   5.466
 5933TIP3    H117742   5.987   0.721   5.502
 5933TIP3    H217743   6.136   0.716   5.482
 5934TIP3   OH217744   5.628   0.224   4.487
 5934TIP3    H117745   5.676   0.168   4.424
 5934TIP3    H217746   5.655   0.311   4.453
 5935TIP3   OH217747   5.742   0.447   4.983
 5935TIP3    H117748   5.830   0.468   4.945
 5935TIP3    H217749   5.757   0.478   5.075
 5936TIP3   OH217750   5.809   0.594   5.211
 5936TIP3    H117751   5.732   0.631   5.260
 5936TIP3    H217752   5.844   0.674   5.165
 5937TIP3   OH217753   4.433   0.306   6.018
 5937TIP3    H117754   4.520   0.278   5.987
 5937TIP3    H217755   4.396   0.221   6.050
 5938TIP3   OH217756   4.193   0.277   5.415
 5938TIP3    H117757   4.239   0.277   5.328
 5938TIP3    H217758   4.224   0.360   5.452
 5939TIP3   OH217759   5.342   1.484   4.424
 5939TIP3    H117760   5.393   1.474   4.341
 5939TIP3    H217761   5.392   1.551   4.471
 5940TIP3   OH217762   4.442   1.287   5.806
 5940TIP3    H117763   4.349   1.263   5.791
 5940TIP3    H217764   4.451   1.274   5.901
 5941TIP3   OH217765   4.622   1.323   5.356
 5941TIP3    H117766   4.574   1.399   5.316
 5941TIP3    H217767   4.708   1.336   5.310
 5942TIP3   OH217768   5.062   1.564   5.492
 5942TIP3    H117769   5.104   1.564   5.581
 5942TIP3    H217770   5.128   1.616   5.441
 5943TIP3   OH217771   5.242   1.718   5.355
 5943TIP3    H117772   5.314   1.669   5.312
 5943TIP3    H217773   5.294   1.775   5.416
 5944TIP3   OH217774   4.296   1.575   5.383
 5944TIP3    H117775   4.206   1.606   5.359
 5944TIP3    H217776   4.310   1.627   5.464
 5945TIP3   OH217777   4.532   1.556   5.239
 5945TIP3    H117778   4.445   1.568   5.282
 5945TIP3    H217779   4.514   1.588   5.149
 5946TIP3   OH217780   4.958   1.582   5.037
 5946TIP3    H117781   4.888   1.601   4.971
 5946TIP3    H217782   4.970   1.670   5.078
 5947TIP3   OH217783   5.228   1.521   5.089
 5947TIP3    H117784   5.134   1.540   5.069
 5947TIP3    H217785   5.272   1.595   5.045
 5948TIP3   OH217786   5.432   1.713   5.001
 5948TIP3    H117787   5.419   1.798   4.954
 5948TIP3    H217788   5.460   1.654   4.927
 5949TIP3   OH217789   4.206   1.369   5.123
 5949TIP3    H117790   4.233   1.343   5.214
 5949TIP3    H217791   4.279   1.327   5.072
 5950TIP3   OH217792   4.402   1.243   4.984
 5950TIP3    H117793   4.418   1.159   5.034
 5950TIP3    H217794   4.493   1.279   4.979
 5951TIP3   OH217795   4.669   1.335   4.988
 5951TIP3    H117796   4.700   1.243   4.977
 5951TIP3    H217797   4.717   1.358   5.070
 5952TIP3   OH217798   3.989   1.147   4.508
 5952TIP3    H117799   3.906   1.110   4.478
 5952TIP3    H217800   3.981   1.239   4.474
 5953TIP3   OH217801   4.769   1.327   4.098
 5953TIP3    H117802   4.857   1.351   4.061
 5953TIP3    H217803   4.746   1.254   4.037
 5954TIP3   OH217804   5.488   1.451   4.192
 5954TIP3    H117805   5.480   1.354   4.180
 5954TIP3    H217806   5.442   1.483   4.111
 5955TIP3   OH217807   4.071   1.169   4.152
 5955TIP3    H117808   4.067   1.198   4.245
 5955TIP3    H217809   4.160   1.129   4.145
 5956TIP3   OH217810   5.711   1.593   5.378
 5956TIP3    H117811   5.633   1.563   5.327
 5956TIP3    H217812   5.693   1.689   5.383
 5957TIP3   OH217813   6.979   0.964   4.144
 5957TIP3    H117814   6.951   1.056   4.124
 5957TIP3    H217815   6.903   0.915   4.106
 5958TIP3   OH217816   6.979   0.968   4.529
 5958TIP3    H117817   7.012   0.943   4.617
 5958TIP3    H217818   6.938   0.886   4.498
 5959TIP3   OH217819   6.273   0.861   4.893
 5959TIP3    H117820   6.306   0.791   4.953
 5959TIP3    H217821   6.356   0.909   4.876
 5960TIP3   OH217822   7.224   1.270   4.209
 5960TIP3    H117823   7.209   1.201   4.275
 5960TIP3    H217824   7.254   1.345   4.263
 5961TIP3   OH217825   6.250   1.269   4.612
 5961TIP3    H117826   6.242   1.171   4.614
 5961TIP3    H217827   6.347   1.279   4.606
 5962TIP3   OH217828   5.935   0.473   4.423
 5962TIP3    H117829   5.890   0.560   4.423
 5962TIP3    H217830   5.887   0.427   4.353
 5963TIP3   OH217831   6.007   0.769   4.567
 5963TIP3    H117832   6.050   0.687   4.601
 5963TIP3    H217833   6.079   0.810   4.517
 5964TIP3   OH217834   6.875   1.731   4.226
 5964TIP3    H117835   6.917   1.660   4.173
 5964TIP3    H217836   6.867   1.689   4.312
 5965TIP3   OH217837   6.777   1.193   4.574
 5965TIP3    H117838   6.817   1.115   4.532
 5965TIP3    H217839   6.859   1.240   4.599
 5966TIP3   OH217840   7.195   0.693   4.620
 5966TIP3    H117841   7.216   0.603   4.648
 5966TIP3    H217842   7.159   0.681   4.530
 5967TIP3   OH217843   6.516   0.311   4.542
 5967TIP3    H117844   6.489   0.400   4.511
 5967TIP3    H217845   6.441   0.257   4.513
 5968TIP3   OH217846   7.184   0.465   4.244
 5968TIP3    H117847   7.242   0.421   4.309
 5968TIP3    H217848   7.243   0.466   4.167
 5969TIP3   OH217849   6.137   0.554   4.668
 5969TIP3    H117850   6.229   0.558   4.703
 5969TIP3    H217851   6.154   0.494   4.592
 5970TIP3   OH217852   6.597   0.755   4.477
 5970TIP3    H117853   6.692   0.731   4.490
 5970TIP3    H217854   6.559   0.668   4.450
 5971TIP3   OH217855   7.824   0.703   4.760
 5971TIP3    H117856   7.749   0.761   4.736
 5971TIP3    H217857   7.885   0.763   4.804
 5972TIP3   OH217858   6.867   1.186   4.012
 5972TIP3    H117859   6.828   1.172   3.925
 5972TIP3    H217860   6.823   1.269   4.040
 5973TIP3   OH217861   6.632   1.112   4.796
 5973TIP3    H117862   6.572   1.180   4.833
 5973TIP3    H217863   6.674   1.160   4.722
 5974TIP3   OH217864   6.393   0.523   4.737
 5974TIP3    H117865   6.464   0.567   4.787
 5974TIP3    H217866   6.420   0.430   4.747
 5975TIP3   OH217867   6.461   1.309   4.897
 5975TIP3    H117868   6.435   1.396   4.860
 5975TIP3    H217869   6.382   1.290   4.952
 5976TIP3   OH217870   5.849   0.997   4.133
 5976TIP3    H117871   5.812   1.026   4.047
 5976TIP3    H217872   5.882   1.082   4.169
 5977TIP3   OH217873   7.292   1.514   4.372
 5977TIP3    H117874   7.202   1.505   4.412
 5977TIP3    H217875   7.283   1.600   4.327
 5978TIP3   OH217876   6.990   1.558   4.043
 5978TIP3    H117877   7.041   1.475   4.025
 5978TIP3    H217878   7.054   1.622   4.004
 5979TIP3   OH217879   7.135   1.342   3.958
 5979TIP3    H117880   7.101   1.262   3.918
 5979TIP3    H217881   7.174   1.308   4.042
 5980TIP3   OH217882   7.520   1.423   4.718
 5980TIP3    H117883   7.506   1.346   4.659
 5980TIP3    H217884   7.501   1.498   4.657
 5981TIP3   OH217885   6.810   0.823   3.973
 5981TIP3    H117886   6.730   0.875   3.952
 5981TIP3    H217887   6.853   0.818   3.886
 5982TIP3   OH217888   6.766   0.602   3.691
 5982TIP3    H117889   6.837   0.653   3.734
 5982TIP3    H217890   6.818   0.535   3.644
 5983TIP3   OH217891   7.707   1.058   4.557
 5983TIP3    H117892   7.625   1.113   4.562
 5983TIP3    H217893   7.741   1.085   4.469
 5984TIP3   OH217894   7.156   0.902   3.943
 5984TIP3    H117895   7.102   0.924   4.023
 5984TIP3    H217896   7.241   0.880   3.986
 5985TIP3   OH217897   7.388   0.942   4.865
 5985TIP3    H117898   7.384   1.024   4.917
 5985TIP3    H217899   7.301   0.945   4.820
 5986TIP3   OH217900   6.390   0.898   4.364
 5986TIP3    H117901   6.351   0.839   4.297
 5986TIP3    H217902   6.467   0.845   4.396
 5987TIP3   OH217903   6.520   1.309   4.511
 5987TIP3    H117904   6.501   1.274   4.423
 5987TIP3    H217905   6.609   1.273   4.529
 5988TIP3   OH217906   6.521   0.869   4.723
 5988TIP3    H117907   6.554   0.839   4.636
 5988TIP3    H217908   6.569   0.953   4.737
 5989TIP3   OH217909   7.051   1.508   4.495
 5989TIP3    H117910   7.039   1.587   4.549
 5989TIP3    H217911   7.036   1.434   4.557
 5990TIP3   OH217912   6.665   1.426   5.042
 5990TIP3    H117913   6.604   1.487   5.088
 5990TIP3    H217914   6.602   1.372   4.991
 5991TIP3   OH217915   6.996   0.758   3.771
 5991TIP3    H117916   7.054   0.820   3.821
 5991TIP3    H217917   7.023   0.779   3.678
 5992TIP3   OH217918   6.413   0.992   5.141
 5992TIP3    H117919   6.417   1.077   5.189
 5992TIP3    H217920   6.319   0.967   5.154
 5993TIP3   OH217921   6.743   1.436   4.049
 5993TIP3    H117922   6.825   1.487   4.057
 5993TIP3    H217923   6.683   1.499   4.006
 5994TIP3   OH217924   6.458   1.592   5.129
 5994TIP3    H117925   6.423   1.594   5.038
 5994TIP3    H217926   6.378   1.570   5.181
 5995TIP3   OH217927   6.256   0.741   4.168
 5995TIP3    H117928   6.188   0.785   4.112
 5995TIP3    H217929   6.221   0.652   4.176
 5996TIP3   OH217930   7.308   1.367   3.371
 5996TIP3    H117931   7.319   1.463   3.355
 5996TIP3    H217932   7.400   1.335   3.359
 5997TIP3   OH217933   6.036   1.126   5.076
 5997TIP3    H117934   5.971   1.104   5.006
 5997TIP3    H217935   6.075   1.039   5.098
 5998TIP3   OH217936   5.892   1.316   4.709
 5998TIP3    H117937   5.988   1.312   4.699
 5998TIP3    H217938   5.882   1.396   4.763
 5999TIP3   OH217939   7.757   1.773   4.766
 5999TIP3    H117940   7.756   1.676   4.780
 5999TIP3    H217941   7.673   1.797   4.811
 6000TIP3   OH217942   6.861   1.555   4.899
 6000TIP3    H117943   6.858   1.648   4.931
 6000TIP3    H217944   6.790   1.514   4.953
 6001TIP3   OH217945   6.625   1.682   3.851
 6001TIP3    H117946   6.579   1.665   3.767
 6001TIP3    H217947   6.591   1.769   3.877
 6002TIP3   OH217948   6.061   1.532   4.237
 6002TIP3    H117949   6.109   1.523   4.322
 6002TIP3    H217950   6.007   1.451   4.238
 6003TIP3   OH217951   6.824   1.585   3.489
 6003TIP3    H117952   6.882   1.515   3.453
 6003TIP3    H217953   6.859   1.595   3.580
 6004TIP3   OH217954   6.876   1.634   3.759
 6004TIP3    H117955   6.787   1.643   3.801
 6004TIP3    H217956   6.927   1.596   3.831
 6005TIP3   OH217957   7.641   0.884   5.041
 6005TIP3    H117958   7.563   0.914   4.992
 6005TIP3    H217959   7.631   0.787   5.033
 6006TIP3   OH217960   6.241   1.309   5.061
 6006TIP3    H117961   6.291   1.293   5.143
 6006TIP3    H217962   6.167   1.245   5.069
 6007TIP3   OH217963   7.425   0.686   4.984
 6007TIP3    H117964   7.385   0.709   5.069
 6007TIP3    H217965   7.400   0.760   4.927
 6008TIP3   OH217966   7.076   0.798   3.516
 6008TIP3    H117967   7.038   0.778   3.429
 6008TIP3    H217968   7.157   0.846   3.491
 6009TIP3   OH217969   6.590   0.655   4.883
 6009TIP3    H117970   6.529   0.674   4.958
 6009TIP3    H217971   6.576   0.733   4.827
 6010TIP3   OH217972   6.457   0.534   4.390
 6010TIP3    H117973   6.361   0.515   4.399
 6010TIP3    H217974   6.473   0.503   4.297
 6011TIP3   OH217975   6.940   0.623   4.109
 6011TIP3    H117976   6.894   0.696   4.062
 6011TIP3    H217977   7.007   0.595   4.043
 6012TIP3   OH217978   7.131   0.928   5.183
 6012TIP3    H117979   7.106   0.846   5.232
 6012TIP3    H217980   7.226   0.933   5.205
 6013TIP3   OH217981   7.085   0.686   4.367
 6013TIP3    H117982   7.030   0.730   4.300
 6013TIP3    H217983   7.108   0.605   4.317
 6014TIP3   OH217984   6.390   0.681   5.077
 6014TIP3    H117985   6.421   0.741   5.146
 6014TIP3    H217986   6.381   0.597   5.125
 6015TIP3   OH217987   6.016   0.295   4.215
 6015TIP3    H117988   6.038   0.298   4.120
 6015TIP3    H217989   5.920   0.305   4.209
 6016TIP3   OH217990   7.108   0.897   4.770
 6016TIP3    H117991   7.147   0.826   4.714
 6016TIP3    H217992   7.086   0.843   4.849
 6017TIP3   OH217993   6.202   0.415   4.431
 6017TIP3    H117994   6.107   0.439   4.417
 6017TIP3    H217995   6.204   0.331   4.383
 6018TIP3   OH217996   6.495   0.431   4.140
 6018TIP3    H117997   6.588   0.416   4.114
 6018TIP3    H217998   6.446   0.419   4.057
 6019TIP3   OH217999   6.330   0.412   3.911
 6019TIP3    H118000   6.258   0.395   3.848
 6019TIP3    H218001   6.391   0.461   3.852
 6020TIP3   OH218002   7.449   2.120   4.865
 6020TIP3    H118003   7.447   2.143   4.770
 6020TIP3    H218004   7.529   2.168   4.895
 6021TIP3   OH218005   6.402   1.233   5.285
 6021TIP3    H118006   6.484   1.260   5.332
 6021TIP3    H218007   6.339   1.232   5.359
 6022TIP3   OH218008   6.854   0.685   4.539
 6022TIP3    H118009   6.939   0.657   4.502
 6022TIP3    H218010   6.859   0.652   4.631
 6023TIP3   OH218011   6.864   0.618   4.800
 6023TIP3    H118012   6.775   0.608   4.839
 6023TIP3    H218013   6.916   0.657   4.873
 6024TIP3   OH218014   6.577   0.971   3.922
 6024TIP3    H118015   6.505   0.906   3.911
 6024TIP3    H218016   6.559   1.004   4.013
 6025TIP3   OH218017   7.477   1.208   4.552
 6025TIP3    H118018   7.501   1.258   4.471
 6025TIP3    H218019   7.393   1.165   4.525
 6026TIP3   OH218020   7.013   0.353   3.744
 6026TIP3    H118021   6.956   0.302   3.805
 6026TIP3    H218022   7.051   0.418   3.806
 6027TIP3   OH218023   6.978   1.290   4.920
 6027TIP3    H118024   7.009   1.269   5.009
 6027TIP3    H218025   6.941   1.379   4.930
 6028TIP3   OH218026   7.116   0.546   3.906
 6028TIP3    H118027   7.213   0.557   3.915
 6028TIP3    H218028   7.091   0.624   3.853
 6029TIP3   OH218029   6.270   0.987   4.597
 6029TIP3    H118030   6.311   0.963   4.511
 6029TIP3    H218031   6.323   0.934   4.659
 6030TIP3   OH218032   6.726   1.120   3.747
 6030TIP3    H118033   6.677   1.206   3.751
 6030TIP3    H218034   6.671   1.065   3.807
 6031TIP3   OH218035   6.154   0.916   5.216
 6031TIP3    H118036   6.177   0.900   5.310
 6031TIP3    H218037   6.086   0.849   5.200
 6032TIP3   OH218038   6.880   1.033   5.236
 6032TIP3    H118039   6.820   0.976   5.184
 6032TIP3    H218040   6.968   1.003   5.203
 6033TIP3   OH218041   7.138   1.550   4.817
 6033TIP3    H118042   7.042   1.548   4.831
 6033TIP3    H218043   7.166   1.602   4.896
 6034TIP3   OH218044   7.546   0.618   3.712
 6034TIP3    H118045   7.485   0.571   3.651
 6034TIP3    H218046   7.536   0.710   3.678
 6035TIP3   OH218047   7.771   1.485   4.803
 6035TIP3    H118048   7.673   1.475   4.793
 6035TIP3    H218049   7.800   1.455   4.714
 6036TIP3   OH218050   7.249   1.441   3.636
 6036TIP3    H118051   7.224   1.370   3.696
 6036TIP3    H218052   7.261   1.394   3.551
 6037TIP3   OH218053   7.245   1.072   4.468
 6037TIP3    H118054   7.152   1.046   4.482
 6037TIP3    H218055   7.280   0.992   4.423
 6038TIP3   OH218056   6.376   1.299   4.226
 6038TIP3    H118057   6.374   1.379   4.170
 6038TIP3    H218058   6.282   1.281   4.236
 6039TIP3   OH218059   5.935   0.601   3.930
 6039TIP3    H118060   5.982   0.685   3.950
 6039TIP3    H218061   5.860   0.607   3.993
 6040TIP3   OH218062   6.506   1.061   4.165
 6040TIP3    H118063   6.474   1.151   4.186
 6040TIP3    H218064   6.473   1.010   4.242
 6041TIP3   OH218065   6.644   1.640   4.693
 6041TIP3    H118066   6.687   1.713   4.643
 6041TIP3    H218067   6.721   1.603   4.740
 6042TIP3   OH218068   6.292   1.537   4.076
 6042TIP3    H118069   6.207   1.546   4.123
 6042TIP3    H218070   6.325   1.629   4.079
 6043TIP3   OH218071   7.029   1.275   4.653
 6043TIP3    H118072   7.018   1.273   4.750
 6043TIP3    H218073   7.108   1.221   4.641
 6044TIP3   OH218074   7.008   1.170   3.537
 6044TIP3    H118075   7.061   1.144   3.616
 6044TIP3    H218076   6.919   1.141   3.565
 6045TIP3   OH218077   7.279   1.806   4.702
 6045TIP3    H118078   7.199   1.751   4.697
 6045TIP3    H218079   7.263   1.871   4.630
 6046TIP3   OH218080   7.345   1.643   3.354
 6046TIP3    H118081   7.377   1.718   3.302
 6046TIP3    H218082   7.263   1.684   3.391
 6047TIP3   OH218083   7.168   1.102   3.751
 6047TIP3    H118084   7.158   1.035   3.822
 6047TIP3    H218085   7.265   1.099   3.738
 6048TIP3   OH218086   6.081   1.501   4.851
 6048TIP3    H118087   6.137   1.430   4.888
 6048TIP3    H218088   6.109   1.576   4.906
 6049TIP3   OH218089   6.370   1.148   3.536
 6049TIP3    H118090   6.384   1.056   3.509
 6049TIP3    H218091   6.350   1.138   3.631
 6050TIP3   OH218092   6.314   1.153   3.809
 6050TIP3    H118093   6.391   1.127   3.863
 6050TIP3    H218094   6.318   1.251   3.816
 6051TIP3   OH218095   6.048   0.844   4.012
 6051TIP3    H118096   5.983   0.892   4.068
 6051TIP3    H218097   6.064   0.912   3.944
 6052TIP3   OH218098   6.582   1.349   3.756
 6052TIP3    H118099   6.496   1.375   3.792
 6052TIP3    H218100   6.599   1.423   3.696
 6053TIP3   OH218101   6.780   0.404   4.130
 6053TIP3    H118102   6.832   0.487   4.127
 6053TIP3    H218103   6.799   0.374   4.221
 6054TIP3   OH218104   7.055   0.734   4.981
 6054TIP3    H118105   7.050   0.792   5.059
 6054TIP3    H218106   7.101   0.657   5.018
 6055TIP3   OH218107   6.328   1.425   3.825
 6055TIP3    H118108   6.298   1.496   3.763
 6055TIP3    H218109   6.312   1.469   3.912
 6056TIP3   OH218110   7.331   0.831   4.347
 6056TIP3    H118111   7.253   0.778   4.369
 6056TIP3    H218112   7.403   0.784   4.396
 6057TIP3   OH218113   6.045   1.051   3.816
 6057TIP3    H118114   6.114   1.119   3.825
 6057TIP3    H218115   6.089   0.994   3.749
 6058TIP3   OH218116   5.983   0.331   3.946
 6058TIP3    H118117   5.983   0.428   3.933
 6058TIP3    H218118   5.901   0.305   3.904
 6059TIP3   OH218119   7.300   1.785   4.294
 6059TIP3    H118120   7.257   1.831   4.219
 6059TIP3    H218121   7.394   1.806   4.274
 6060TIP3   OH218122   5.910   1.265   4.200
 6060TIP3    H118123   5.847   1.298   4.265
 6060TIP3    H218124   5.879   1.310   4.118
 6061TIP3   OH218125   6.074   1.816   5.275
 6061TIP3    H118126   6.161   1.818   5.322
 6061TIP3    H218127   6.056   1.721   5.273
 6062TIP3   OH218128   6.550   1.772   5.320
 6062TIP3    H118129   6.645   1.756   5.326
 6062TIP3    H218130   6.525   1.712   5.248
 6063TIP3   OH218131   6.534   1.351   3.446
 6063TIP3    H118132   6.479   1.278   3.484
 6063TIP3    H218133   6.610   1.299   3.412
 6064TIP3   OH218134   7.191   1.683   5.054
 6064TIP3    H118135   7.183   1.613   5.123
 6064TIP3    H218136   7.268   1.734   5.084
 6065TIP3   OH218137   6.969   1.389   3.360
 6065TIP3    H118138   7.012   1.326   3.420
 6065TIP3    H218139   7.026   1.386   3.281
 6066TIP3   OH218140   6.201   1.218   5.477
 6066TIP3    H118141   6.218   1.122   5.481
 6066TIP3    H218142   6.115   1.221   5.430
 6067TIP3   OH218143   6.180   0.865   3.672
 6067TIP3    H118144   6.239   0.836   3.745
 6067TIP3    H218145   6.246   0.871   3.599
 6068TIP3   OH218146   6.808   1.306   5.250
 6068TIP3    H118147   6.769   1.324   5.163
 6068TIP3    H218148   6.839   1.213   5.241
 6069TIP3   OH218149   6.694   1.069   3.478
 6069TIP3    H118150   6.696   1.080   3.575
 6069TIP3    H218151   6.696   0.971   3.472
 6070TIP3   OH218152   7.301   1.317   4.856
 6070TIP3    H118153   7.378   1.359   4.813
 6070TIP3    H218154   7.232   1.383   4.839
 6071TIP3   OH218155   6.327   0.950   5.458
 6071TIP3    H118156   6.410   0.907   5.433
 6071TIP3    H218157   6.350   0.985   5.546
 6072TIP3   OH218158   6.382   0.774   3.888
 6072TIP3    H118159   6.364   0.735   3.975
 6072TIP3    H218160   6.422   0.700   3.839
 6073TIP3   OH218161   6.654   0.865   5.117
 6073TIP3    H118162   6.573   0.919   5.111
 6073TIP3    H218163   6.704   0.893   5.036
 6074TIP3   OH218164   6.487   0.566   3.738
 6074TIP3    H118165   6.462   0.573   3.643
 6074TIP3    H218166   6.585   0.569   3.730
 6075TIP3   OH218167   7.178   1.242   5.253
 6075TIP3    H118168   7.249   1.205   5.199
 6075TIP3    H218169   7.165   1.172   5.319
 6076TIP3   OH218170   7.306   0.893   3.396
 6076TIP3    H118171   7.289   0.852   3.309
 6076TIP3    H218172   7.274   0.985   3.376
 6077TIP3   OH218173   6.740   0.643   5.242
 6077TIP3    H118174   6.693   0.581   5.183
 6077TIP3    H218175   6.714   0.729   5.199
 6078TIP3   OH218176   6.818   0.955   4.922
 6078TIP3    H118177   6.900   0.958   4.872
 6078TIP3    H218178   6.761   1.018   4.874
 6079TIP3   OH218179   7.383   0.916   5.284
 6079TIP3    H118180   7.415   0.860   5.358
 6079TIP3    H218181   7.463   0.965   5.259
 6080TIP3   OH218182   7.433   1.170   5.041
 6080TIP3    H118183   7.375   1.224   4.983
 6080TIP3    H218184   7.521   1.193   5.001
 6081TIP3   OH218185   6.617   0.770   5.469
 6081TIP3    H118186   6.590   0.690   5.514
 6081TIP3    H218187   6.679   0.736   5.402
 6082TIP3   OH218188   7.023   0.701   5.276
 6082TIP3    H118189   7.054   0.667   5.362
 6082TIP3    H218190   6.928   0.683   5.281
 6083TIP3   OH218191   6.298   1.629   3.638
 6083TIP3    H118192   6.393   1.620   3.618
 6083TIP3    H218193   6.270   1.680   3.559
 6084TIP3   OH218194   5.776   1.010   3.853
 6084TIP3    H118195   5.871   1.032   3.837
 6084TIP3    H218196   5.770   0.921   3.811
 6085TIP3   OH218197   5.693   1.622   4.269
 6085TIP3    H118198   5.627   1.561   4.229
 6085TIP3    H218199   5.737   1.562   4.333
 6086TIP3   OH218200   5.828   1.468   4.454
 6086TIP3    H118201   5.814   1.399   4.521
 6086TIP3    H218202   5.880   1.532   4.505
 6087TIP3   OH218203   7.553   1.876   4.254
 6087TIP3    H118204   7.584   1.908   4.340
 6087TIP3    H218205   7.624   1.904   4.194
 6088TIP3   OH218206   7.581   1.894   4.538
 6088TIP3    H118207   7.537   1.807   4.533
 6088TIP3    H218208   7.661   1.869   4.587
 6089TIP3   OH218209   7.630   1.569   5.111
 6089TIP3    H118210   7.557   1.579   5.176
 6089TIP3    H218211   7.670   1.658   5.113
 6090TIP3   OH218212   7.445   1.086   3.723
 6090TIP3    H118213   7.513   1.150   3.694
 6090TIP3    H218214   7.487   1.051   3.805
 6091TIP3   OH218215   7.565   0.967   3.936
 6091TIP3    H118216   7.497   0.919   3.989
 6091TIP3    H218217   7.625   1.000   4.005
 6092TIP3   OH218218   7.629   1.344   4.364
 6092TIP3    H118219   7.679   1.279   4.311
 6092TIP3    H218220   7.625   1.420   4.304
 6093TIP3   OH218221   7.457   1.643   4.558
 6093TIP3    H118222   7.385   1.685   4.609
 6093TIP3    H218223   7.407   1.597   4.487
 6094TIP3   OH218224   7.503   0.857   3.579
 6094TIP3    H118225   7.435   0.865   3.509
 6094TIP3    H218226   7.480   0.935   3.634
 6095TIP3   OH218227   7.373   0.518   3.520
 6095TIP3    H118228   7.356   0.596   3.466
 6095TIP3    H218229   7.326   0.449   3.471
 6096TIP3   OH218230   7.384   0.821   4.075
 6096TIP3    H118231   7.389   0.727   4.051
 6096TIP3    H218232   7.372   0.819   4.173
 6097TIP3   OH218233   6.011   0.881   4.825
 6097TIP3    H118234   6.011   0.852   4.732
 6097TIP3    H218235   6.108   0.883   4.843
 6098TIP3   OH218236   7.679   1.234   4.934
 6098TIP3    H118237   7.750   1.167   4.926
 6098TIP3    H218238   7.705   1.300   4.868
 6099TIP3   OH218239   7.855   1.030   4.959
 6099TIP3    H118240   7.781   0.976   4.992
 6099TIP3    H218241   7.929   0.968   4.974
 6100TIP3   OH218242   7.387   0.572   3.944
 6100TIP3    H118243   7.415   0.493   3.996
 6100TIP3    H218244   7.452   0.572   3.871
 6101TIP3   OH218245   7.541   0.709   4.472
 6101TIP3    H118246   7.625   0.732   4.427
 6101TIP3    H218247   7.561   0.738   4.563
 6102TIP3   OH218248   7.605   0.852   4.704
 6102TIP3    H118249   7.526   0.887   4.750
 6102TIP3    H218250   7.637   0.930   4.654
 6103TIP3   OH218251   6.227   0.562   5.502
 6103TIP3    H118252   6.318   0.540   5.481
 6103TIP3    H218253   6.194   0.477   5.537
 6104TIP3   OH218254   5.986   0.533   4.899
 6104TIP3    H118255   6.036   0.536   4.815
 6104TIP3    H218256   6.021   0.611   4.944
 6105TIP3   OH218257   7.137   1.742   3.910
 6105TIP3    H118258   7.189   1.730   3.828
 6105TIP3    H218259   7.191   1.806   3.959
 6106TIP3   OH218260   6.237   1.547   5.293
 6106TIP3    H118261   6.145   1.521   5.278
 6106TIP3    H218262   6.249   1.528   5.387
 6107TIP3   OH218263   6.418   1.580   4.842
 6107TIP3    H118264   6.371   1.656   4.803
 6107TIP3    H218265   6.504   1.592   4.798
 6108TIP3   OH218266   6.858   1.822   4.980
 6108TIP3    H118267   6.901   1.821   5.068
 6108TIP3    H218268   6.924   1.873   4.929
 6109TIP3   OH218269   7.038   1.975   4.841
 6109TIP3    H118270   7.108   1.924   4.798
 6109TIP3    H218271   7.091   2.032   4.902
 6110TIP3   OH218272   6.091   1.833   4.868
 6110TIP3    H118273   6.001   1.865   4.846
 6110TIP3    H218274   6.106   1.880   4.951
 6111TIP3   OH218275   6.329   1.813   4.726
 6111TIP3    H118276   6.241   1.825   4.769
 6111TIP3    H218277   6.310   1.845   4.635
 6112TIP3   OH218278   6.754   1.839   4.524
 6112TIP3    H118279   6.685   1.858   4.458
 6112TIP3    H218280   6.766   1.927   4.565
 6113TIP3   OH218281   7.024   1.779   4.576
 6113TIP3    H118282   6.930   1.797   4.556
 6113TIP3    H218283   7.069   1.852   4.531
 6114TIP3   OH218284   7.228   1.970   4.488
 6114TIP3    H118285   7.215   2.054   4.439
 6114TIP3    H218286   7.256   1.910   4.415
 6115TIP3   OH218287   6.004   1.626   4.610
 6115TIP3    H118288   6.030   1.599   4.701
 6115TIP3    H218289   6.076   1.583   4.559
 6116TIP3   OH218290   6.199   1.499   4.470
 6116TIP3    H118291   6.215   1.415   4.519
 6116TIP3    H218292   6.290   1.535   4.466
 6117TIP3   OH218293   6.466   1.592   4.475
 6117TIP3    H118294   6.497   1.500   4.464
 6117TIP3    H218295   6.514   1.614   4.557
 6118TIP3   OH218296   5.791   1.403   4.001
 6118TIP3    H118297   5.705   1.371   3.968
 6118TIP3    H218298   5.783   1.497   3.976
 6119TIP3   OH218299   6.565   1.584   3.585
 6119TIP3    H118300   6.653   1.608   3.549
 6119TIP3    H218301   6.543   1.510   3.524
 6120TIP3   OH218302   7.284   1.707   3.679
 6120TIP3    H118303   7.276   1.609   3.668
 6120TIP3    H218304   7.238   1.738   3.598
 6121TIP3   OH218305   5.867   1.421   3.638
 6121TIP3    H118306   5.872   1.445   3.732
 6121TIP3    H218307   5.955   1.379   3.623
 6122TIP3   OH218308   7.508   1.850   4.865
 6122TIP3    H118309   7.431   1.819   4.814
 6122TIP3    H218310   7.488   1.945   4.870
 6123TIP3   OH218311   8.025   1.505   4.142
 6123TIP3    H118312   7.993   1.438   4.081
 6123TIP3    H218313   8.118   1.513   4.114
 6124TIP3   OH218314   7.753   0.763   3.921
 6124TIP3    H118315   7.677   0.821   3.902
 6124TIP3    H218316   7.737   0.688   3.862
 6125TIP3   OH218317   7.829   1.014   4.060
 6125TIP3    H118318   7.834   0.919   4.041
 6125TIP3    H218319   7.867   1.052   3.979
 6126TIP3   OH218320   7.648   1.250   3.619
 6126TIP3    H118321   7.604   1.281   3.538
 6126TIP3    H218322   7.675   1.337   3.659
 6127TIP3   OH218323   8.217   1.865   4.587
 6127TIP3    H118324   8.185   1.886   4.499
 6127TIP3    H218325   8.137   1.866   4.641
 6128TIP3   OH218326   7.838   1.389   4.558
 6128TIP3    H118327   7.767   1.361   4.497
 6128TIP3    H218328   7.871   1.304   4.595
 6129TIP3   OH218329   7.693   1.575   4.197
 6129TIP3    H118330   7.790   1.574   4.193
 6129TIP3    H218331   7.678   1.652   4.252
 6130TIP3   OH218332   7.826   1.783   3.718
 6130TIP3    H118333   7.911   1.795   3.763
 6130TIP3    H218334   7.791   1.707   3.766
 6131TIP3   OH218335   8.045   1.567   4.533
 6131TIP3    H118336   8.096   1.540   4.612
 6131TIP3    H218337   7.968   1.507   4.539
 6132TIP3   OH218338   7.815   0.547   3.693
 6132TIP3    H118339   7.831   0.558   3.597
 6132TIP3    H218340   7.718   0.560   3.697
 6133TIP3   OH218341   8.186   1.477   4.752
 6133TIP3    H118342   8.259   1.534   4.781
 6133TIP3    H218343   8.135   1.467   4.835
 6134TIP3   OH218344   7.929   1.181   4.705
 6134TIP3    H118345   7.975   1.170   4.791
 6134TIP3    H218346   7.875   1.101   4.700
 6135TIP3   OH218347   7.727   0.848   3.416
 6135TIP3    H118348   7.777   0.931   3.436
 6135TIP3    H218349   7.653   0.858   3.480
 6136TIP3   OH218350   7.873   1.758   4.342
 6136TIP3    H118351   7.933   1.691   4.378
 6136TIP3    H218352   7.906   1.839   4.382
 6137TIP3   OH218353   7.828   1.093   3.482
 6137TIP3    H118354   7.768   1.140   3.544
 6137TIP3    H218355   7.835   1.157   3.409
 6138TIP3   OH218356   7.829   1.294   3.291
 6138TIP3    H118357   7.903   1.350   3.321
 6138TIP3    H218358   7.850   1.286   3.195
 6139TIP3   OH218359   7.790   0.583   3.417
 6139TIP3    H118360   7.781   0.681   3.415
 6139TIP3    H218361   7.700   0.554   3.401
 6140TIP3   OH218362   7.691   1.508   3.690
 6140TIP3    H118363   7.630   1.554   3.750
 6140TIP3    H218364   7.682   1.563   3.609
 6141TIP3   OH218365   7.867   2.069   4.763
 6141TIP3    H118366   7.955   2.061   4.805
 6141TIP3    H218367   7.840   1.975   4.760
 6142TIP3   OH218368   7.995   1.473   4.966
 6142TIP3    H118369   8.013   1.377   4.965
 6142TIP3    H218370   7.911   1.477   4.915
 6143TIP3   OH218371   8.107   1.215   4.945
 6143TIP3    H118372   8.176   1.152   4.922
 6143TIP3    H218373   8.138   1.246   5.033
 6144TIP3   OH218374   7.561   1.263   3.339
 6144TIP3    H118375   7.657   1.279   3.323
 6144TIP3    H218376   7.553   1.172   3.301
 6145TIP3   OH218377   7.488   1.879   3.756
 6145TIP3    H118378   7.422   1.817   3.719
 6145TIP3    H218379   7.536   1.820   3.818
 6146TIP3   OH218380   7.623   1.722   3.939
 6146TIP3    H118381   7.614   1.654   4.008
 6146TIP3    H218382   7.677   1.788   3.987
 6147TIP3   OH218383   7.818   1.136   4.309
 6147TIP3    H118384   7.812   1.091   4.221
 6147TIP3    H218385   7.911   1.160   4.310
 6148TIP3   OH218386   8.025   0.820   4.993
 6148TIP3    H118387   8.118   0.796   4.986
 6148TIP3    H218388   7.987   0.734   5.021
 6149TIP3   OH218389   7.786   0.790   4.372
 6149TIP3    H118390   7.860   0.764   4.318
 6149TIP3    H218391   7.818   0.869   4.417
 6150TIP3   OH218392   8.032   1.809   4.787
 6150TIP3    H118393   7.943   1.777   4.760
 6150TIP3    H218394   8.038   1.773   4.876
 6151TIP3   OH218395   7.875   2.076   4.363
 6151TIP3    H118396   7.790   2.116   4.336
 6151TIP3    H218397   7.900   2.136   4.435
 6152TIP3   OH218398   8.133   2.062   4.232
 6152TIP3    H118399   8.040   2.070   4.258
 6152TIP3    H218400   8.130   2.095   4.140
 6153TIP3   OH218401   7.792   1.886   4.100
 6153TIP3    H118402   7.824   1.864   4.190
 6153TIP3    H218403   7.864   1.844   4.047
 6154TIP3   OH218404   7.979   1.750   3.958
 6154TIP3    H118405   7.990   1.657   3.984
 6154TIP3    H218406   8.070   1.770   3.927
 6155TIP3   OH218407   7.596   1.654   3.475
 6155TIP3    H118408   7.506   1.628   3.448
 6155TIP3    H218409   7.588   1.751   3.472
 6156TIP3   OH218410   7.667   1.690   3.142
 6156TIP3    H118411   7.632   1.720   3.228
 6156TIP3    H218412   7.732   1.624   3.169
 6157TIP3   OH218413   1.226   2.008   5.323
 6157TIP3    H118414   1.205   2.101   5.299
 6157TIP3    H218415   1.147   1.964   5.288
 6158TIP3   OH218416   1.236   2.008   5.701
 6158TIP3    H118417   1.263   1.985   5.791
 6158TIP3    H218418   1.186   1.929   5.673
 6159TIP3   OH218419   0.534   1.909   6.067
 6159TIP3    H118420   0.575   1.844   6.125
 6159TIP3    H218421   0.611   1.962   6.042
 6160TIP3   OH218422   1.479   2.312   5.384
 6160TIP3    H118423   1.447   2.253   5.453
 6160TIP3    H218424   1.497   2.394   5.433
 6161TIP3   OH218425   0.502   2.318   5.795
 6161TIP3    H118426   0.496   2.220   5.795
 6161TIP3    H218427   0.598   2.328   5.778
 6162TIP3   OH218428   0.266   1.824   5.763
 6162TIP3    H118429   0.322   1.753   5.801
 6162TIP3    H218430   0.307   1.840   5.678
 6163TIP3   OH218431   1.022   2.237   5.753
 6163TIP3    H118432   1.061   2.167   5.698
 6163TIP3    H218433   1.105   2.281   5.781
 6164TIP3   OH218434   2.043   1.556   5.750
 6164TIP3    H118435   2.071   1.640   5.792
 6164TIP3    H218436   2.062   1.575   5.656
 6165TIP3   OH218437   1.440   1.736   5.781
 6165TIP3    H118438   1.481   1.649   5.800
 6165TIP3    H218439   1.407   1.721   5.691
 6166TIP3   OH218440   0.798   1.412   5.737
 6166TIP3    H118441   0.773   1.482   5.672
 6166TIP3    H218442   0.763   1.333   5.689
 6167TIP3   OH218443   1.474   1.486   5.367
 6167TIP3    H118444   1.545   1.474   5.435
 6167TIP3    H218445   1.526   1.526   5.295
 6168TIP3   OH218446   0.417   1.619   5.868
 6168TIP3    H118447   0.497   1.575   5.904
 6168TIP3    H218448   0.389   1.558   5.799
 6169TIP3   OH218449   0.852   1.801   5.650
 6169TIP3    H118450   0.946   1.776   5.663
 6169TIP3    H218451   0.815   1.719   5.612
 6170TIP3   OH218452   2.114   1.765   5.920
 6170TIP3    H118453   2.031   1.813   5.899
 6170TIP3    H218454   2.135   1.804   6.007
 6171TIP3   OH218455   0.793   1.375   6.169
 6171TIP3    H118456   0.740   1.420   6.101
 6171TIP3    H218457   0.732   1.376   6.244
 6172TIP3   OH218458   1.140   2.237   5.191
 6172TIP3    H118459   1.081   2.244   5.116
 6172TIP3    H218460   1.127   2.328   5.228
 6173TIP3   OH218461   0.879   2.158   5.975
 6173TIP3    H118462   0.819   2.227   6.010
 6173TIP3    H218463   0.921   2.204   5.899
 6174TIP3   OH218464   1.678   1.492   5.547
 6174TIP3    H118465   1.653   1.457   5.634
 6174TIP3    H218466   1.729   1.572   5.571
 6175TIP3   OH218467   0.661   1.496   5.956
 6175TIP3    H118468   0.709   1.575   5.988
 6175TIP3    H218469   0.720   1.471   5.881
 6176TIP3   OH218470   0.707   2.354   6.078
 6176TIP3    H118471   0.684   2.439   6.035
 6176TIP3    H218472   0.626   2.340   6.131
 6177TIP3   OH218473   0.118   2.031   5.318
 6177TIP3    H118474   0.073   2.047   5.233
 6177TIP3    H218475   0.137   2.122   5.348
 6178TIP3   OH218476   1.552   2.559   5.546
 6178TIP3    H118477   1.466   2.548   5.594
 6178TIP3    H218478   1.536   2.644   5.500
 6179TIP3   OH218479   1.834   1.452   5.912
 6179TIP3    H118480   1.747   1.482   5.882
 6179TIP3    H218481   1.894   1.488   5.843
 6180TIP3   OH218482   1.145   1.123   5.894
 6180TIP3    H118483   1.114   1.031   5.886
 6180TIP3    H218484   1.065   1.163   5.933
 6181TIP3   OH218485   1.413   2.352   5.096
 6181TIP3    H118486   1.320   2.330   5.107
 6181TIP3    H218487   1.441   2.355   5.190
 6182TIP3   OH218488   1.767   2.467   5.894
 6182TIP3    H118489   1.753   2.391   5.833
 6182TIP3    H218490   1.746   2.543   5.836
 6183TIP3   OH218491   1.055   1.860   5.152
 6183TIP3    H118492   0.977   1.916   5.134
 6183TIP3    H218493   1.105   1.868   5.069
 6184TIP3   OH218494   1.017   1.650   4.865
 6184TIP3    H118495   1.080   1.703   4.917
 6184TIP3    H218496   1.078   1.592   4.815
 6185TIP3   OH218497   1.962   2.107   5.741
 6185TIP3    H118498   1.878   2.158   5.744
 6185TIP3    H218499   1.993   2.132   5.651
 6186TIP3   OH218500   1.404   1.938   5.128
 6186TIP3    H118501   1.351   1.969   5.204
 6186TIP3    H218502   1.491   1.924   5.169
 6187TIP3   OH218503   1.641   1.982   6.038
 6187TIP3    H118504   1.638   2.067   6.086
 6187TIP3    H218505   1.554   1.986   5.992
 6188TIP3   OH218506   0.636   1.941   5.541
 6188TIP3    H118507   0.598   1.883   5.472
 6188TIP3    H218508   0.714   1.889   5.571
 6189TIP3   OH218509   0.763   2.346   5.692
 6189TIP3    H118510   0.747   2.320   5.600
 6189TIP3    H218511   0.854   2.314   5.707
 6190TIP3   OH218512   0.778   1.914   5.898
 6190TIP3    H118513   0.807   1.892   5.807
 6190TIP3    H218514   0.819   2.002   5.913
 6191TIP3   OH218515   1.325   2.549   5.687
 6191TIP3    H118516   1.284   2.630   5.721
 6191TIP3    H218517   1.288   2.478   5.742
 6192TIP3   OH218518   0.914   2.470   6.221
 6192TIP3    H118519   0.852   2.532   6.264
 6192TIP3    H218520   0.851   2.416   6.168
 6193TIP3   OH218521   1.249   1.798   4.951
 6193TIP3    H118522   1.306   1.860   5.001
 6193TIP3    H218523   1.275   1.821   4.858
 6194TIP3   OH218524   0.688   2.031   6.316
 6194TIP3    H118525   0.684   2.119   6.357
 6194TIP3    H218526   0.594   2.003   6.320
 6195TIP3   OH218527   0.707   2.637   6.306
 6195TIP3    H118528   0.674   2.643   6.214
 6195TIP3    H218529   0.625   2.621   6.356
 6196TIP3   OH218530   1.716   1.045   4.970
 6196TIP3    H118531   1.687   1.085   5.055
 6196TIP3    H218532   1.766   1.122   4.931
 6197TIP3   OH218533   0.509   1.786   5.340
 6197TIP3    H118534   0.440   1.829   5.286
 6197TIP3    H218535   0.469   1.700   5.358
 6198TIP3   OH218536   1.561   2.408   4.545
 6198TIP3    H118537   1.567   2.504   4.528
 6198TIP3    H218538   1.654   2.381   4.535
 6199TIP3   OH218539   0.308   2.155   6.245
 6199TIP3    H118540   0.244   2.144   6.174
 6199TIP3    H218541   0.319   2.064   6.274
 6200TIP3   OH218542   0.146   2.389   5.868
 6200TIP3    H118543   0.224   2.334   5.853
 6200TIP3    H218544   0.178   2.447   5.939
 6201TIP3   OH218545   2.005   2.817   5.945
 6201TIP3    H118546   2.001   2.720   5.957
 6201TIP3    H218547   1.920   2.843   5.988
 6202TIP3   OH218548   1.111   2.597   6.077
 6202TIP3    H118549   1.107   2.690   6.108
 6202TIP3    H218550   1.039   2.557   6.130
 6203TIP3   OH218551   0.819   2.727   5.012
 6203TIP3    H118552   0.820   2.729   4.915
 6203TIP3    H218553   0.829   2.820   5.037
 6204TIP3   OH218554   0.310   2.577   5.414
 6204TIP3    H118555   0.357   2.569   5.500
 6204TIP3    H218556   0.263   2.491   5.411
 6205TIP3   OH218557   1.071   2.630   4.672
 6205TIP3    H118558   1.131   2.561   4.638
 6205TIP3    H218559   1.103   2.642   4.764
 6206TIP3   OH218560   1.108   2.682   4.951
 6206TIP3    H118561   1.028   2.666   5.005
 6206TIP3    H218562   1.170   2.647   5.018
 6207TIP3   OH218563   1.893   1.943   6.217
 6207TIP3    H118564   1.810   1.956   6.169
 6207TIP3    H218565   1.907   1.846   6.207
 6208TIP3   OH218566   0.487   2.360   6.249
 6208TIP3    H118567   0.545   2.331   6.322
 6208TIP3    H218568   0.419   2.289   6.248
 6209TIP3   OH218569   0.897   1.183   5.996
 6209TIP3    H118570   0.810   1.142   5.975
 6209TIP3    H218571   0.869   1.254   6.057
 6210TIP3   OH218572   1.460   1.292   6.207
 6210TIP3    H118573   1.523   1.263   6.276
 6210TIP3    H218574   1.373   1.279   6.250
 6211TIP3   OH218575   1.661   1.720   6.138
 6211TIP3    H118576   1.610   1.719   6.223
 6211TIP3    H218577   1.638   1.808   6.102
 6212TIP3   OH218578   1.318   1.836   4.691
 6212TIP3    H118579   1.292   1.820   4.599
 6212TIP3    H218580   1.395   1.894   4.679
 6213TIP3   OH218581   1.050   1.209   4.994
 6213TIP3    H118582   1.016   1.212   5.085
 6213TIP3    H218583   0.991   1.141   4.956
 6214TIP3   OH218584   0.831   1.693   6.044
 6214TIP3    H118585   0.785   1.715   6.127
 6214TIP3    H218586   0.815   1.775   5.991
 6215TIP3   OH218587   0.720   1.584   5.544
 6215TIP3    H118588   0.629   1.551   5.558
 6215TIP3    H218589   0.737   1.541   5.457
 6216TIP3   OH218590   1.197   1.664   5.284
 6216TIP3    H118591   1.144   1.736   5.244
 6216TIP3    H218592   1.251   1.635   5.209
 6217TIP3   OH218593   1.370   1.938   6.370
 6217TIP3    H118594   1.347   1.866   6.433
 6217TIP3    H218595   1.464   1.953   6.393
 6218TIP3   OH218596   1.352   1.690   5.525
 6218TIP3    H118597   1.292   1.726   5.457
 6218TIP3    H218598   1.382   1.610   5.477
 6219TIP3   OH218599   0.651   1.729   6.244
 6219TIP3    H118600   0.662   1.790   6.319
 6219TIP3    H218601   0.568   1.684   6.265
 6220TIP3   OH218602   0.706   1.193   4.970
 6220TIP3    H118603   0.680   1.183   5.064
 6220TIP3    H218604   0.629   1.245   4.937
 6221TIP3   OH218605   1.365   1.934   5.947
 6221TIP3    H118606   1.397   1.863   5.887
 6221TIP3    H218607   1.331   1.880   6.022
 6222TIP3   OH218608   1.050   1.394   5.613
 6222TIP3    H118609   0.966   1.399   5.664
 6222TIP3    H218610   1.116   1.397   5.684
 6223TIP3   OH218611   0.495   1.440   5.587
 6223TIP3    H118612   0.399   1.438   5.605
 6223TIP3    H218613   0.523   1.352   5.615
 6224TIP3   OH218614   0.743   1.453   5.307
 6224TIP3    H118615   0.834   1.475   5.278
 6224TIP3    H218616   0.688   1.476   5.229
 6225TIP3   OH218617   1.525   1.472   5.817
 6225TIP3    H118618   1.495   1.489   5.909
 6225TIP3    H218619   1.452   1.415   5.786
 6226TIP3   OH218620   0.577   1.491   5.098
 6226TIP3    H118621   0.505   1.440   5.057
 6226TIP3    H218622   0.628   1.518   5.018
 6227TIP3   OH218623   1.698   3.163   6.041
 6227TIP3    H118624   1.694   3.188   5.947
 6227TIP3    H218625   1.777   3.213   6.070
 6228TIP3   OH218626   0.653   2.276   6.459
 6228TIP3    H118627   0.734   2.303   6.505
 6228TIP3    H218628   0.590   2.275   6.534
 6229TIP3   OH218629   1.114   1.727   5.716
 6229TIP3    H118630   1.191   1.690   5.670
 6229TIP3    H218631   1.120   1.685   5.805
 6230TIP3   OH218632   0.718   1.220   5.562
 6230TIP3    H118633   0.669   1.141   5.584
 6230TIP3    H218634   0.794   1.184   5.515
 6231TIP3   OH218635   1.096   1.631   6.000
 6231TIP3    H118636   1.005   1.663   6.014
 6231TIP3    H218637   1.150   1.694   6.052
 6232TIP3   OH218638   0.828   2.015   5.100
 6232TIP3    H118639   0.757   1.947   5.089
 6232TIP3    H218640   0.808   2.049   5.191
 6233TIP3   OH218641   1.728   2.249   5.728
 6233TIP3    H118642   1.749   2.302   5.648
 6233TIP3    H218643   1.642   2.208   5.703
 6234TIP3   OH218644   1.284   1.336   4.921
 6234TIP3    H118645   1.193   1.311   4.952
 6234TIP3    H218646   1.299   1.421   4.967
 6235TIP3   OH218647   1.224   2.331   6.102
 6235TIP3    H118648   1.256   2.320   6.192
 6235TIP3    H218649   1.192   2.423   6.102
 6236TIP3   OH218650   1.356   1.566   5.062
 6236TIP3    H118651   1.451   1.580   5.082
 6236TIP3    H218652   1.333   1.649   5.016
 6237TIP3   OH218653   0.527   2.045   5.776
 6237TIP3    H118654   0.561   2.015   5.690
 6237TIP3    H218655   0.555   1.973   5.835
 6238TIP3   OH218656   0.964   2.166   4.914
 6238TIP3    H118657   0.913   2.249   4.924
 6238TIP3    H218658   0.921   2.110   4.983
 6239TIP3   OH218659   0.448   1.910   6.398
 6239TIP3    H118660   0.479   1.942   6.485
 6239TIP3    H218661   0.351   1.916   6.412
 6240TIP3   OH218662   1.129   2.074   6.410
 6240TIP3    H118663   1.066   2.012   6.369
 6240TIP3    H218664   1.214   2.037   6.378
 6241TIP3   OH218665   1.391   2.584   6.007
 6241TIP3    H118666   1.294   2.590   6.009
 6241TIP3    H218667   1.415   2.644   6.080
 6242TIP3   OH218668   1.794   1.670   4.906
 6242TIP3    H118669   1.734   1.626   4.841
 6242TIP3    H218670   1.791   1.760   4.865
 6243TIP3   OH218671   2.017   2.524   5.983
 6243TIP3    H118672   1.919   2.519   5.973
 6243TIP3    H218673   2.044   2.494   5.893
 6244TIP3   OH218674   1.500   2.485   4.819
 6244TIP3    H118675   1.470   2.425   4.889
 6244TIP3    H218676   1.507   2.427   4.741
 6245TIP3   OH218677   1.495   2.112   5.651
 6245TIP3    H118678   1.401   2.089   5.662
 6245TIP3    H218679   1.527   2.035   5.600
 6246TIP3   OH218680   0.629   2.343   5.405
 6246TIP3    H118681   0.634   2.423   5.350
 6246TIP3    H218682   0.534   2.331   5.413
 6247TIP3   OH218683   0.170   1.649   5.119
 6247TIP3    H118684   0.239   1.719   5.119
 6247TIP3    H218685   0.106   1.693   5.178
 6248TIP3   OH218686   0.754   2.102   5.343
 6248TIP3    H118687   0.725   2.194   5.363
 6248TIP3    H218688   0.718   2.054   5.420
 6249TIP3   OH218689   0.892   2.684   5.869
 6249TIP3    H118690   0.932   2.757   5.817
 6249TIP3    H218691   0.971   2.648   5.914
 6250TIP3   OH218692   0.537   2.576   5.244
 6250TIP3    H118693   0.456   2.592   5.297
 6250TIP3    H218694   0.578   2.664   5.246
 6251TIP3   OH218695   1.272   2.313   5.833
 6251TIP3    H118696   1.266   2.312   5.931
 6251TIP3    H218697   1.357   2.269   5.819
 6252TIP3   OH218698   1.253   2.210   4.708
 6252TIP3    H118699   1.309   2.177   4.783
 6252TIP3    H218700   1.165   2.189   4.742
 6253TIP3   OH218701   1.526   2.850   5.877
 6253TIP3    H118702   1.444   2.798   5.867
 6253TIP3    H218703   1.514   2.918   5.806
 6254TIP3   OH218704   1.597   2.689   4.527
 6254TIP3    H118705   1.642   2.767   4.492
 6254TIP3    H218706   1.514   2.730   4.559
 6255TIP3   OH218707   1.415   2.109   4.903
 6255TIP3    H118708   1.402   2.075   4.993
 6255TIP3    H218709   1.509   2.134   4.907
 6256TIP3   OH218710   0.322   2.542   6.031
 6256TIP3    H118711   0.388   2.478   6.062
 6256TIP3    H218712   0.352   2.623   6.075
 6257TIP3   OH218713   0.638   2.182   4.716
 6257TIP3    H118714   0.639   2.089   4.686
 6257TIP3    H218715   0.602   2.174   4.805
 6258TIP3   OH218716   0.568   2.204   4.989
 6258TIP3    H118717   0.644   2.164   5.034
 6258TIP3    H218718   0.596   2.298   4.991
 6259TIP3   OH218719   0.305   1.885   5.181
 6259TIP3    H118720   0.241   1.932   5.240
 6259TIP3    H218721   0.316   1.954   5.112
 6260TIP3   OH218722   1.458   1.532   6.076
 6260TIP3    H118723   1.535   1.577   6.113
 6260TIP3    H218724   1.454   1.449   6.128
 6261TIP3   OH218725   1.346   1.277   5.243
 6261TIP3    H118726   1.316   1.316   5.159
 6261TIP3    H218727   1.383   1.357   5.288
 6262TIP3   OH218728   0.811   2.397   4.942
 6262TIP3    H118729   0.806   2.456   5.020
 6262TIP3    H218730   0.852   2.457   4.879
 6263TIP3   OH218731   1.026   1.459   5.345
 6263TIP3    H118732   1.086   1.536   5.330
 6263TIP3    H218733   1.029   1.452   5.443
 6264TIP3   OH218734   1.288   1.774   6.154
 6264TIP3    H118735   1.310   1.829   6.232
 6264TIP3    H218736   1.342   1.695   6.168
 6265TIP3   OH218737   1.171   1.189   5.453
 6265TIP3    H118738   1.151   1.268   5.507
 6265TIP3    H218739   1.233   1.226   5.386
 6266TIP3   OH218740   0.473   2.470   4.986
 6266TIP3    H118741   0.504   2.546   4.929
 6266TIP3    H218742   0.499   2.505   5.075
 6267TIP3   OH218743   0.696   1.189   5.250
 6267TIP3    H118744   0.698   1.282   5.278
 6267TIP3    H218745   0.792   1.171   5.246
 6268TIP3   OH218746   1.927   1.675   6.139
 6268TIP3    H118747   1.829   1.673   6.145
 6268TIP3    H218748   1.940   1.644   6.049
 6269TIP3   OH218749   1.581   1.869   5.523
 6269TIP3    H118750   1.503   1.813   5.538
 6269TIP3    H218751   1.650   1.822   5.573
 6270TIP3   OH218752   0.311   2.113   5.012
 6270TIP3    H118753   0.409   2.121   5.014
 6270TIP3    H218754   0.294   2.105   4.916
 6271TIP3   OH218755   0.285   1.407   5.037
 6271TIP3    H118756   0.272   1.493   5.080
 6271TIP3    H218757   0.226   1.352   5.093
 6272TIP3   OH218758   1.550   2.832   5.473
 6272TIP3    H118759   1.506   2.881   5.399
 6272TIP3    H218760   1.644   2.849   5.450
 6273TIP3   OH218761   0.163   2.323   5.378
 6273TIP3    H118762   0.094   2.351   5.440
 6273TIP3    H218763   0.130   2.363   5.294
 6274TIP3   OH218764   0.344   2.876   6.429
 6274TIP3    H118765   0.422   2.884   6.489
 6274TIP3    H218766   0.323   2.783   6.441
 6275TIP3   OH218767   0.800   2.815   6.500
 6275TIP3    H118768   0.896   2.801   6.502
 6275TIP3    H218769   0.774   2.757   6.426
 6276TIP3   OH218770   0.784   2.393   4.620
 6276TIP3    H118771   0.727   2.325   4.662
 6276TIP3    H218772   0.861   2.338   4.597
 6277TIP3   OH218773   1.436   2.732   6.235
 6277TIP3    H118774   1.432   2.660   6.303
 6277TIP3    H218775   1.516   2.781   6.262
 6278TIP3   OH218776   1.213   2.437   4.533
 6278TIP3    H118777   1.263   2.377   4.590
 6278TIP3    H218778   1.269   2.440   4.452
 6279TIP3   OH218779   0.447   2.256   6.648
 6279TIP3    H118780   0.478   2.162   6.648
 6279TIP3    H218781   0.352   2.244   6.637
 6280TIP3   OH218782   0.441   1.902   4.859
 6280TIP3    H118783   0.501   1.878   4.932
 6280TIP3    H218784   0.504   1.911   4.785
 6281TIP3   OH218785   1.057   2.350   6.427
 6281TIP3    H118786   1.017   2.371   6.339
 6281TIP3    H218787   1.088   2.258   6.414
 6282TIP3   OH218788   0.947   2.113   4.647
 6282TIP3    H118789   0.945   2.127   4.744
 6282TIP3    H218790   0.941   2.015   4.643
 6283TIP3   OH218791   1.552   2.359   6.034
 6283TIP3    H118792   1.627   2.401   5.989
 6283TIP3    H218793   1.483   2.428   6.022
 6284TIP3   OH218794   0.556   2.002   6.639
 6284TIP3    H118795   0.623   1.933   6.627
 6284TIP3    H218796   0.573   2.023   6.733
 6285TIP3   OH218797   0.635   1.818   5.066
 6285TIP3    H118798   0.606   1.780   5.151
 6285TIP3    H218799   0.671   1.739   5.020
 6286TIP3   OH218800   0.920   1.884   6.297
 6286TIP3    H118801   0.839   1.940   6.297
 6286TIP3    H218802   0.967   1.918   6.217
 6287TIP3   OH218803   0.738   1.610   4.907
 6287TIP3    H118804   0.711   1.619   4.814
 6287TIP3    H218805   0.836   1.616   4.899
 6288TIP3   OH218806   1.423   2.284   6.431
 6288TIP3    H118807   1.498   2.253   6.378
 6288TIP3    H218808   1.418   2.217   6.501
 6289TIP3   OH218809   1.558   1.938   4.573
 6289TIP3    H118810   1.536   1.897   4.487
 6289TIP3    H218811   1.525   2.029   4.556
 6290TIP3   OH218812   1.035   1.665   6.410
 6290TIP3    H118813   1.037   1.591   6.346
 6290TIP3    H218814   0.992   1.737   6.357
 6291TIP3   OH218815   1.049   1.462   6.222
 6291TIP3    H118816   1.070   1.507   6.138
 6291TIP3    H218817   0.957   1.430   6.205
 6292TIP3   OH218818   1.059   1.992   6.096
 6292TIP3    H118819   1.144   2.013   6.056
 6292TIP3    H218820   1.000   2.058   6.055
 6293TIP3   OH218821   1.639   1.958   6.481
 6293TIP3    H118822   1.690   1.876   6.489
 6293TIP3    H218823   1.704   2.020   6.445
 6294TIP3   OH218824   1.680   2.212   6.219
 6294TIP3    H118825   1.622   2.266   6.161
 6294TIP3    H218826   1.767   2.234   6.180
 6295TIP3   OH218827   0.941   1.772   6.648
 6295TIP3    H118828   0.847   1.766   6.672
 6295TIP3    H218829   0.947   1.734   6.558
 6296TIP3   OH218830   1.201   1.242   6.275
 6296TIP3    H118831   1.153   1.325   6.254
 6296TIP3    H218832   1.125   1.182   6.285
 6297TIP3   OH218833   1.288   1.721   6.514
 6297TIP3    H118834   1.270   1.708   6.609
 6297TIP3    H218835   1.200   1.698   6.477
 6298TIP3   OH218836   1.527   1.672   6.369
 6298TIP3    H118837   1.452   1.675   6.431
 6298TIP3    H218838   1.601   1.643   6.426
 6299TIP3   OH218839   1.760   1.615   6.519
 6299TIP3    H118840   1.771   1.520   6.536
 6299TIP3    H218841   1.754   1.653   6.609
 6300TIP3   OH218842   1.244   1.210   6.544
 6300TIP3    H118843   1.322   1.151   6.544
 6300TIP3    H218844   1.233   1.226   6.448
 6301TIP3   OH218845   1.325   1.442   6.693
 6301TIP3    H118846   1.288   1.370   6.638
 6301TIP3    H218847   1.248   1.502   6.702
 6302TIP3   OH218848   0.543   2.661   4.804
 6302TIP3    H118849   0.640   2.658   4.793
 6302TIP3    H218850   0.521   2.721   4.730
 6303TIP3   OH218851   0.040   2.036   5.055
 6303TIP3    H118852   0.119   2.079   5.021
 6303TIP3    H218853   0.025   1.964   4.991
 6304TIP3   OH218854  -0.072   2.663   5.450
 6304TIP3    H118855  -0.123   2.597   5.402
 6304TIP3    H218856  -0.024   2.609   5.516
 6305TIP3   OH218857   0.066   2.520   5.638
 6305TIP3    H118858   0.074   2.452   5.709
 6305TIP3    H218859   0.121   2.589   5.679
 6306TIP3   OH218860   1.807   2.913   5.431
 6306TIP3    H118861   1.831   2.949   5.519
 6306TIP3    H218862   1.868   2.960   5.373
 6307TIP3   OH218863   1.830   2.938   5.714
 6307TIP3    H118864   1.785   2.851   5.709
 6307TIP3    H218865   1.907   2.914   5.768
 6308TIP3   OH218866   1.880   2.613   6.288
 6308TIP3    H118867   1.807   2.624   6.352
 6308TIP3    H218868   1.921   2.702   6.291
 6309TIP3   OH218869   1.700   2.126   4.903
 6309TIP3    H118870   1.763   2.194   4.874
 6309TIP3    H218871   1.743   2.091   4.984
 6310TIP3   OH218872   1.827   1.992   5.110
 6310TIP3    H118873   1.756   1.953   5.165
 6310TIP3    H218874   1.884   2.035   5.176
 6311TIP3   OH218875   1.883   2.390   5.545
 6311TIP3    H118876   1.928   2.325   5.489
 6311TIP3    H218877   1.870   2.465   5.483
 6312TIP3   OH218878   1.707   2.688   5.738
 6312TIP3    H118879   1.633   2.731   5.785
 6312TIP3    H218880   1.660   2.643   5.664
 6313TIP3   OH218881   1.758   1.901   4.755
 6313TIP3    H118882   1.687   1.905   4.687
 6313TIP3    H218883   1.731   1.978   4.810
 6314TIP3   OH218884   1.632   1.573   4.710
 6314TIP3    H118885   1.590   1.623   4.640
 6314TIP3    H218886   1.604   1.482   4.689
 6315TIP3   OH218887   1.638   1.856   5.256
 6315TIP3    H118888   1.643   1.759   5.250
 6315TIP3    H218889   1.621   1.870   5.352
 6316TIP3   OH218890   0.263   1.923   6.026
 6316TIP3    H118891   0.252   1.907   5.929
 6316TIP3    H218892   0.361   1.929   6.032
 6317TIP3   OH218893   1.925   2.277   6.114
 6317TIP3    H118894   1.997   2.212   6.101
 6317TIP3    H218895   1.947   2.347   6.049
 6318TIP3   OH218896   2.108   2.077   6.119
 6318TIP3    H118897   2.033   2.030   6.163
 6318TIP3    H218898   2.181   2.015   6.138
 6319TIP3   OH218899   1.577   1.304   4.695
 6319TIP3    H118900   1.660   1.286   4.743
 6319TIP3    H218901   1.515   1.241   4.733
 6320TIP3   OH218902   1.633   1.568   5.148
 6320TIP3    H118903   1.677   1.481   5.159
 6320TIP3    H218904   1.689   1.607   5.078
 6321TIP3   OH218905   1.793   1.735   5.646
 6321TIP3    H118906   1.878   1.761   5.604
 6321TIP3    H218907   1.806   1.777   5.734
 6322TIP3   OH218908   1.863   1.886   5.875
 6322TIP3    H118909   1.786   1.920   5.923
 6322TIP3    H218910   1.895   1.967   5.830
 6323TIP3   OH218911   2.314   1.479   6.432
 6323TIP3    H118912   2.375   1.416   6.388
 6323TIP3    H218913   2.282   1.532   6.355
 6324TIP3   OH218914   1.742   1.314   5.184
 6324TIP3    H118915   1.793   1.304   5.268
 6324TIP3    H218916   1.674   1.245   5.196
 6325TIP3   OH218917   2.182   1.614   6.238
 6325TIP3    H118918   2.098   1.660   6.260
 6325TIP3    H218919   2.148   1.544   6.179
 6326TIP3   OH218920   1.821   1.249   4.825
 6326TIP3    H118921   1.866   1.187   4.764
 6326TIP3    H218922   1.883   1.325   4.826
 6327TIP3   OH218923   1.365   2.819   5.068
 6327TIP3    H118924   1.422   2.779   5.000
 6327TIP3    H218925   1.428   2.835   5.139
 6328TIP3   OH218926   0.479   2.594   6.476
 6328TIP3    H118927   0.433   2.514   6.448
 6328TIP3    H218928   0.494   2.580   6.570
 6329TIP3   OH218929   0.667   2.626   6.020
 6329TIP3    H118930   0.620   2.703   5.980
 6329TIP3    H218931   0.752   2.637   5.974
 6330TIP3   OH218932   1.106   2.864   6.158
 6330TIP3    H118933   1.150   2.866   6.246
 6330TIP3    H218934   1.171   2.917   6.105
 6331TIP3   OH218935   1.284   3.020   6.020
 6331TIP3    H118936   1.351   2.972   5.970
 6331TIP3    H218937   1.340   3.075   6.079
 6332TIP3   OH218938   2.083   1.381   6.116
 6332TIP3    H118939   1.993   1.377   6.078
 6332TIP3    H218940   2.113   1.287   6.104
 6333TIP3   OH218941   0.339   2.874   6.047
 6333TIP3    H118942   0.249   2.905   6.023
 6333TIP3    H218943   0.351   2.921   6.131
 6334TIP3   OH218944   0.577   2.858   5.904
 6334TIP3    H118945   0.489   2.870   5.946
 6334TIP3    H218946   0.560   2.888   5.813
 6335TIP3   OH218947   0.999   2.884   5.706
 6335TIP3    H118948   0.934   2.902   5.636
 6335TIP3    H218949   1.012   2.973   5.745
 6336TIP3   OH218950   1.269   2.823   5.756
 6336TIP3    H118951   1.175   2.837   5.733
 6336TIP3    H218952   1.312   2.893   5.705
 6337TIP3   OH218953   1.481   3.016   5.666
 6337TIP3    H118954   1.466   3.100   5.617
 6337TIP3    H218955   1.507   2.956   5.593
 6338TIP3   OH218956   0.253   2.673   5.780
 6338TIP3    H118957   0.268   2.647   5.873
 6338TIP3    H218958   0.326   2.623   5.737
 6339TIP3   OH218959   0.450   2.541   5.646
 6339TIP3    H118960   0.466   2.458   5.698
 6339TIP3    H218961   0.540   2.579   5.644
 6340TIP3   OH218962   0.712   2.642   5.650
 6340TIP3    H118963   0.752   2.557   5.625
 6340TIP3    H218964   0.760   2.659   5.734
 6341TIP3   OH218965   1.299   1.303   5.741
 6341TIP3    H118966   1.250   1.237   5.795
 6341TIP3    H218967   1.365   1.247   5.696
 6342TIP3   OH218968   1.810   1.166   5.637
 6342TIP3    H118969   1.846   1.223   5.565
 6342TIP3    H218970   1.716   1.190   5.636
 6343TIP3   OH218971   1.904   1.272   5.402
 6343TIP3    H118972   1.979   1.221   5.364
 6343TIP3    H218973   1.939   1.363   5.390
 6344TIP3   OH218974   0.955   1.054   5.592
 6344TIP3    H118975   1.037   1.102   5.572
 6344TIP3    H218976   0.964   1.036   5.687
 6345TIP3   OH218977   1.527   1.176   5.618
 6345TIP3    H118978   1.522   1.140   5.528
 6345TIP3    H218979   1.511   1.095   5.672
 6346TIP3   OH218980   1.552   1.106   5.179
 6346TIP3    H118981   1.473   1.159   5.202
 6346TIP3    H218982   1.535   1.025   5.233
 6347TIP3   OH218983   0.043   2.445   5.169
 6347TIP3    H118984  -0.031   2.397   5.130
 6347TIP3    H218985   0.034   2.532   5.125
 6348TIP3   OH218986   0.971   1.208   5.259
 6348TIP3    H118987   1.024   1.167   5.329
 6348TIP3    H218988   0.985   1.303   5.282
 6349TIP3   OH218989   0.810   2.637   4.746
 6349TIP3    H118990   0.902   2.652   4.718
 6349TIP3    H218991   0.790   2.556   4.694
 6350TIP3   OH218992   1.541   2.751   4.853
 6350TIP3    H118993   1.531   2.653   4.843
 6350TIP3    H218994   1.490   2.782   4.775
 6351TIP3   OH218995   1.824   1.343   6.550
 6351TIP3    H118996   1.844   1.315   6.642
 6351TIP3    H218997   1.913   1.341   6.509
 6352TIP3   OH218998   1.754   2.893   6.042
 6352TIP3    H118999   1.677   2.863   5.990
 6352TIP3    H219000   1.736   2.990   6.046
 6353TIP3   OH219001   3.018   2.265   4.816
 6353TIP3    H119002   2.994   2.357   4.793
 6353TIP3    H219003   2.947   2.218   4.767
 6354TIP3   OH219004   2.987   2.237   5.197
 6354TIP3    H119005   3.046   2.238   5.274
 6354TIP3    H219006   3.045   2.211   5.124
 6355TIP3   OH219007   2.335   2.162   5.541
 6355TIP3    H119008   2.357   2.093   5.607
 6355TIP3    H219009   2.388   2.236   5.575
 6356TIP3   OH219010   3.267   2.569   4.873
 6356TIP3    H119011   3.260   2.511   4.949
 6356TIP3    H219012   3.296   2.653   4.914
 6357TIP3   OH219013   2.297   2.575   5.278
 6357TIP3    H119014   2.291   2.477   5.281
 6357TIP3    H219015   2.393   2.585   5.265
 6358TIP3   OH219016   2.003   1.772   5.062
 6358TIP3    H119017   1.955   1.854   5.081
 6358TIP3    H219018   1.933   1.722   5.016
 6359TIP3   OH219019   2.062   2.066   5.241
 6359TIP3    H119020   2.110   1.985   5.271
 6359TIP3    H219021   2.111   2.090   5.161
 6360TIP3   OH219022   2.817   2.488   5.241
 6360TIP3    H119023   2.860   2.408   5.206
 6360TIP3    H219024   2.898   2.538   5.266
 6361TIP3   OH219025   3.837   1.812   5.235
 6361TIP3    H119026   3.866   1.896   5.277
 6361TIP3    H219027   3.861   1.828   5.142
 6362TIP3   OH219028   3.224   1.990   5.263
 6362TIP3    H119029   3.276   1.910   5.286
 6362TIP3    H219030   3.195   1.968   5.172
 6363TIP3   OH219031   2.574   1.651   5.229
 6363TIP3    H119032   2.548   1.720   5.164
 6363TIP3    H219033   2.533   1.573   5.184
 6364TIP3   OH219034   3.267   1.751   4.856
 6364TIP3    H119035   3.338   1.735   4.922
 6364TIP3    H219036   3.321   1.780   4.780
 6365TIP3   OH219037   2.205   1.854   5.340
 6365TIP3    H119038   2.287   1.834   5.389
 6365TIP3    H219039   2.220   1.799   5.260
 6366TIP3   OH219040   3.910   2.021   5.408
 6366TIP3    H119041   3.827   2.069   5.388
 6366TIP3    H219042   3.934   2.061   5.493
 6367TIP3   OH219043   2.569   1.638   5.669
 6367TIP3    H119044   2.508   1.673   5.601
 6367TIP3    H219045   2.516   1.656   5.750
 6368TIP3   OH219046   2.917   2.486   4.675
 6368TIP3    H119047   2.877   2.480   4.587
 6368TIP3    H219048   2.875   2.568   4.709
 6369TIP3   OH219049   2.671   2.412   5.466
 6369TIP3    H119050   2.611   2.482   5.501
 6369TIP3    H219051   2.713   2.459   5.391
 6370TIP3   OH219052   3.472   1.754   5.032
 6370TIP3    H119053   3.470   1.702   5.114
 6370TIP3    H219054   3.528   1.829   5.056
 6371TIP3   OH219055   2.440   1.749   5.451
 6371TIP3    H119056   2.500   1.823   5.475
 6371TIP3    H219057   2.489   1.710   5.376
 6372TIP3   OH219058   2.504   2.610   5.561
 6372TIP3    H119059   2.482   2.697   5.522
 6372TIP3    H219060   2.424   2.597   5.616
 6373TIP3   OH219061   1.899   2.299   4.796
 6373TIP3    H119062   1.856   2.324   4.712
 6373TIP3    H219063   1.928   2.386   4.831
 6374TIP3   OH219064   3.342   2.807   5.029
 6374TIP3    H119065   3.256   2.801   5.077
 6374TIP3    H219066   3.333   2.897   4.990
 6375TIP3   OH219067   3.631   1.709   5.399
 6375TIP3    H119068   3.545   1.741   5.368
 6375TIP3    H219069   3.692   1.743   5.331
 6376TIP3   OH219070   2.923   1.356   5.385
 6376TIP3    H119071   2.907   1.261   5.398
 6376TIP3    H219072   2.845   1.393   5.433
 6377TIP3   OH219073   3.023   2.848   4.686
 6377TIP3    H119074   3.093   2.783   4.664
 6377TIP3    H219075   3.077   2.930   4.691
 6378TIP3   OH219076   3.192   2.638   4.613
 6378TIP3    H119077   3.135   2.565   4.587
 6378TIP3    H219078   3.224   2.608   4.701
 6379TIP3   OH219079   3.562   2.724   5.383
 6379TIP3    H119080   3.551   2.649   5.321
 6379TIP3    H219081   3.541   2.801   5.325
 6380TIP3   OH219082   2.856   2.124   4.639
 6380TIP3    H119083   2.774   2.176   4.621
 6380TIP3    H219084   2.899   2.126   4.552
 6381TIP3   OH219085   2.822   1.899   4.351
 6381TIP3    H119086   2.884   1.954   4.402
 6381TIP3    H219087   2.884   1.837   4.308
 6382TIP3   OH219088   3.758   2.362   5.227
 6382TIP3    H119089   3.675   2.415   5.231
 6382TIP3    H219090   3.790   2.387   5.138
 6383TIP3   OH219091   3.199   2.200   4.614
 6383TIP3    H119092   3.148   2.227   4.694
 6383TIP3    H219093   3.286   2.179   4.655
 6384TIP3   OH219094   3.437   2.240   5.527
 6384TIP3    H119095   3.437   2.322   5.579
 6384TIP3    H219096   3.352   2.250   5.479
 6385TIP3   OH219097   2.434   2.177   5.034
 6385TIP3    H119098   2.368   2.148   4.967
 6385TIP3    H219099   2.500   2.108   5.022
 6386TIP3   OH219100   2.559   2.600   5.177
 6386TIP3    H119101   2.546   2.580   5.083
 6386TIP3    H219102   2.651   2.569   5.192
 6387TIP3   OH219103   2.607   2.169   5.361
 6387TIP3    H119104   2.582   2.212   5.278
 6387TIP3    H219105   2.630   2.248   5.414
 6388TIP3   OH219106   3.114   2.803   5.170
 6388TIP3    H119107   3.082   2.890   5.200
 6388TIP3    H219108   3.076   2.741   5.235
 6389TIP3   OH219109   2.710   2.725   5.708
 6389TIP3    H119110   2.649   2.788   5.753
 6389TIP3    H219111   2.646   2.674   5.655
 6390TIP3   OH219112   3.046   2.053   4.439
 6390TIP3    H119113   3.102   2.116   4.489
 6390TIP3    H219114   3.071   2.076   4.346
 6391TIP3   OH219115   2.461   2.280   5.804
 6391TIP3    H119116   2.470   2.369   5.845
 6391TIP3    H219117   2.368   2.260   5.827
 6392TIP3   OH219118   2.781   2.733   4.721
 6392TIP3    H119119   2.868   2.779   4.724
 6392TIP3    H219120   2.728   2.800   4.678
 6393TIP3   OH219121   2.504   2.891   5.792
 6393TIP3    H119122   2.470   2.897   5.701
 6393TIP3    H219123   2.423   2.870   5.843
 6394TIP3   OH219124   2.288   2.043   4.843
 6394TIP3    H119125   2.228   2.091   4.781
 6394TIP3    H219126   2.263   1.952   4.826
 6395TIP3   OH219127   3.358   2.665   4.030
 6395TIP3    H119128   3.363   2.762   4.018
 6395TIP3    H219129   3.452   2.639   4.021
 6396TIP3   OH219130   2.081   2.426   5.740
 6396TIP3    H119131   2.012   2.410   5.672
 6396TIP3    H219132   2.116   2.336   5.757
 6397TIP3   OH219133   1.937   2.619   5.372
 6397TIP3    H119134   2.033   2.620   5.363
 6397TIP3    H219135   1.922   2.700   5.424
 6398TIP3   OH219136   3.802   3.074   5.430
 6398TIP3    H119137   3.799   2.978   5.445
 6398TIP3    H219138   3.718   3.101   5.474
 6399TIP3   OH219139   2.906   2.854   5.563
 6399TIP3    H119140   2.904   2.947   5.594
 6399TIP3    H219141   2.835   2.814   5.618
 6400TIP3   OH219142   2.666   2.980   4.514
 6400TIP3    H119143   2.628   2.965   4.425
 6400TIP3    H219144   2.637   3.070   4.535
 6401TIP3   OH219145   2.105   2.834   4.900
 6401TIP3    H119146   2.153   2.826   4.985
 6401TIP3    H219147   2.051   2.753   4.902
 6402TIP3   OH219148   2.865   2.880   4.160
 6402TIP3    H119149   2.928   2.816   4.118
 6402TIP3    H219150   2.905   2.892   4.249
 6403TIP3   OH219151   2.925   2.938   4.430
 6403TIP3    H119152   2.836   2.945   4.471
 6403TIP3    H219153   2.977   2.912   4.508
 6404TIP3   OH219154   3.691   2.199   5.706
 6404TIP3    H119155   3.609   2.212   5.656
 6404TIP3    H219156   3.705   2.103   5.695
 6405TIP3   OH219157   2.287   2.607   5.724
 6405TIP3    H119158   2.334   2.593   5.808
 6405TIP3    H219159   2.211   2.546   5.733
 6406TIP3   OH219160   2.687   1.433   5.516
 6406TIP3    H119161   2.599   1.402   5.485
 6406TIP3    H219162   2.658   1.513   5.565
 6407TIP3   OH219163   3.222   1.545   5.707
 6407TIP3    H119164   3.291   1.519   5.771
 6407TIP3    H219165   3.139   1.527   5.756
 6408TIP3   OH219166   3.453   1.975   5.622
 6408TIP3    H119167   3.406   1.973   5.708
 6408TIP3    H219168   3.435   2.065   5.589
 6409TIP3   OH219169   3.114   2.095   4.180
 6409TIP3    H119170   3.085   2.077   4.089
 6409TIP3    H219171   3.194   2.149   4.163
 6410TIP3   OH219172   2.836   1.488   4.492
 6410TIP3    H119173   2.791   1.511   4.575
 6410TIP3    H219174   2.784   1.409   4.465
 6411TIP3   OH219175   2.614   1.950   5.525
 6411TIP3    H119176   2.564   1.974   5.606
 6411TIP3    H219177   2.606   2.032   5.472
 6412TIP3   OH219178   2.510   1.830   5.032
 6412TIP3    H119179   2.417   1.813   5.055
 6412TIP3    H219180   2.512   1.800   4.940
 6413TIP3   OH219181   2.990   1.928   4.775
 6413TIP3    H119182   2.940   1.999   4.727
 6413TIP3    H219183   3.043   1.890   4.703
 6414TIP3   OH219184   3.166   2.193   5.853
 6414TIP3    H119185   3.146   2.122   5.918
 6414TIP3    H219186   3.259   2.213   5.877
 6415TIP3   OH219187   3.139   1.946   5.007
 6415TIP3    H119188   3.084   1.974   4.931
 6415TIP3    H219189   3.180   1.867   4.966
 6416TIP3   OH219190   2.438   1.977   5.737
 6416TIP3    H119191   2.462   2.043   5.804
 6416TIP3    H219192   2.426   1.896   5.792
 6417TIP3   OH219193   2.032   1.493   5.321
 6417TIP3    H119194   2.103   1.529   5.378
 6417TIP3    H219195   2.079   1.473   5.239
 6418TIP3   OH219196   1.992   1.476   4.841
 6418TIP3    H119197   2.039   1.508   4.762
 6418TIP3    H219198   1.935   1.554   4.857
 6419TIP3   OH219199   3.155   2.192   5.426
 6419TIP3    H119200   3.188   2.117   5.371
 6419TIP3    H219201   3.125   2.142   5.505
 6420TIP3   OH219202   2.838   1.713   5.158
 6420TIP3    H119203   2.756   1.661   5.178
 6420TIP3    H219204   2.908   1.644   5.173
 6421TIP3   OH219205   2.268   1.716   5.110
 6421TIP3    H119206   2.174   1.725   5.082
 6421TIP3    H219207   2.290   1.625   5.081
 6422TIP3   OH219208   3.325   1.736   5.309
 6422TIP3    H119209   3.291   1.746   5.401
 6422TIP3    H219210   3.266   1.668   5.274
 6423TIP3   OH219211   2.333   1.785   4.578
 6423TIP3    H119212   2.283   1.715   4.533
 6423TIP3    H219213   2.410   1.793   4.519
 6424TIP3   OH219214   3.495   3.419   5.528
 6424TIP3    H119215   3.492   3.445   5.435
 6424TIP3    H219216   3.573   3.468   5.560
 6425TIP3   OH219217   2.450   2.526   5.947
 6425TIP3    H119218   2.529   2.559   5.994
 6425TIP3    H219219   2.384   2.530   6.020
 6426TIP3   OH219220   2.445   1.477   5.057
 6426TIP3    H119221   2.418   1.392   5.094
 6426TIP3    H219222   2.467   1.452   4.964
 6427TIP3   OH219223   2.881   1.887   5.479
 6427TIP3    H119224   2.794   1.921   5.511
 6427TIP3    H219225   2.944   1.939   5.532
 6428TIP3   OH219226   2.623   2.269   4.591
 6428TIP3    H119227   2.553   2.202   4.579
 6428TIP3    H219228   2.602   2.303   4.682
 6429TIP3   OH219229   3.528   2.509   5.215
 6429TIP3    H119230   3.552   2.561   5.136
 6429TIP3    H219231   3.443   2.467   5.187
 6430TIP3   OH219232   3.074   1.590   4.399
 6430TIP3    H119233   2.988   1.565   4.441
 6430TIP3    H219234   3.101   1.667   4.453
 6431TIP3   OH219235   3.014   2.586   5.591
 6431TIP3    H119236   3.058   2.581   5.677
 6431TIP3    H219237   2.986   2.679   5.588
 6432TIP3   OH219238   3.151   1.817   4.549
 6432TIP3    H119239   3.246   1.827   4.570
 6432TIP3    H219240   3.130   1.902   4.505
 6433TIP3   OH219241   2.326   2.298   5.267
 6433TIP3    H119242   2.358   2.256   5.184
 6433TIP3    H219243   2.341   2.229   5.333
 6434TIP3   OH219244   2.772   2.418   4.414
 6434TIP3    H119245   2.725   2.504   4.414
 6434TIP3    H219246   2.717   2.367   4.477
 6435TIP3   OH219247   2.202   2.208   5.875
 6435TIP3    H119248   2.215   2.197   5.971
 6435TIP3    H219249   2.127   2.148   5.859
 6436TIP3   OH219250   2.926   2.328   5.898
 6436TIP3    H119251   2.866   2.269   5.850
 6436TIP3    H219252   3.014   2.296   5.867
 6437TIP3   OH219253   3.182   2.833   5.495
 6437TIP3    H119254   3.086   2.848   5.499
 6437TIP3    H219255   3.213   2.895   5.564
 6438TIP3   OH219256   3.592   1.924   4.389
 6438TIP3    H119257   3.531   1.879   4.327
 6438TIP3    H219258   3.589   2.013   4.349
 6439TIP3   OH219259   3.813   2.779   5.471
 6439TIP3    H119260   3.715   2.776   5.461
 6439TIP3    H219261   3.839   2.750   5.380
 6440TIP3   OH219262   3.306   2.743   4.300
 6440TIP3    H119263   3.266   2.683   4.365
 6440TIP3    H219264   3.305   2.692   4.218
 6441TIP3   OH219265   3.302   2.375   5.131
 6441TIP3    H119266   3.208   2.363   5.150
 6441TIP3    H219267   3.327   2.291   5.087
 6442TIP3   OH219268   2.424   2.598   4.889
 6442TIP3    H119269   2.427   2.679   4.835
 6442TIP3    H219270   2.328   2.586   4.899
 6443TIP3   OH219271   1.981   1.903   4.589
 6443TIP3    H119272   2.028   1.985   4.611
 6443TIP3    H219273   1.906   1.906   4.652
 6444TIP3   OH219274   2.552   2.357   4.837
 6444TIP3    H119275   2.525   2.450   4.848
 6444TIP3    H219276   2.511   2.315   4.915
 6445TIP3   OH219277   2.687   2.938   5.357
 6445TIP3    H119278   2.723   3.014   5.306
 6445TIP3    H219279   2.767   2.909   5.403
 6446TIP3   OH219280   2.338   2.839   4.741
 6446TIP3    H119281   2.253   2.849   4.787
 6446TIP3    H219282   2.372   2.931   4.744
 6447TIP3   OH219283   3.071   2.560   5.324
 6447TIP3    H119284   3.057   2.565   5.421
 6447TIP3    H219285   3.166   2.547   5.320
 6448TIP3   OH219286   3.054   2.466   4.193
 6448TIP3    H119287   3.102   2.439   4.275
 6448TIP3    H219288   2.962   2.451   4.220
 6449TIP3   OH219289   3.320   3.107   5.357
 6449TIP3    H119290   3.234   3.063   5.342
 6449TIP3    H219291   3.315   3.179   5.290
 6450TIP3   OH219292   3.390   2.942   4.017
 6450TIP3    H119293   3.423   3.017   3.965
 6450TIP3    H219294   3.309   2.983   4.053
 6451TIP3   OH219295   2.407   1.718   5.883
 6451TIP3    H119296   2.311   1.723   5.896
 6451TIP3    H219297   2.435   1.664   5.959
 6452TIP3   OH219298   3.210   2.390   4.409
 6452TIP3    H119299   3.203   2.332   4.487
 6452TIP3    H219300   3.308   2.397   4.400
 6453TIP3   OH219301   2.127   2.804   5.514
 6453TIP3    H119302   2.182   2.733   5.550
 6453TIP3    H219303   2.155   2.879   5.568
 6454TIP3   OH219304   2.403   2.443   4.196
 6454TIP3    H119305   2.429   2.353   4.171
 6454TIP3    H219306   2.393   2.435   4.293
 6455TIP3   OH219307   2.361   2.455   4.472
 6455TIP3    H119308   2.438   2.432   4.525
 6455TIP3    H219309   2.362   2.553   4.477
 6456TIP3   OH219310   2.096   2.149   4.675
 6456TIP3    H119311   2.029   2.193   4.730
 6456TIP3    H219312   2.107   2.217   4.605
 6457TIP3   OH219313   3.248   1.781   5.567
 6457TIP3    H119314   3.326   1.825   5.604
 6457TIP3    H219315   3.238   1.702   5.624
 6458TIP3   OH219316   3.136   1.535   4.729
 6458TIP3    H119317   3.107   1.577   4.647
 6458TIP3    H219318   3.171   1.612   4.778
 6459TIP3   OH219319   2.626   2.645   4.420
 6459TIP3    H119320   2.542   2.678   4.456
 6459TIP3    H219321   2.648   2.716   4.358
 6460TIP3   OH219322   2.870   1.689   4.840
 6460TIP3    H119323   2.899   1.779   4.813
 6460TIP3    H219324   2.810   1.706   4.913
 6461TIP3   OH219325   3.085   2.030   5.638
 6461TIP3    H119326   3.107   2.086   5.715
 6461TIP3    H219327   3.141   1.952   5.654
 6462TIP3   OH219328   2.981   1.430   4.937
 6462TIP3    H119329   2.967   1.518   4.974
 6462TIP3    H219330   3.019   1.457   4.851
 6463TIP3   OH219331   2.370   2.726   4.488
 6463TIP3    H119332   2.344   2.799   4.426
 6463TIP3    H219333   2.357   2.770   4.575
 6464TIP3   OH219334   3.722   1.933   5.626
 6464TIP3    H119335   3.624   1.929   5.629
 6464TIP3    H219336   3.739   1.900   5.537
 6465TIP3   OH219337   3.373   2.126   5.014
 6465TIP3    H119338   3.302   2.060   5.025
 6465TIP3    H219339   3.449   2.083   5.059
 6466TIP3   OH219340   2.091   2.353   4.478
 6466TIP3    H119341   2.161   2.420   4.489
 6466TIP3    H219342   2.135   2.296   4.411
 6467TIP3   OH219343   2.023   1.629   4.617
 6467TIP3    H119344   2.044   1.724   4.612
 6467TIP3    H219345   1.946   1.623   4.561
 6468TIP3   OH219346   3.333   3.078   4.965
 6468TIP3    H119347   3.262   3.107   4.905
 6468TIP3    H219348   3.414   3.111   4.923
 6469TIP3   OH219349   2.422   1.354   5.486
 6469TIP3    H119350   2.392   1.322   5.398
 6469TIP3    H219351   2.410   1.274   5.541
 6470TIP3   OH219352   1.956   2.567   4.864
 6470TIP3    H119353   1.891   2.598   4.929
 6470TIP3    H219354   1.924   2.611   4.782
 6471TIP3   OH219355   2.118   3.118   5.940
 6471TIP3    H119356   2.205   3.119   5.986
 6471TIP3    H219357   2.100   3.023   5.937
 6472TIP3   OH219358   2.593   3.072   5.987
 6472TIP3    H119359   2.689   3.064   5.990
 6472TIP3    H219360   2.571   3.012   5.913
 6473TIP3   OH219361   2.558   2.664   4.121
 6473TIP3    H119362   2.517   2.579   4.149
 6473TIP3    H219363   2.641   2.631   4.079
 6474TIP3   OH219364   3.236   2.984   5.718
 6474TIP3    H119365   3.231   2.916   5.789
 6474TIP3    H219366   3.313   3.037   5.747
 6475TIP3   OH219367   3.031   2.705   4.025
 6475TIP3    H119368   3.063   2.629   4.076
 6475TIP3    H219369   3.077   2.695   3.940
 6476TIP3   OH219370   2.247   2.520   6.139
 6476TIP3    H119371   2.261   2.424   6.144
 6476TIP3    H219372   2.160   2.524   6.094
 6477TIP3   OH219373   2.226   2.170   4.328
 6477TIP3    H119374   2.280   2.135   4.401
 6477TIP3    H219375   2.291   2.169   4.255
 6478TIP3   OH219376   2.853   2.606   5.914
 6478TIP3    H119377   2.814   2.630   5.827
 6478TIP3    H219378   2.885   2.515   5.900
 6479TIP3   OH219379   2.735   2.352   4.146
 6479TIP3    H119380   2.742   2.368   4.241
 6479TIP3    H219381   2.731   2.254   4.142
 6480TIP3   OH219382   3.345   2.613   5.515
 6480TIP3    H119383   3.423   2.656   5.475
 6480TIP3    H219384   3.280   2.687   5.508
 6481TIP3   OH219385   2.367   2.253   6.124
 6481TIP3    H119386   2.448   2.208   6.097
 6481TIP3    H219387   2.394   2.289   6.211
 6482TIP3   OH219388   2.438   2.067   4.556
 6482TIP3    H119389   2.393   2.015   4.624
 6482TIP3    H219390   2.474   1.995   4.500
 6483TIP3   OH219391   2.703   2.137   5.780
 6483TIP3    H119392   2.626   2.197   5.781
 6483TIP3    H219393   2.755   2.173   5.704
 6484TIP3   OH219394   2.538   1.862   4.397
 6484TIP3    H119395   2.511   1.864   4.303
 6484TIP3    H219396   2.635   1.871   4.388
 6485TIP3   OH219397   3.215   2.537   5.915
 6485TIP3    H119398   3.298   2.516   5.871
 6485TIP3    H219399   3.215   2.474   5.990
 6486TIP3   OH219400   3.354   2.194   4.061
 6486TIP3    H119401   3.332   2.152   3.975
 6486TIP3    H219402   3.322   2.285   4.040
 6487TIP3   OH219403   2.825   1.928   5.907
 6487TIP3    H119404   2.826   1.850   5.849
 6487TIP3    H219405   2.782   1.996   5.850
 6488TIP3   OH219406   2.828   1.714   5.715
 6488TIP3    H119407   2.855   1.754   5.631
 6488TIP3    H219408   2.734   1.691   5.698
 6489TIP3   OH219409   2.852   2.246   5.585
 6489TIP3    H119410   2.938   2.267   5.547
 6489TIP3    H219411   2.796   2.315   5.544
 6490TIP3   OH219412   3.434   2.215   5.967
 6490TIP3    H119413   3.488   2.135   5.978
 6490TIP3    H219414   3.500   2.278   5.934
 6491TIP3   OH219415   3.475   2.466   5.701
 6491TIP3    H119416   3.417   2.522   5.644
 6491TIP3    H219417   3.563   2.491   5.663
 6492TIP3   OH219418   2.704   2.034   6.142
 6492TIP3    H119419   2.635   1.966   6.156
 6492TIP3    H219420   2.737   2.010   6.053
 6493TIP3   OH219421   2.959   1.475   5.786
 6493TIP3    H119422   2.910   1.557   5.762
 6493TIP3    H219423   2.890   1.407   5.774
 6494TIP3   OH219424   3.087   1.977   6.000
 6494TIP3    H119425   3.074   1.966   6.096
 6494TIP3    H219426   2.997   1.955   5.969
 6495TIP3   OH219427   3.322   1.925   5.853
 6495TIP3    H119428   3.249   1.931   5.917
 6495TIP3    H219429   3.398   1.899   5.910
 6496TIP3   OH219430   3.551   1.871   6.004
 6496TIP3    H119431   3.565   1.776   6.021
 6496TIP3    H219432   3.548   1.909   6.094
 6497TIP3   OH219433   2.541   1.814   6.195
 6497TIP3    H119434   2.548   1.723   6.162
 6497TIP3    H219435   2.578   1.804   6.285
 6498TIP3   OH219436   3.051   1.483   6.045
 6498TIP3    H119437   3.119   1.413   6.037
 6498TIP3    H219438   3.012   1.480   5.955
 6499TIP3   OH219439   3.118   1.699   6.204
 6499TIP3    H119440   3.097   1.629   6.138
 6499TIP3    H219441   3.041   1.759   6.196
 6500TIP3   OH219442   2.341   2.926   4.298
 6500TIP3    H119443   2.437   2.921   4.284
 6500TIP3    H219444   2.317   2.982   4.222
 6501TIP3   OH219445   1.822   2.311   4.519
 6501TIP3    H119446   1.916   2.333   4.502
 6501TIP3    H219447   1.815   2.224   4.473
 6502TIP3   OH219448   1.739   2.926   4.931
 6502TIP3    H119449   1.671   2.865   4.893
 6502TIP3    H219450   1.782   2.866   4.996
 6503TIP3   OH219451   1.872   2.771   5.116
 6503TIP3    H119452   1.856   2.701   5.182
 6503TIP3    H219453   1.925   2.833   5.170
 6504TIP3   OH219454   3.593   3.174   4.912
 6504TIP3    H119455   3.615   3.204   5.003
 6504TIP3    H219456   3.660   3.221   4.860
 6505TIP3   OH219457   3.629   3.193   5.196
 6505TIP3    H119458   3.581   3.108   5.193
 6505TIP3    H219459   3.701   3.170   5.257
 6506TIP3   OH219460   3.676   2.869   5.774
 6506TIP3    H119461   3.602   2.880   5.838
 6506TIP3    H219462   3.717   2.958   5.777
 6507TIP3   OH219463   3.492   2.382   4.391
 6507TIP3    H119464   3.555   2.450   4.361
 6507TIP3    H219465   3.538   2.346   4.470
 6508TIP3   OH219466   3.620   2.250   4.596
 6508TIP3    H119467   3.552   2.211   4.656
 6508TIP3    H219468   3.684   2.288   4.659
 6509TIP3   OH219469   3.677   2.645   5.030
 6509TIP3    H119470   3.726   2.580   4.977
 6509TIP3    H219471   3.670   2.721   4.968
 6510TIP3   OH219472   3.501   2.943   5.224
 6510TIP3    H119473   3.429   2.990   5.271
 6510TIP3    H219474   3.453   2.902   5.150
 6511TIP3   OH219475   3.556   2.159   4.241
 6511TIP3    H119476   3.484   2.161   4.174
 6511TIP3    H219477   3.528   2.235   4.296
 6512TIP3   OH219478   3.421   1.830   4.199
 6512TIP3    H119479   3.383   1.869   4.120
 6512TIP3    H219480   3.398   1.736   4.188
 6513TIP3   OH219481   3.430   2.111   4.743
 6513TIP3    H119482   3.441   2.015   4.734
 6513TIP3    H219483   3.417   2.122   4.840
 6514TIP3   OH219484   2.062   2.172   5.494
 6514TIP3    H119485   2.054   2.144   5.400
 6514TIP3    H219486   2.160   2.177   5.503
 6515TIP3   OH219487   3.721   2.534   5.599
 6515TIP3    H119488   3.793   2.469   5.587
 6515TIP3    H219489   3.745   2.605   5.537
 6516TIP3   OH219490   3.904   2.334   5.606
 6516TIP3    H119491   3.830   2.286   5.651
 6516TIP3    H219492   3.978   2.272   5.624
 6517TIP3   OH219493   3.368   1.561   4.192
 6517TIP3    H119494   3.464   1.551   4.210
 6517TIP3    H219495   3.332   1.509   4.264
 6518TIP3   OH219496   3.426   1.824   4.634
 6518TIP3    H119497   3.468   1.736   4.649
 6518TIP3    H219498   3.484   1.858   4.564
 6519TIP3   OH219499   3.588   1.999   5.131
 6519TIP3    H119500   3.674   2.022   5.090
 6519TIP3    H219501   3.604   2.036   5.220
 6520TIP3   OH219502   3.659   2.143   5.362
 6520TIP3    H119503   3.583   2.179   5.411
 6520TIP3    H219504   3.693   2.223   5.317
 6521TIP3   OH219505   2.274   1.864   6.158
 6521TIP3    H119506   2.372   1.861   6.165
 6521TIP3    H219507   2.251   1.779   6.201
 6522TIP3   OH219508   4.110   1.735   5.918
 6522TIP3    H119509   4.171   1.671   5.875
 6522TIP3    H219510   4.079   1.788   5.842
 6523TIP3   OH219511   3.539   1.577   4.672
 6523TIP3    H119512   3.584   1.557   4.756
 6523TIP3    H219513   3.480   1.498   4.664
 6524TIP3   OH219514   2.235   1.560   5.496
 6524TIP3    H119515   2.298   1.485   5.502
 6524TIP3    H219516   2.297   1.635   5.486
 6525TIP3   OH219517   2.038   1.832   5.567
 6525TIP3    H119518   2.087   1.832   5.483
 6525TIP3    H219519   2.057   1.921   5.600
 6526TIP3   OH219520   3.978   1.871   5.724
 6526TIP3    H119521   3.894   1.916   5.747
 6526TIP3    H219522   3.944   1.800   5.666
 6527TIP3   OH219523   3.620   1.522   4.273
 6527TIP3    H119524   3.654   1.432   4.274
 6527TIP3    H219525   3.700   1.577   4.284
 6528TIP3   OH219526   2.023   1.328   5.064
 6528TIP3    H119527   1.931   1.334   5.096
 6528TIP3    H219528   2.021   1.391   4.988
 6529TIP3   OH219529   3.197   3.037   4.583
 6529TIP3    H119530   3.247   3.028   4.500
 6529TIP3    H219531   3.198   3.133   4.598
 6530TIP3   OH219532   2.242   1.410   5.879
 6530TIP3    H119533   2.193   1.414   5.962
 6530TIP3    H219534   2.179   1.454   5.818
 6531TIP3   OH219535   2.283   2.843   5.956
 6531TIP3    H119536   2.189   2.821   5.942
 6531TIP3    H219537   2.293   2.832   6.051
 6532TIP3   OH219538   2.464   2.880   5.506
 6532TIP3    H119539   2.416   2.956   5.467
 6532TIP3    H219540   2.550   2.893   5.461
 6533TIP3   OH219541   2.902   3.120   5.643
 6533TIP3    H119542   2.944   3.122   5.731
 6533TIP3    H219543   2.965   3.174   5.591
 6534TIP3   OH219544   3.078   3.277   5.506
 6534TIP3    H119545   3.145   3.234   5.452
 6534TIP3    H219546   3.134   3.331   5.566
 6535TIP3   OH219547   3.879   1.636   5.603
 6535TIP3    H119548   3.790   1.630   5.565
 6535TIP3    H219549   3.911   1.543   5.592
 6536TIP3   OH219550   2.135   3.133   5.532
 6536TIP3    H119551   2.045   3.166   5.509
 6536TIP3    H219552   2.150   3.182   5.615
 6537TIP3   OH219553   2.373   3.111   5.391
 6537TIP3    H119554   2.285   3.125   5.432
 6537TIP3    H219555   2.357   3.144   5.300
 6538TIP3   OH219556   2.792   3.135   5.200
 6538TIP3    H119557   2.763   3.153   5.109
 6538TIP3    H219558   2.813   3.226   5.231
 6539TIP3   OH219559   3.066   3.077   5.225
 6539TIP3    H119560   2.969   3.089   5.216
 6539TIP3    H219561   3.095   3.133   5.151
 6540TIP3   OH219562   3.296   3.285   5.153
 6540TIP3    H119563   3.251   3.358   5.107
 6540TIP3    H219564   3.298   3.218   5.082
 6541TIP3   OH219565   2.049   2.928   5.273
 6541TIP3    H119566   2.075   2.902   5.364
 6541TIP3    H219567   2.121   2.886   5.222
 6542TIP3   OH219568   2.243   2.800   5.133
 6542TIP3    H119569   2.259   2.718   5.184
 6542TIP3    H219570   2.334   2.839   5.131
 6543TIP3   OH219571   2.507   2.895   5.141
 6543TIP3    H119572   2.546   2.808   5.123
 6543TIP3    H219573   2.556   2.920   5.222
 6544TIP3   OH219574   3.055   1.549   5.211
 6544TIP3    H119575   3.029   1.478   5.273
 6544TIP3    H219576   3.134   1.511   5.168
 6545TIP3   OH219577   3.603   1.434   5.131
 6545TIP3    H119578   3.641   1.482   5.054
 6545TIP3    H219579   3.508   1.451   5.120
 6546TIP3   OH219580   3.700   1.528   4.894
 6546TIP3    H119581   3.772   1.477   4.853
 6546TIP3    H219582   3.733   1.620   4.878
 6547TIP3   OH219583   2.331   1.260   5.243
 6547TIP3    H119584   2.239   1.227   5.241
 6547TIP3    H219585   2.380   1.175   5.233
 6548TIP3   OH219586   2.120   1.130   4.885
 6548TIP3    H119587   2.154   1.185   4.812
 6548TIP3    H219588   2.096   1.198   4.951
 6549TIP3   OH219589   2.788   1.279   5.128
 6549TIP3    H119590   2.827   1.323   5.051
 6549TIP3    H219591   2.825   1.329   5.202
 6550TIP3   OH219592   3.314   1.444   5.105
 6550TIP3    H119593   3.316   1.407   5.015
 6550TIP3    H219594   3.304   1.363   5.159
 6551TIP3   OH219595   3.357   1.369   4.681
 6551TIP3    H119596   3.268   1.408   4.693
 6551TIP3    H219597   3.344   1.278   4.713
 6552TIP3   OH219598   1.838   2.701   4.662
 6552TIP3    H119599   1.752   2.666   4.631
 6552TIP3    H219600   1.824   2.796   4.647
 6553TIP3   OH219601   2.230   1.286   4.651
 6553TIP3    H119602   2.288   1.229   4.596
 6553TIP3    H219603   2.301   1.340   4.693
 6554TIP3   OH219604   2.608   2.894   4.252
 6554TIP3    H119605   2.698   2.911   4.215
 6554TIP3    H219606   2.582   2.818   4.194
 6555TIP3   OH219607   3.335   3.011   4.339
 6555TIP3    H119608   3.328   2.913   4.329
 6555TIP3    H219609   3.284   3.041   4.261
 6556TIP3   OH219610   2.541   1.536   6.125
 6556TIP3    H119611   2.504   1.468   6.185
 6556TIP3    H219612   2.634   1.537   6.156
 6557TIP3   OH219613   2.789   1.536   6.247
 6557TIP3    H119614   2.876   1.515   6.208
 6557TIP3    H219615   2.780   1.465   6.313
 6558TIP3   OH219616   1.919   2.727   4.310
 6558TIP3    H119617   1.918   2.744   4.405
 6558TIP3    H219618   2.007   2.685   4.297
 6559TIP3   OH219619   3.617   1.600   6.035
 6559TIP3    H119620   3.636   1.570   6.126
 6559TIP3    H219621   3.707   1.596   5.995
 6560TIP3   OH219622   3.553   3.150   5.523
 6560TIP3    H119623   3.473   3.121   5.475
 6560TIP3    H219624   3.533   3.246   5.532
 6561TIP3   OH219625   4.821   2.526   4.291
 6561TIP3    H119626   4.791   2.616   4.270
 6561TIP3    H219627   4.745   2.474   4.259
 6562TIP3   OH219628   4.823   2.524   4.677
 6562TIP3    H119629   4.856   2.499   4.766
 6562TIP3    H219630   4.779   2.443   4.648
 6563TIP3   OH219631   4.119   2.417   5.040
 6563TIP3    H119632   4.150   2.349   5.102
 6563TIP3    H219633   4.196   2.476   5.037
 6564TIP3   OH219634   5.066   2.828   4.358
 6564TIP3    H119635   5.047   2.760   4.424
 6564TIP3    H219636   5.094   2.903   4.414
 6565TIP3   OH219637   4.092   2.829   4.762
 6565TIP3    H119638   4.084   2.732   4.764
 6565TIP3    H219639   4.189   2.838   4.757
 6566TIP3   OH219640   3.798   2.029   4.547
 6566TIP3    H119641   3.750   2.112   4.565
 6566TIP3    H219642   3.728   1.978   4.502
 6567TIP3   OH219643   3.855   2.318   4.726
 6567TIP3    H119644   3.905   2.241   4.758
 6567TIP3    H219645   3.915   2.355   4.659
 6568TIP3   OH219646   4.718   3.296   4.373
 6568TIP3    H119647   4.759   3.220   4.327
 6568TIP3    H219648   4.696   3.257   4.459
 6569TIP3   OH219649   4.618   2.750   4.724
 6569TIP3    H119650   4.658   2.674   4.678
 6569TIP3    H219651   4.700   2.797   4.750
 6570TIP3   OH219652   5.634   2.069   4.722
 6570TIP3    H119653   5.663   2.153   4.764
 6570TIP3    H219654   5.655   2.086   4.629
 6571TIP3   OH219655   5.031   2.250   4.754
 6571TIP3    H119656   5.074   2.164   4.774
 6571TIP3    H219657   4.999   2.233   4.663
 6572TIP3   OH219658   4.373   1.910   4.719
 6572TIP3    H119659   4.351   1.983   4.657
 6572TIP3    H219660   4.324   1.836   4.676
 6573TIP3   OH219661   5.066   2.003   4.341
 6573TIP3    H119662   5.137   1.987   4.407
 6573TIP3    H219663   5.119   2.037   4.267
 6574TIP3   OH219664   4.002   2.111   4.828
 6574TIP3    H119665   4.085   2.093   4.875
 6574TIP3    H219666   4.016   2.056   4.748
 6575TIP3   OH219667   4.443   2.309   4.622
 6575TIP3    H119668   4.537   2.285   4.634
 6575TIP3    H219669   4.404   2.225   4.590
 6576TIP3   OH219670   5.707   2.279   4.892
 6576TIP3    H119671   5.622   2.325   4.872
 6576TIP3    H219672   5.724   2.310   4.982
 6577TIP3   OH219673   4.365   1.894   5.156
 6577TIP3    H119674   4.307   1.931   5.087
 6577TIP3    H219675   4.312   1.912   5.236
 6578TIP3   OH219676   4.712   2.747   4.160
 6578TIP3    H119677   4.667   2.729   4.076
 6578TIP3    H219678   4.667   2.829   4.188
 6579TIP3   OH219679   4.472   2.670   4.947
 6579TIP3    H119680   4.412   2.738   4.984
 6579TIP3    H219681   4.514   2.719   4.873
 6580TIP3   OH219682   5.271   2.007   4.519
 6580TIP3    H119683   5.253   1.965   4.604
 6580TIP3    H219684   5.323   2.085   4.545
 6581TIP3   OH219685   4.238   2.008   4.938
 6581TIP3    H119686   4.299   2.081   4.962
 6581TIP3    H219687   4.288   1.969   4.863
 6582TIP3   OH219688   4.302   2.866   5.046
 6582TIP3    H119689   4.277   2.953   5.010
 6582TIP3    H219690   4.223   2.849   5.101
 6583TIP3   OH219691   3.692   2.555   4.283
 6583TIP3    H119692   3.649   2.584   4.201
 6583TIP3    H219693   3.723   2.640   4.320
 6584TIP3   OH219694   5.135   3.072   4.523
 6584TIP3    H119695   5.046   3.061   4.564
 6584TIP3    H219696   5.123   3.158   4.477
 6585TIP3   OH219697   5.427   1.968   4.887
 6585TIP3    H119698   5.339   1.996   4.855
 6585TIP3    H219699   5.487   2.001   4.817
 6586TIP3   OH219700   4.720   1.611   4.872
 6586TIP3    H119701   4.703   1.516   4.888
 6586TIP3    H219702   4.643   1.651   4.918
 6587TIP3   OH219703   4.834   3.115   4.196
 6587TIP3    H119704   4.884   3.032   4.178
 6587TIP3    H219705   4.897   3.180   4.157
 6588TIP3   OH219706   4.979   2.900   4.107
 6588TIP3    H119707   4.933   2.822   4.074
 6588TIP3    H219708   5.018   2.866   4.191
 6589TIP3   OH219709   5.359   2.982   4.867
 6589TIP3    H119710   5.346   2.904   4.808
 6589TIP3    H219711   5.341   3.056   4.806
 6590TIP3   OH219712   4.652   2.375   4.127
 6590TIP3    H119713   4.571   2.428   4.107
 6590TIP3    H219714   4.696   2.374   4.040
 6591TIP3   OH219715   4.609   2.163   3.837
 6591TIP3    H119716   4.675   2.215   3.886
 6591TIP3    H219717   4.667   2.100   3.791
 6592TIP3   OH219718   5.554   2.621   4.714
 6592TIP3    H119719   5.470   2.672   4.718
 6592TIP3    H219720   5.584   2.645   4.624
 6593TIP3   OH219721   5.000   2.459   4.095
 6593TIP3    H119722   4.945   2.483   4.173
 6593TIP3    H219723   5.084   2.435   4.139
 6594TIP3   OH219724   5.233   2.496   5.012
 6594TIP3    H119725   5.230   2.579   5.063
 6594TIP3    H219726   5.146   2.500   4.967
 6595TIP3   OH219727   4.231   2.455   4.514
 6595TIP3    H119728   4.190   2.397   4.446
 6595TIP3    H219729   4.307   2.401   4.543
 6596TIP3   OH219730   4.361   2.867   4.661
 6596TIP3    H119731   4.341   2.832   4.573
 6596TIP3    H219732   4.450   2.830   4.678
 6597TIP3   OH219733   4.369   2.426   4.868
 6597TIP3    H119734   4.400   2.404   4.778
 6597TIP3    H219735   4.411   2.513   4.885
 6598TIP3   OH219736   4.896   3.064   4.645
 6598TIP3    H119737   4.879   3.145   4.696
 6598TIP3    H219738   4.876   2.993   4.709
 6599TIP3   OH219739   4.506   2.982   5.193
 6599TIP3    H119740   4.445   3.044   5.238
 6599TIP3    H219741   4.442   2.930   5.141
 6600TIP3   OH219742   4.838   2.317   3.922
 6600TIP3    H119743   4.897   2.377   3.973
 6600TIP3    H219744   4.864   2.338   3.830
 6601TIP3   OH219745   4.261   2.536   5.298
 6601TIP3    H119746   4.266   2.625   5.337
 6601TIP3    H219747   4.166   2.517   5.309
 6602TIP3   OH219748   4.585   2.992   4.196
 6602TIP3    H119749   4.665   3.048   4.208
 6602TIP3    H219750   4.522   3.054   4.158
 6603TIP3   OH219751   4.300   3.148   5.280
 6603TIP3    H119752   4.264   3.153   5.190
 6603TIP3    H219753   4.220   3.126   5.333
 6604TIP3   OH219754   5.354   1.555   3.972
 6604TIP3    H119755   5.273   1.578   4.021
 6604TIP3    H219756   5.370   1.638   3.922
 6605TIP3   OH219757   4.098   2.299   4.315
 6605TIP3    H119758   4.029   2.344   4.262
 6605TIP3    H219759   4.058   2.212   4.329
 6606TIP3   OH219760   5.154   2.923   3.519
 6606TIP3    H119761   5.163   3.020   3.505
 6606TIP3    H219762   5.247   2.894   3.507
 6607TIP3   OH219763   3.877   2.683   5.227
 6607TIP3    H119764   3.810   2.665   5.158
 6607TIP3    H219765   3.915   2.595   5.245
 6608TIP3   OH219766   3.732   2.873   4.862
 6608TIP3    H119767   3.828   2.877   4.852
 6608TIP3    H219768   3.714   2.955   4.912
 6609TIP3   OH219769   5.597   3.330   4.915
 6609TIP3    H119770   5.596   3.234   4.929
 6609TIP3    H219771   5.514   3.355   4.961
 6610TIP3   OH219772   4.704   3.110   5.051
 6610TIP3    H119773   4.700   3.203   5.082
 6610TIP3    H219774   4.631   3.070   5.104
 6611TIP3   OH219775   4.469   3.243   4.000
 6611TIP3    H119776   4.416   3.227   3.920
 6611TIP3    H219777   4.433   3.328   4.032
 6612TIP3   OH219778   3.903   3.090   4.386
 6612TIP3    H119779   3.950   3.081   4.472
 6612TIP3    H219780   3.843   3.014   4.390
 6613TIP3   OH219781   4.665   3.144   3.638
 6613TIP3    H119782   4.724   3.073   3.604
 6613TIP3    H219783   4.699   3.155   3.730
 6614TIP3   OH219784   4.718   3.192   3.907
 6614TIP3    H119785   4.628   3.204   3.947
 6614TIP3    H219786   4.765   3.150   3.981
 6615TIP3   OH219787   5.486   2.457   5.190
 6615TIP3    H119788   5.403   2.468   5.142
 6615TIP3    H219789   5.502   2.361   5.180
 6616TIP3   OH219790   4.084   2.864   5.209
 6616TIP3    H119791   4.130   2.851   5.294
 6616TIP3    H219792   4.008   2.802   5.219
 6617TIP3   OH219793   4.482   1.688   5.001
 6617TIP3    H119794   4.394   1.658   4.971
 6617TIP3    H219795   4.456   1.770   5.048
 6618TIP3   OH219796   5.017   1.802   5.194
 6618TIP3    H119797   5.086   1.776   5.258
 6618TIP3    H219798   4.934   1.784   5.241
 6619TIP3   OH219799   5.253   2.233   5.112
 6619TIP3    H119800   5.202   2.230   5.196
 6619TIP3    H219801   5.230   2.321   5.076
 6620TIP3   OH219802   4.915   2.359   3.667
 6620TIP3    H119803   4.880   2.336   3.579
 6620TIP3    H219804   4.998   2.404   3.643
 6621TIP3   OH219805   4.628   1.735   3.971
 6621TIP3    H119806   4.592   1.732   4.062
 6621TIP3    H219807   4.587   1.655   3.935
 6622TIP3   OH219808   4.415   2.205   5.018
 6622TIP3    H119809   4.363   2.226   5.099
 6622TIP3    H219810   4.399   2.286   4.964
 6623TIP3   OH219811   4.298   2.090   4.531
 6623TIP3    H119812   4.205   2.065   4.550
 6623TIP3    H219813   4.309   2.050   4.443
 6624TIP3   OH219814   4.789   2.176   4.261
 6624TIP3    H119815   4.738   2.247   4.217
 6624TIP3    H219816   4.843   2.143   4.187
 6625TIP3   OH219817   4.963   2.451   5.343
 6625TIP3    H119818   4.941   2.379   5.406
 6625TIP3    H219819   5.056   2.467   5.366
 6626TIP3   OH219820   4.944   2.203   4.497
 6626TIP3    H119821   4.882   2.231   4.427
 6626TIP3    H219822   4.979   2.123   4.452
 6627TIP3   OH219823   4.235   2.233   5.225
 6627TIP3    H119824   4.258   2.299   5.292
 6627TIP3    H219825   4.224   2.152   5.279
 6628TIP3   OH219826   4.285   1.712   3.936
 6628TIP3    H119827   4.273   1.710   4.033
 6628TIP3    H219828   4.206   1.763   3.909
 6629TIP3   OH219829   3.822   1.753   4.813
 6629TIP3    H119830   3.901   1.786   4.861
 6629TIP3    H219831   3.858   1.726   4.727
 6630TIP3   OH219832   3.803   1.739   4.329
 6630TIP3    H119833   3.845   1.774   4.248
 6630TIP3    H219834   3.736   1.808   4.345
 6631TIP3   OH219835   4.956   2.448   4.919
 6631TIP3    H119836   4.989   2.377   4.860
 6631TIP3    H219837   4.925   2.395   4.995
 6632TIP3   OH219838   4.629   1.909   4.591
 6632TIP3    H119839   4.547   1.910   4.643
 6632TIP3    H219840   4.697   1.909   4.661
 6633TIP3   OH219841   4.059   1.969   4.600
 6633TIP3    H119842   3.965   1.978   4.571
 6633TIP3    H219843   4.081   1.877   4.576
 6634TIP3   OH219844   4.325   1.964   4.290
 6634TIP3    H119845   4.419   1.979   4.266
 6634TIP3    H219846   4.277   1.986   4.207
 6635TIP3   OH219847   5.118   1.987   4.793
 6635TIP3    H119848   5.087   2.001   4.886
 6635TIP3    H219849   5.048   1.928   4.760
 6636TIP3   OH219850   4.174   1.999   4.067
 6636TIP3    H119851   4.102   1.953   4.020
 6636TIP3    H219852   4.225   2.035   3.992
 6637TIP3   OH219853   5.291   3.677   5.016
 6637TIP3    H119854   5.291   3.698   4.921
 6637TIP3    H219855   5.370   3.725   5.047
 6638TIP3   OH219856   4.246   2.785   5.434
 6638TIP3    H119857   4.325   2.817   5.483
 6638TIP3    H219858   4.180   2.787   5.506
 6639TIP3   OH219859   4.707   2.241   4.690
 6639TIP3    H119860   4.782   2.203   4.641
 6639TIP3    H219861   4.714   2.198   4.777
 6640TIP3   OH219862   4.230   1.727   4.572
 6640TIP3    H119863   4.192   1.650   4.620
 6640TIP3    H219864   4.269   1.685   4.494
 6641TIP3   OH219865   4.684   2.140   4.979
 6641TIP3    H119866   4.594   2.176   4.993
 6641TIP3    H219867   4.740   2.203   5.029
 6642TIP3   OH219868   4.422   2.527   4.075
 6642TIP3    H119869   4.349   2.462   4.062
 6642TIP3    H219870   4.401   2.562   4.165
 6643TIP3   OH219871   5.320   2.764   4.701
 6643TIP3    H119872   5.343   2.815   4.621
 6643TIP3    H219873   5.235   2.722   4.675
 6644TIP3   OH219874   4.879   1.838   3.940
 6644TIP3    H119875   4.782   1.819   3.949
 6644TIP3    H219876   4.885   1.933   3.965
 6645TIP3   OH219877   4.822   2.849   5.072
 6645TIP3    H119878   4.847   2.830   5.163
 6645TIP3    H219879   4.781   2.937   5.077
 6646TIP3   OH219880   4.947   2.089   4.043
 6646TIP3    H119881   5.043   2.095   4.058
 6646TIP3    H219882   4.927   2.169   3.991
 6647TIP3   OH219883   4.115   2.551   4.749
 6647TIP3    H119884   4.153   2.522   4.664
 6647TIP3    H219885   4.158   2.490   4.812
 6648TIP3   OH219886   4.565   2.678   3.896
 6648TIP3    H119887   4.516   2.764   3.899
 6648TIP3    H219888   4.511   2.623   3.957
 6649TIP3   OH219889   3.998   2.467   5.362
 6649TIP3    H119890   4.014   2.456   5.458
 6649TIP3    H219891   3.925   2.405   5.347
 6650TIP3   OH219892   4.722   2.587   5.383
 6650TIP3    H119893   4.660   2.527   5.337
 6650TIP3    H219894   4.808   2.551   5.353
 6651TIP3   OH219895   4.980   3.108   4.968
 6651TIP3    H119896   4.884   3.105   4.982
 6651TIP3    H219897   5.008   3.159   5.047
 6652TIP3   OH219898   5.388   2.182   3.877
 6652TIP3    H119899   5.326   2.138   3.813
 6652TIP3    H219900   5.385   2.271   3.837
 6653TIP3   OH219901   5.610   3.040   4.955
 6653TIP3    H119902   5.512   3.033   4.948
 6653TIP3    H219903   5.636   3.008   4.866
 6654TIP3   OH219904   5.093   2.998   3.786
 6654TIP3    H119905   5.063   2.930   3.848
 6654TIP3    H219906   5.104   2.949   3.702
 6655TIP3   OH219907   5.087   2.628   4.618
 6655TIP3    H119908   4.993   2.603   4.632
 6655TIP3    H219909   5.119   2.547   4.574
 6656TIP3   OH219910   4.215   2.856   4.373
 6656TIP3    H119911   4.211   2.938   4.320
 6656TIP3    H219912   4.122   2.840   4.391
 6657TIP3   OH219913   3.779   2.159   4.080
 6657TIP3    H119914   3.823   2.244   4.101
 6657TIP3    H219915   3.702   2.162   4.141
 6658TIP3   OH219916   4.348   2.619   4.317
 6658TIP3    H119917   4.314   2.709   4.335
 6658TIP3    H219918   4.313   2.569   4.393
 6659TIP3   OH219919   4.485   3.198   4.843
 6659TIP3    H119920   4.525   3.271   4.792
 6659TIP3    H219921   4.562   3.163   4.891
 6660TIP3   OH219922   4.134   3.092   4.227
 6660TIP3    H119923   4.049   3.102   4.272
 6660TIP3    H219924   4.169   3.184   4.230
 6661TIP3   OH219925   4.869   2.832   4.804
 6661TIP3    H119926   4.859   2.831   4.902
 6661TIP3    H219927   4.950   2.779   4.793
 6662TIP3   OH219928   4.849   2.729   3.686
 6662TIP3    H119929   4.902   2.702   3.764
 6662TIP3    H219930   4.761   2.699   3.714
 6663TIP3   OH219931   5.119   3.362   4.854
 6663TIP3    H119932   5.040   3.306   4.849
 6663TIP3    H219933   5.102   3.426   4.782
 6664TIP3   OH219934   5.186   3.200   3.505
 6664TIP3    H119935   5.226   3.275   3.459
 6664TIP3    H219936   5.105   3.243   3.538
 6665TIP3   OH219937   4.204   1.975   5.370
 6665TIP3    H119938   4.107   1.978   5.383
 6665TIP3    H219939   4.232   1.920   5.444
 6666TIP3   OH219940   5.009   2.657   3.898
 6666TIP3    H119941   4.998   2.593   3.971
 6666TIP3    H219942   5.107   2.655   3.888
 6667TIP3   OH219943   3.925   3.059   5.000
 6667TIP3    H119944   3.979   2.990   5.040
 6667TIP3    H219945   3.945   3.135   5.057
 6668TIP3   OH219946   4.212   2.705   3.685
 6668TIP3    H119947   4.225   2.611   3.660
 6668TIP3    H219948   4.192   2.697   3.780
 6669TIP3   OH219949   4.158   2.712   3.955
 6669TIP3    H119950   4.227   2.685   4.017
 6669TIP3    H219951   4.159   2.809   3.965
 6670TIP3   OH219952   3.890   2.404   4.163
 6670TIP3    H119953   3.823   2.449   4.219
 6670TIP3    H219954   3.902   2.472   4.094
 6671TIP3   OH219955   5.047   2.038   5.053
 6671TIP3    H119956   5.125   2.079   5.094
 6671TIP3    H219957   5.033   1.958   5.108
 6672TIP3   OH219958   4.927   1.788   4.222
 6672TIP3    H119959   4.911   1.810   4.128
 6672TIP3    H219960   4.965   1.871   4.257
 6673TIP3   OH219961   4.425   2.909   3.904
 6673TIP3    H119962   4.337   2.930   3.942
 6673TIP3    H219963   4.439   2.989   3.852
 6674TIP3   OH219964   4.611   1.972   4.321
 6674TIP3    H119965   4.674   2.046   4.305
 6674TIP3    H219966   4.616   1.964   4.419
 6675TIP3   OH219967   4.882   2.288   5.127
 6675TIP3    H119968   4.905   2.342   5.205
 6675TIP3    H219969   4.935   2.208   5.140
 6676TIP3   OH219970   4.754   1.694   4.422
 6676TIP3    H119971   4.743   1.773   4.478
 6676TIP3    H219972   4.816   1.728   4.354
 6677TIP3   OH219973   4.170   2.983   3.976
 6677TIP3    H119974   4.138   3.052   3.914
 6677TIP3    H219975   4.152   3.025   4.063
 6678TIP3   OH219976   4.268   1.698   4.213
 6678TIP3    H119977   4.265   1.789   4.249
 6678TIP3    H219978   4.365   1.681   4.220
 6679TIP3   OH219979   5.520   2.190   5.110
 6679TIP3    H119980   5.422   2.189   5.118
 6679TIP3    H219981   5.531   2.147   5.024
 6680TIP3   OH219982   5.172   2.383   4.497
 6680TIP3    H119983   5.095   2.325   4.509
 6680TIP3    H219984   5.243   2.336   4.545
 6681TIP3   OH219985   3.886   2.608   3.967
 6681TIP3    H119986   3.951   2.680   3.976
 6681TIP3    H219987   3.933   2.553   3.899
 6682TIP3   OH219988   3.828   1.889   4.102
 6682TIP3    H119989   3.827   1.986   4.098
 6682TIP3    H219990   3.750   1.865   4.051
 6683TIP3   OH219991   5.141   3.345   4.445
 6683TIP3    H119992   5.099   3.395   4.371
 6683TIP3    H219993   5.236   3.363   4.424
 6684TIP3   OH219994   4.218   1.608   4.971
 6684TIP3    H119995   4.187   1.575   4.884
 6684TIP3    H219996   4.206   1.530   5.028
 6685TIP3   OH219997   3.749   2.820   4.350
 6685TIP3    H119998   3.688   2.854   4.417
 6685TIP3    H219999   3.716   2.866   4.269
 6686TIP3   OH220000   3.915   3.377   5.423
 6686TIP3    H120001   4.000   3.378   5.473
 6686TIP3    H220002   3.893   3.282   5.425
 6687TIP3   OH220003   4.394   3.329   5.471
 6687TIP3    H120004   4.489   3.311   5.474
 6687TIP3    H220005   4.365   3.270   5.399
 6688TIP3   OH220006   4.374   2.907   3.593
 6688TIP3    H120007   4.317   2.837   3.634
 6688TIP3    H220008   4.450   2.853   3.568
 6689TIP3   OH220009   5.035   3.239   5.203
 6689TIP3    H120010   5.026   3.170   5.272
 6689TIP3    H220011   5.110   3.292   5.235
 6690TIP3   OH220012   4.811   2.947   3.511
 6690TIP3    H120013   4.849   2.880   3.572
 6690TIP3    H220014   4.871   2.942   3.434
 6691TIP3   OH220015   4.043   2.775   5.625
 6691TIP3    H120016   4.057   2.679   5.631
 6691TIP3    H220017   3.956   2.780   5.580
 6692TIP3   OH220018   4.023   2.424   3.820
 6692TIP3    H120019   4.078   2.393   3.894
 6692TIP3    H220020   4.091   2.429   3.749
 6693TIP3   OH220021   4.651   2.864   5.399
 6693TIP3    H120022   4.608   2.884   5.313
 6693TIP3    H220023   4.680   2.771   5.387
 6694TIP3   OH220024   4.536   2.627   3.627
 6694TIP3    H120025   4.537   2.638   3.724
 6694TIP3    H220026   4.535   2.529   3.620
 6695TIP3   OH220027   5.143   2.873   5.007
 6695TIP3    H120028   5.218   2.917   4.963
 6695TIP3    H220029   5.072   2.938   4.993
 6696TIP3   OH220030   4.163   2.509   5.611
 6696TIP3    H120031   4.243   2.464   5.583
 6696TIP3    H220032   4.190   2.545   5.698
 6697TIP3   OH220033   4.227   2.332   4.040
 6697TIP3    H120034   4.199   2.292   4.123
 6697TIP3    H220035   4.264   2.255   3.991
 6698TIP3   OH220036   4.499   2.395   5.271
 6698TIP3    H120037   4.420   2.453   5.271
 6698TIP3    H220038   4.549   2.430   5.193
 6699TIP3   OH220039   4.330   2.126   3.880
 6699TIP3    H120040   4.304   2.132   3.786
 6699TIP3    H220041   4.428   2.128   3.873
 6700TIP3   OH220042   5.015   2.797   5.403
 6700TIP3    H120043   5.093   2.767   5.355
 6700TIP3    H220044   5.009   2.732   5.476
 6701TIP3   OH220045   5.149   2.453   3.548
 6701TIP3    H120046   5.129   2.409   3.463
 6701TIP3    H220047   5.116   2.544   3.526
 6702TIP3   OH220048   4.623   2.184   5.393
 6702TIP3    H120049   4.622   2.106   5.334
 6702TIP3    H220050   4.578   2.252   5.337
 6703TIP3   OH220051   4.624   1.970   5.203
 6703TIP3    H120052   4.652   2.012   5.119
 6703TIP3    H220053   4.531   1.948   5.184
 6704TIP3   OH220054   4.648   2.505   5.076
 6704TIP3    H120055   4.733   2.520   5.033
 6704TIP3    H220056   4.590   2.570   5.031
 6705TIP3   OH220057   5.230   2.470   5.454
 6705TIP3    H120058   5.280   2.388   5.467
 6705TIP3    H220059   5.298   2.530   5.420
 6706TIP3   OH220060   5.273   2.725   5.192
 6706TIP3    H120061   5.215   2.779   5.134
 6706TIP3    H220062   5.360   2.746   5.153
 6707TIP3   OH220063   4.501   2.290   5.628
 6707TIP3    H120064   4.432   2.223   5.643
 6707TIP3    H220065   4.533   2.266   5.539
 6708TIP3   OH220066   4.755   1.732   5.273
 6708TIP3    H120067   4.706   1.814   5.249
 6708TIP3    H220068   4.686   1.664   5.261
 6709TIP3   OH220069   4.882   2.234   5.487
 6709TIP3    H120070   4.867   2.221   5.582
 6709TIP3    H220071   4.793   2.211   5.453
 6710TIP3   OH220072   5.119   2.184   5.341
 6710TIP3    H120073   5.045   2.187   5.404
 6710TIP3    H220074   5.194   2.156   5.398
 6711TIP3   OH220075   5.350   2.128   5.491
 6711TIP3    H120076   5.363   2.032   5.507
 6711TIP3    H220077   5.346   2.165   5.581
 6712TIP3   OH220078   4.337   2.071   5.682
 6712TIP3    H120079   4.343   1.980   5.649
 6712TIP3    H220080   4.374   2.061   5.772
 6713TIP3   OH220081   4.848   1.741   5.531
 6713TIP3    H120082   4.915   1.670   5.523
 6713TIP3    H220083   4.808   1.738   5.442
 6714TIP3   OH220084   4.916   1.956   5.689
 6714TIP3    H120085   4.894   1.886   5.625
 6714TIP3    H220086   4.838   2.016   5.682
 6715TIP3   OH220087   4.138   3.183   3.785
 6715TIP3    H120088   4.233   3.177   3.765
 6715TIP3    H220089   4.110   3.243   3.713
 6716TIP3   OH220090   3.617   2.569   4.000
 6716TIP3    H120091   3.713   2.590   3.988
 6716TIP3    H220092   3.612   2.480   3.960
 6717TIP3   OH220093   3.541   3.179   4.414
 6717TIP3    H120094   3.470   3.122   4.377
 6717TIP3    H220095   3.580   3.118   4.480
 6718TIP3   OH220096   3.673   3.024   4.601
 6718TIP3    H120097   3.649   2.958   4.668
 6718TIP3    H220098   3.721   3.089   4.656
 6719TIP3   OH220099   5.395   3.436   4.404
 6719TIP3    H120100   5.425   3.463   4.493
 6719TIP3    H220101   5.468   3.467   4.347
 6720TIP3   OH220102   5.426   3.451   4.688
 6720TIP3    H120103   5.377   3.366   4.683
 6720TIP3    H220104   5.499   3.425   4.745
 6721TIP3   OH220105   5.470   3.128   5.260
 6721TIP3    H120106   5.398   3.137   5.325
 6721TIP3    H220107   5.513   3.216   5.264
 6722TIP3   OH220108   5.288   2.640   3.878
 6722TIP3    H120109   5.354   2.705   3.849
 6722TIP3    H220110   5.333   2.603   3.958
 6723TIP3   OH220111   5.415   2.508   4.083
 6723TIP3    H120112   5.348   2.466   4.141
 6723TIP3    H220113   5.480   2.544   4.147
 6724TIP3   OH220114   5.473   2.903   4.516
 6724TIP3    H120115   5.523   2.834   4.468
 6724TIP3    H220116   5.465   2.973   4.449
 6725TIP3   OH220117   5.298   3.203   4.708
 6725TIP3    H120118   5.226   3.242   4.761
 6725TIP3    H220119   5.249   3.156   4.637
 6726TIP3   OH220120   5.352   2.416   3.728
 6726TIP3    H120121   5.280   2.418   3.661
 6726TIP3    H220122   5.324   2.492   3.784
 6727TIP3   OH220123   5.223   2.089   3.682
 6727TIP3    H120124   5.178   2.125   3.605
 6727TIP3    H220125   5.200   1.993   3.674
 6728TIP3   OH220126   5.227   2.367   4.228
 6728TIP3    H120127   5.234   2.271   4.220
 6728TIP3    H220128   5.213   2.379   4.325
 6729TIP3   OH220129   3.854   2.432   4.979
 6729TIP3    H120130   3.850   2.403   4.885
 6729TIP3    H220131   3.951   2.436   4.993
 6730TIP3   OH220132   5.519   2.791   5.086
 6730TIP3    H120133   5.590   2.724   5.075
 6730TIP3    H220134   5.543   2.859   5.021
 6731TIP3   OH220135   5.701   2.592   5.094
 6731TIP3    H120136   5.627   2.543   5.136
 6731TIP3    H220137   5.774   2.528   5.112
 6732TIP3   OH220138   5.166   1.823   3.665
 6732TIP3    H120139   5.239   1.790   3.723
 6732TIP3    H220140   5.092   1.764   3.687
 6733TIP3   OH220141   5.225   2.083   4.121
 6733TIP3    H120142   5.266   1.994   4.136
 6733TIP3    H220143   5.283   2.116   4.050
 6734TIP3   OH220144   5.384   2.251   4.619
 6734TIP3    H120145   5.470   2.276   4.577
 6734TIP3    H220146   5.399   2.290   4.707
 6735TIP3   OH220147   5.456   2.399   4.848
 6735TIP3    H120148   5.379   2.433   4.897
 6735TIP3    H220149   5.489   2.481   4.804
 6736TIP3   OH220150   4.070   2.121   5.644
 6736TIP3    H120151   4.168   2.118   5.651
 6736TIP3    H220152   4.047   2.036   5.687
 6737TIP3   OH220153   5.906   1.992   5.404
 6737TIP3    H120154   5.967   1.928   5.362
 6737TIP3    H220155   5.876   2.044   5.327
 6738TIP3   OH220156   5.333   1.833   4.160
 6738TIP3    H120157   5.381   1.816   4.244
 6738TIP3    H220158   5.272   1.756   4.159
 6739TIP3   OH220159   4.034   1.817   4.984
 6739TIP3    H120160   4.096   1.742   4.990
 6739TIP3    H220161   4.096   1.892   4.973
 6740TIP3   OH220162   3.834   2.090   5.053
 6740TIP3    H120163   3.884   2.086   4.969
 6740TIP3    H220164   3.858   2.177   5.086
 6741TIP3   OH220165   5.775   2.128   5.209
 6741TIP3    H120166   5.690   2.172   5.230
 6741TIP3    H220167   5.743   2.056   5.152
 6742TIP3   OH220168   5.411   1.763   3.796
 6742TIP3    H120169   5.451   1.694   3.739
 6742TIP3    H220170   5.478   1.835   3.792
 6743TIP3   OH220171   3.817   1.600   4.560
 6743TIP3    H120172   3.722   1.592   4.581
 6743TIP3    H220173   3.815   1.656   4.480
 6744TIP3   OH220174   4.984   3.298   4.062
 6744TIP3    H120175   5.028   3.282   3.976
 6744TIP3    H220176   5.046   3.358   4.105
 6745TIP3   OH220177   4.039   1.670   5.367
 6745TIP3    H120178   3.989   1.671   5.450
 6745TIP3    H220179   3.975   1.711   5.306
 6746TIP3   OH220180   4.081   3.098   5.445
 6746TIP3    H120181   3.986   3.079   5.429
 6746TIP3    H220182   4.087   3.089   5.540
 6747TIP3   OH220183   4.260   3.136   4.993
 6747TIP3    H120184   4.210   3.211   4.954
 6747TIP3    H220185   4.345   3.152   4.947
 6748TIP3   OH220186   4.700   3.376   5.129
 6748TIP3    H120187   4.741   3.378   5.218
 6748TIP3    H220188   4.765   3.430   5.078
 6749TIP3   OH220189   4.883   3.530   4.995
 6749TIP3    H120190   4.954   3.477   4.956
 6749TIP3    H220191   4.935   3.587   5.057
 6750TIP3   OH220192   5.676   1.892   5.090
 6750TIP3    H120193   5.586   1.883   5.054
 6750TIP3    H220194   5.709   1.799   5.080
 6751TIP3   OH220195   3.935   3.389   5.020
 6751TIP3    H120196   3.845   3.421   4.996
 6751TIP3    H220197   3.946   3.435   5.104
 6752TIP3   OH220198   4.169   3.369   4.875
 6752TIP3    H120199   4.083   3.382   4.920
 6752TIP3    H220200   4.150   3.403   4.786
 6753TIP3   OH220201   4.596   3.389   4.668
 6753TIP3    H120202   4.521   3.411   4.609
 6753TIP3    H220203   4.610   3.475   4.714
 6754TIP3   OH220204   4.864   3.335   4.725
 6754TIP3    H120205   4.768   3.348   4.707
 6754TIP3    H220206   4.901   3.417   4.687
 6755TIP3   OH220207   5.081   3.531   4.640
 6755TIP3    H120208   5.064   3.611   4.588
 6755TIP3    H220209   5.101   3.465   4.570
 6756TIP3   OH220210   3.845   3.185   4.760
 6756TIP3    H120211   3.871   3.158   4.851
 6756TIP3    H220212   3.917   3.142   4.709
 6757TIP3   OH220213   4.040   3.057   4.620
 6757TIP3    H120214   4.055   2.974   4.671
 6757TIP3    H220215   4.131   3.094   4.616
 6758TIP3   OH220216   4.307   3.148   4.625
 6758TIP3    H120217   4.337   3.056   4.617
 6758TIP3    H220218   4.352   3.173   4.707
 6759TIP3   OH220219   4.883   1.808   4.713
 6759TIP3    H120220   4.839   1.737   4.762
 6759TIP3    H220221   4.955   1.761   4.667
 6760TIP3   OH220222   5.401   1.686   4.613
 6760TIP3    H120223   5.438   1.739   4.539
 6760TIP3    H220224   5.306   1.707   4.607
 6761TIP3   OH220225   5.498   1.786   4.377
 6761TIP3    H120226   5.572   1.735   4.338
 6761TIP3    H220227   5.531   1.877   4.363
 6762TIP3   OH220228   4.128   1.516   4.725
 6762TIP3    H120229   4.035   1.485   4.724
 6762TIP3    H220230   4.175   1.430   4.718
 6763TIP3   OH220231   3.943   1.389   4.388
 6763TIP3    H120232   3.958   1.442   4.307
 6763TIP3    H220233   3.902   1.454   4.448
 6764TIP3   OH220234   4.578   1.544   4.606
 6764TIP3    H120235   4.632   1.594   4.543
 6764TIP3    H220236   4.598   1.589   4.690
 6765TIP3   OH220237   5.118   1.696   4.589
 6765TIP3    H120238   5.117   1.657   4.500
 6765TIP3    H220239   5.106   1.616   4.646
 6766TIP3   OH220240   5.150   1.620   4.153
 6766TIP3    H120241   5.064   1.664   4.169
 6766TIP3    H220242   5.135   1.534   4.197
 6767TIP3   OH220243   3.634   2.958   4.149
 6767TIP3    H120244   3.547   2.927   4.117
 6767TIP3    H220245   3.625   3.053   4.131
 6768TIP3   OH220246   4.035   1.545   4.136
 6768TIP3    H120247   4.081   1.482   4.077
 6768TIP3    H220248   4.110   1.598   4.170
 6769TIP3   OH220249   4.545   1.722   4.235
 6769TIP3    H120250   4.605   1.675   4.295
 6769TIP3    H220251   4.567   1.815   4.260
 6770TIP3   OH220252   4.406   3.141   3.734
 6770TIP3    H120253   4.494   3.164   3.698
 6770TIP3    H220254   4.384   3.065   3.675
 6771TIP3   OH220255   5.124   3.264   3.827
 6771TIP3    H120256   5.117   3.166   3.816
 6771TIP3    H220257   5.078   3.295   3.746
 6772TIP3   OH220258   4.336   1.795   5.614
 6772TIP3    H120259   4.300   1.725   5.673
 6772TIP3    H220260   4.430   1.795   5.643
 6773TIP3   OH220261   4.586   1.793   5.734
 6773TIP3    H120262   4.672   1.771   5.695
 6773TIP3    H220263   4.575   1.722   5.800
 6774TIP3   OH220264   3.706   2.995   3.776
 6774TIP3    H120265   3.701   3.011   3.871
 6774TIP3    H220266   3.795   2.956   3.766
 6775TIP3   OH220267   5.413   1.857   5.522
 6775TIP3    H120268   5.431   1.826   5.613
 6775TIP3    H220269   5.503   1.852   5.482
 6776TIP3   OH220270   5.349   3.407   5.014
 6776TIP3    H120271   5.270   3.375   4.965
 6776TIP3    H220272   5.328   3.502   5.022
 6777TIP3   OH220273   6.617   2.782   3.778
 6777TIP3    H120274   6.586   2.873   3.757
 6777TIP3    H220275   6.542   2.730   3.745
 6778TIP3   OH220276   6.617   2.782   4.166
 6778TIP3    H120277   6.651   2.755   4.253
 6778TIP3    H220278   6.576   2.700   4.135
 6779TIP3   OH220279   5.913   2.674   4.528
 6779TIP3    H120280   5.943   2.604   4.590
 6779TIP3    H220281   5.994   2.727   4.520
 6780TIP3   OH220282   6.863   3.085   3.845
 6780TIP3    H120283   6.844   3.017   3.911
 6780TIP3    H220284   6.891   3.160   3.900
 6781TIP3   OH220285   5.889   3.087   4.251
 6781TIP3    H120286   5.880   2.989   4.252
 6781TIP3    H220287   5.985   3.095   4.242
 6782TIP3   OH220288   5.594   2.286   4.033
 6782TIP3    H120289   5.546   2.369   4.051
 6782TIP3    H220290   5.523   2.235   3.991
 6783TIP3   OH220291   5.651   2.575   4.213
 6783TIP3    H120292   5.701   2.497   4.246
 6783TIP3    H220293   5.711   2.608   4.144
 6784TIP3   OH220294   6.508   3.542   3.859
 6784TIP3    H120295   6.553   3.471   3.809
 6784TIP3    H220296   6.500   3.504   3.947
 6785TIP3   OH220297   6.414   3.008   4.211
 6785TIP3    H120298   6.453   2.930   4.167
 6785TIP3    H220299   6.497   3.054   4.236
 6786TIP3   OH220300   7.427   2.327   4.206
 6786TIP3    H120301   7.459   2.409   4.248
 6786TIP3    H220302   7.456   2.339   4.114
 6787TIP3   OH220303   6.827   2.507   4.240
 6787TIP3    H120304   6.870   2.422   4.261
 6787TIP3    H220305   6.795   2.490   4.150
 6788TIP3   OH220306   6.168   2.167   4.206
 6788TIP3    H120307   6.148   2.240   4.143
 6788TIP3    H220308   6.119   2.094   4.163
 6789TIP3   OH220309   6.861   2.260   3.827
 6789TIP3    H120310   6.932   2.244   3.894
 6789TIP3    H220311   6.915   2.294   3.753
 6790TIP3   OH220312   5.799   2.368   4.315
 6790TIP3    H120313   5.882   2.350   4.362
 6790TIP3    H220314   5.813   2.313   4.235
 6791TIP3   OH220315   6.238   2.566   4.111
 6791TIP3    H120316   6.333   2.542   4.122
 6791TIP3    H220317   6.200   2.482   4.077
 6792TIP3   OH220318   7.503   2.535   4.378
 6792TIP3    H120319   7.418   2.580   4.359
 6792TIP3    H220320   7.518   2.564   4.469
 6793TIP3   OH220321   6.162   2.151   4.642
 6793TIP3    H120322   6.102   2.188   4.574
 6793TIP3    H220323   6.109   2.168   4.723
 6794TIP3   OH220324   6.507   3.003   3.647
 6794TIP3    H120325   6.464   2.986   3.562
 6794TIP3    H220326   6.462   3.085   3.675
 6795TIP3   OH220327   6.269   2.927   4.433
 6795TIP3    H120328   6.208   2.995   4.470
 6795TIP3    H220329   6.311   2.975   4.359
 6796TIP3   OH220330   7.066   2.265   4.005
 6796TIP3    H120331   7.054   2.218   4.088
 6796TIP3    H220332   7.120   2.342   4.031
 6797TIP3   OH220333   6.034   2.265   4.425
 6797TIP3    H120334   6.096   2.338   4.449
 6797TIP3    H220335   6.083   2.225   4.350
 6798TIP3   OH220336   6.098   3.123   4.534
 6798TIP3    H120337   6.071   3.209   4.497
 6798TIP3    H220338   6.019   3.104   4.590
 6799TIP3   OH220339   5.488   2.812   3.770
 6799TIP3    H120340   5.448   2.840   3.686
 6799TIP3    H220341   5.521   2.897   3.806
 6800TIP3   OH220342   6.929   3.328   4.009
 6800TIP3    H120343   6.840   3.321   4.050
 6800TIP3    H220344   6.921   3.414   3.963
 6801TIP3   OH220345   7.223   2.226   4.374
 6801TIP3    H120346   7.135   2.253   4.341
 6801TIP3    H220347   7.283   2.258   4.304
 6802TIP3   OH220348   6.514   1.867   4.357
 6802TIP3    H120349   6.500   1.772   4.375
 6802TIP3    H220350   6.438   1.906   4.404
 6803TIP3   OH220351   6.630   3.369   3.681
 6803TIP3    H120352   6.681   3.287   3.662
 6803TIP3    H220353   6.692   3.435   3.643
 6804TIP3   OH220354   6.776   3.155   3.593
 6804TIP3    H120355   6.730   3.077   3.560
 6804TIP3    H220356   6.814   3.122   3.677
 6805TIP3   OH220357   7.157   3.237   4.354
 6805TIP3    H120358   7.143   3.160   4.294
 6805TIP3    H220359   7.136   3.311   4.294
 6806TIP3   OH220360   6.448   2.633   3.614
 6806TIP3    H120361   6.368   2.685   3.592
 6806TIP3    H220362   6.493   2.629   3.527
 6807TIP3   OH220363   6.405   2.419   3.326
 6807TIP3    H120364   6.473   2.471   3.373
 6807TIP3    H220365   6.463   2.356   3.278
 6808TIP3   OH220366   7.351   2.880   4.202
 6808TIP3    H120367   7.266   2.929   4.205
 6808TIP3    H220368   7.379   2.901   4.111
 6809TIP3   OH220369   6.796   2.716   3.582
 6809TIP3    H120370   6.741   2.740   3.660
 6809TIP3    H220371   6.880   2.691   3.626
 6810TIP3   OH220372   7.029   2.753   4.499
 6810TIP3    H120373   7.025   2.836   4.550
 6810TIP3    H220374   6.943   2.756   4.453
 6811TIP3   OH220375   6.027   2.712   4.001
 6811TIP3    H120376   5.986   2.654   3.934
 6811TIP3    H220377   6.103   2.658   4.031
 6812TIP3   OH220378   6.157   3.123   4.149
 6812TIP3    H120379   6.136   3.089   4.060
 6812TIP3    H220380   6.246   3.086   4.165
 6813TIP3   OH220381   6.162   2.683   4.356
 6813TIP3    H120382   6.195   2.658   4.267
 6813TIP3    H220383   6.206   2.769   4.372
 6814TIP3   OH220384   6.691   3.327   4.136
 6814TIP3    H120385   6.676   3.407   4.188
 6814TIP3    H220386   6.672   3.254   4.198
 6815TIP3   OH220387   6.301   3.241   4.675
 6815TIP3    H120388   6.239   3.299   4.724
 6815TIP3    H220389   6.237   3.186   4.625
 6816TIP3   OH220390   6.633   2.574   3.410
 6816TIP3    H120391   6.692   2.634   3.460
 6816TIP3    H220392   6.660   2.595   3.317
 6817TIP3   OH220393   6.057   2.795   4.783
 6817TIP3    H120394   6.061   2.883   4.825
 6817TIP3    H220395   5.962   2.774   4.795
 6818TIP3   OH220396   6.380   3.250   3.685
 6818TIP3    H120397   6.462   3.303   3.695
 6818TIP3    H220398   6.319   3.314   3.645
 6819TIP3   OH220399   6.095   3.407   4.766
 6819TIP3    H120400   6.060   3.407   4.675
 6819TIP3    H220401   6.015   3.385   4.819
 6820TIP3   OH220402   7.150   1.812   3.459
 6820TIP3    H120403   7.069   1.834   3.509
 6820TIP3    H220404   7.165   1.895   3.409
 6821TIP3   OH220405   5.894   2.556   3.805
 6821TIP3    H120406   5.825   2.599   3.750
 6821TIP3    H220407   5.857   2.468   3.816
 6822TIP3   OH220408   6.950   3.180   3.005
 6822TIP3    H120409   6.958   3.278   2.993
 6822TIP3    H220410   7.043   3.152   2.991
 6823TIP3   OH220411   5.675   2.940   4.712
 6823TIP3    H120412   5.607   2.919   4.645
 6823TIP3    H220413   5.712   2.852   4.734
 6824TIP3   OH220414   5.529   3.134   4.341
 6824TIP3    H120415   5.625   3.125   4.333
 6824TIP3    H220416   5.522   3.209   4.401
 6825TIP3   OH220417   7.365   3.592   4.414
 6825TIP3    H120418   7.378   3.495   4.418
 6825TIP3    H220419   7.278   3.600   4.457
 6826TIP3   OH220420   6.500   3.368   4.544
 6826TIP3    H120421   6.505   3.439   4.610
 6826TIP3    H220422   6.423   3.317   4.580
 6827TIP3   OH220423   6.263   3.499   3.488
 6827TIP3    H120424   6.214   3.484   3.405
 6827TIP3    H220425   6.229   3.585   3.517
 6828TIP3   OH220426   5.698   3.344   3.873
 6828TIP3    H120427   5.745   3.336   3.959
 6828TIP3    H220428   5.647   3.261   3.873
 6829TIP3   OH220429   6.460   3.399   3.126
 6829TIP3    H120430   6.520   3.330   3.091
 6829TIP3    H220431   6.494   3.411   3.217
 6830TIP3   OH220432   6.513   3.448   3.394
 6830TIP3    H120433   6.425   3.459   3.436
 6830TIP3    H220434   6.565   3.413   3.469
 6831TIP3   OH220435   7.282   2.714   4.675
 6831TIP3    H120436   7.199   2.723   4.627
 6831TIP3    H220437   7.299   2.618   4.667
 6832TIP3   OH220438   5.879   3.123   4.699
 6832TIP3    H120439   5.928   3.105   4.781
 6832TIP3    H220440   5.804   3.060   4.705
 6833TIP3   OH220441   6.278   1.945   4.488
 6833TIP3    H120442   6.190   1.915   4.458
 6833TIP3    H220443   6.252   2.026   4.535
 6834TIP3   OH220444   6.814   2.060   4.681
 6834TIP3    H120445   6.883   2.031   4.744
 6834TIP3    H220446   6.731   2.040   4.729
 6835TIP3   OH220447   7.049   2.489   4.599
 6835TIP3    H120448   6.999   2.487   4.683
 6835TIP3    H220449   7.026   2.577   4.563
 6836TIP3   OH220450   6.714   2.618   3.157
 6836TIP3    H120451   6.676   2.595   3.070
 6836TIP3    H220452   6.797   2.662   3.130
 6837TIP3   OH220453   6.423   1.992   3.458
 6837TIP3    H120454   6.388   1.989   3.549
 6837TIP3    H220455   6.383   1.911   3.422
 6838TIP3   OH220456   6.211   2.462   4.505
 6838TIP3    H120457   6.160   2.482   4.586
 6838TIP3    H220458   6.195   2.543   4.452
 6839TIP3   OH220459   6.094   2.348   4.018
 6839TIP3    H120460   6.001   2.322   4.037
 6839TIP3    H220461   6.106   2.307   3.929
 6840TIP3   OH220462   6.585   2.433   3.748
 6840TIP3    H120463   6.534   2.504   3.703
 6840TIP3    H220464   6.640   2.399   3.674
 6841TIP3   OH220465   6.759   2.709   4.831
 6841TIP3    H120466   6.737   2.636   4.893
 6841TIP3    H220467   6.853   2.722   4.853
 6842TIP3   OH220468   6.740   2.459   3.983
 6842TIP3    H120469   6.678   2.486   3.913
 6842TIP3    H220470   6.776   2.379   3.940
 6843TIP3   OH220471   6.030   2.489   4.712
 6843TIP3    H120472   6.058   2.552   4.780
 6843TIP3    H220473   6.018   2.407   4.764
 6844TIP3   OH220474   6.080   1.968   3.422
 6844TIP3    H120475   6.069   1.968   3.519
 6844TIP3    H220476   6.002   2.021   3.395
 6845TIP3   OH220477   5.623   2.009   4.295
 6845TIP3    H120478   5.697   2.043   4.348
 6845TIP3    H220479   5.665   1.981   4.212
 6846TIP3   OH220480   5.589   1.991   3.813
 6846TIP3    H120481   5.635   2.028   3.734
 6846TIP3    H220482   5.528   2.065   3.832
 6847TIP3   OH220483   6.752   2.705   4.406
 6847TIP3    H120484   6.785   2.634   4.346
 6847TIP3    H220485   6.721   2.651   4.481
 6848TIP3   OH220486   6.426   2.169   4.078
 6848TIP3    H120487   6.344   2.168   4.133
 6848TIP3    H220488   6.495   2.162   4.146
 6849TIP3   OH220489   5.856   2.226   4.086
 6849TIP3    H120490   5.761   2.234   4.057
 6849TIP3    H220491   5.879   2.134   4.063
 6850TIP3   OH220492   6.121   2.220   3.777
 6850TIP3    H120493   6.215   2.235   3.755
 6850TIP3    H220494   6.074   2.242   3.693
 6851TIP3   OH220495   6.913   2.246   4.282
 6851TIP3    H120496   6.881   2.258   4.374
 6851TIP3    H220497   6.846   2.185   4.247
 6852TIP3   OH220498   5.970   2.256   3.553
 6852TIP3    H120499   5.900   2.210   3.504
 6852TIP3    H220500   6.022   2.294   3.479
 6853TIP3   OH220501   7.038   3.990   4.509
 6853TIP3    H120502   7.051   3.972   4.413
 6853TIP3    H220503   7.119   3.952   4.547
 6854TIP3   OH220504   6.042   3.045   4.921
 6854TIP3    H120505   6.121   3.074   4.970
 6854TIP3    H220506   5.976   3.042   4.993
 6855TIP3   OH220507   6.503   2.499   4.177
 6855TIP3    H120508   6.577   2.460   4.127
 6855TIP3    H220509   6.509   2.454   4.263
 6856TIP3   OH220510   6.024   1.985   4.058
 6856TIP3    H120511   5.988   1.907   4.107
 6856TIP3    H220512   6.070   1.943   3.985
 6857TIP3   OH220513   6.480   2.397   4.465
 6857TIP3    H120514   6.390   2.432   4.480
 6857TIP3    H220515   6.537   2.459   4.516
 6858TIP3   OH220516   6.217   2.785   3.561
 6858TIP3    H120517   6.145   2.719   3.549
 6858TIP3    H220518   6.196   2.818   3.651
 6859TIP3   OH220519   7.115   3.022   4.188
 6859TIP3    H120520   7.138   3.072   4.107
 6859TIP3    H220521   7.031   2.978   4.162
 6860TIP3   OH220522   6.675   2.094   3.430
 6860TIP3    H120523   6.578   2.075   3.436
 6860TIP3    H220524   6.681   2.189   3.452
 6861TIP3   OH220525   6.611   3.095   4.560
 6861TIP3    H120526   6.648   3.073   4.647
 6861TIP3    H220527   6.584   3.187   4.571
 6862TIP3   OH220528   6.743   2.346   3.531
 6862TIP3    H120529   6.839   2.352   3.544
 6862TIP3    H220530   6.724   2.426   3.478
 6863TIP3   OH220531   5.911   2.810   4.235
 6863TIP3    H120532   5.949   2.780   4.150
 6863TIP3    H220533   5.954   2.749   4.298
 6864TIP3   OH220534   6.363   2.935   3.384
 6864TIP3    H120535   6.313   3.020   3.387
 6864TIP3    H220536   6.308   2.880   3.445
 6865TIP3   OH220537   5.793   2.727   4.850
 6865TIP3    H120538   5.809   2.712   4.945
 6865TIP3    H220539   5.722   2.662   4.832
 6866TIP3   OH220540   6.519   2.844   4.869
 6866TIP3    H120541   6.457   2.784   4.825
 6866TIP3    H220542   6.605   2.807   4.841
 6867TIP3   OH220543   6.777   3.342   4.463
 6867TIP3    H120544   6.680   3.352   4.459
 6867TIP3    H220545   6.800   3.409   4.529
 6868TIP3   OH220546   7.183   2.438   3.363
 6868TIP3    H120547   7.122   2.394   3.300
 6868TIP3    H220548   7.181   2.527   3.323
 6869TIP3   OH220549   7.406   3.305   4.439
 6869TIP3    H120550   7.309   3.290   4.432
 6869TIP3    H220551   7.434   3.269   4.352
 6870TIP3   OH220552   6.893   3.255   3.274
 6870TIP3    H120553   6.858   3.190   3.337
 6870TIP3    H220554   6.898   3.205   3.191
 6871TIP3   OH220555   6.882   2.884   4.105
 6871TIP3    H120556   6.789   2.860   4.119
 6871TIP3    H220557   6.915   2.804   4.061
 6872TIP3   OH220558   6.013   3.114   3.864
 6872TIP3    H120559   6.011   3.194   3.809
 6872TIP3    H220560   5.919   3.095   3.873
 6873TIP3   OH220561   5.577   2.415   3.568
 6873TIP3    H120562   5.621   2.500   3.589
 6873TIP3    H220563   5.499   2.419   3.628
 6874TIP3   OH220564   6.144   2.876   3.804
 6874TIP3    H120565   6.111   2.966   3.824
 6874TIP3    H220566   6.109   2.825   3.880
 6875TIP3   OH220567   6.282   3.456   4.329
 6875TIP3    H120568   6.321   3.527   4.273
 6875TIP3    H220569   6.362   3.418   4.369
 6876TIP3   OH220570   5.931   3.350   3.714
 6876TIP3    H120571   5.845   3.362   3.760
 6876TIP3    H220572   5.966   3.442   3.716
 6877TIP3   OH220573   6.665   3.091   4.291
 6877TIP3    H120574   6.655   3.084   4.388
 6877TIP3    H220575   6.744   3.037   4.276
 6878TIP3   OH220576   6.645   2.986   3.172
 6878TIP3    H120577   6.698   2.959   3.251
 6878TIP3    H220578   6.557   2.955   3.199
 6879TIP3   OH220579   6.983   3.457   2.991
 6879TIP3    H120580   7.017   3.533   2.941
 6879TIP3    H220581   6.902   3.498   3.028
 6880TIP3   OH220582   6.000   2.233   4.856
 6880TIP3    H120583   5.903   2.236   4.869
 6880TIP3    H220584   6.028   2.177   4.930
 6881TIP3   OH220585   6.805   2.914   3.385
 6881TIP3    H120586   6.794   2.849   3.458
 6881TIP3    H220587   6.903   2.912   3.375
 6882TIP3   OH220588   5.717   3.316   4.489
 6882TIP3    H120589   5.772   3.243   4.524
 6882TIP3    H220590   5.745   3.389   4.546
 6883TIP3   OH220591   6.007   2.962   3.173
 6883TIP3    H120592   6.021   2.869   3.146
 6883TIP3    H220593   5.987   2.952   3.268
 6884TIP3   OH220594   5.951   2.968   3.445
 6884TIP3    H120595   6.026   2.941   3.500
 6884TIP3    H220596   5.956   3.066   3.453
 6885TIP3   OH220597   5.687   2.660   3.649
 6885TIP3    H120598   5.620   2.705   3.706
 6885TIP3    H220599   5.700   2.728   3.581
 6886TIP3   OH220600   6.840   2.297   4.542
 6886TIP3    H120601   6.922   2.335   4.579
 6886TIP3    H220602   6.828   2.216   4.596
 6887TIP3   OH220603   6.721   2.045   3.709
 6887TIP3    H120604   6.707   2.066   3.615
 6887TIP3    H220605   6.760   2.128   3.744
 6888TIP3   OH220606   6.219   3.164   3.392
 6888TIP3    H120607   6.133   3.188   3.429
 6888TIP3    H220608   6.236   3.241   3.336
 6889TIP3   OH220609   6.405   2.230   3.808
 6889TIP3    H120610   6.469   2.302   3.791
 6889TIP3    H220611   6.412   2.221   3.906
 6890TIP3   OH220612   6.678   2.545   4.613
 6890TIP3    H120613   6.702   2.596   4.693
 6890TIP3    H220614   6.731   2.464   4.624
 6891TIP3   OH220615   6.550   1.950   3.908
 6891TIP3    H120616   6.543   2.027   3.967
 6891TIP3    H220617   6.612   1.984   3.840
 6892TIP3   OH220618   5.965   3.240   3.463
 6892TIP3    H120619   5.935   3.311   3.401
 6892TIP3    H220620   5.950   3.283   3.550
 6893TIP3   OH220621   6.063   1.955   3.699
 6893TIP3    H120622   6.061   2.045   3.737
 6893TIP3    H220623   6.159   1.937   3.706
 6894TIP3   OH220624   7.317   2.448   4.597
 6894TIP3    H120625   7.219   2.446   4.604
 6894TIP3    H220626   7.328   2.401   4.513
 6895TIP3   OH220627   6.968   2.641   3.983
 6895TIP3    H120628   6.892   2.581   3.995
 6895TIP3    H220629   7.039   2.594   4.032
 6896TIP3   OH220630   5.682   2.866   3.453
 6896TIP3    H120631   5.753   2.933   3.462
 6896TIP3    H220632   5.726   2.808   3.386
 6897TIP3   OH220633   5.623   2.145   3.589
 6897TIP3    H120634   5.625   2.242   3.586
 6897TIP3    H220635   5.544   2.125   3.538
 6898TIP3   OH220636   6.939   3.596   3.930
 6898TIP3    H120637   6.894   3.643   3.856
 6898TIP3    H220638   7.032   3.616   3.908
 6899TIP3   OH220639   6.013   1.865   4.458
 6899TIP3    H120640   5.983   1.831   4.372
 6899TIP3    H220641   6.003   1.787   4.516
 6900TIP3   OH220642   5.549   3.081   3.837
 6900TIP3    H120643   5.484   3.111   3.902
 6900TIP3    H220644   5.516   3.125   3.755
 6901TIP3   OH220645   5.710   3.630   4.913
 6901TIP3    H120646   5.797   3.628   4.959
 6901TIP3    H220647   5.688   3.536   4.911
 6902TIP3   OH220648   6.191   3.591   4.949
 6902TIP3    H120649   6.283   3.562   4.962
 6902TIP3    H220650   6.161   3.526   4.883
 6903TIP3   OH220651   6.170   3.164   3.081
 6903TIP3    H120652   6.114   3.093   3.121
 6903TIP3    H220653   6.247   3.111   3.052
 6904TIP3   OH220654   6.836   3.510   4.685
 6904TIP3    H120655   6.810   3.437   4.751
 6904TIP3    H220656   6.932   3.492   4.681
 6905TIP3   OH220657   6.607   3.203   2.998
 6905TIP3    H120658   6.645   3.136   3.059
 6905TIP3    H220659   6.667   3.198   2.921
 6906TIP3   OH220660   5.840   3.034   5.112
 6906TIP3    H120661   5.855   2.938   5.120
 6906TIP3    H220662   5.752   3.036   5.067
 6907TIP3   OH220663   5.818   2.680   3.308
 6907TIP3    H120664   5.874   2.649   3.381
 6907TIP3    H220665   5.884   2.685   3.236
 6908TIP3   OH220666   6.447   3.120   4.885
 6908TIP3    H120667   6.405   3.135   4.798
 6908TIP3    H220668   6.478   3.027   4.877
 6909TIP3   OH220669   6.332   2.883   3.115
 6909TIP3    H120670   6.334   2.894   3.212
 6909TIP3    H220671   6.333   2.785   3.108
 6910TIP3   OH220672   6.943   3.125   4.493
 6910TIP3    H120673   7.019   3.167   4.448
 6910TIP3    H220674   6.873   3.192   4.478
 6911TIP3   OH220675   5.960   2.770   5.096
 6911TIP3    H120676   6.036   2.716   5.071
 6911TIP3    H220677   5.988   2.802   5.184
 6912TIP3   OH220678   6.023   2.588   3.526
 6912TIP3    H120679   5.996   2.546   3.609
 6912TIP3    H220680   6.061   2.513   3.476
 6913TIP3   OH220681   6.294   2.652   4.757
 6913TIP3    H120682   6.216   2.710   4.757
 6913TIP3    H220683   6.345   2.686   4.680
 6914TIP3   OH220684   6.127   2.383   3.367
 6914TIP3    H120685   6.102   2.388   3.273
 6914TIP3    H220686   6.224   2.385   3.360
 6915TIP3   OH220687   6.813   3.057   4.888
 6915TIP3    H120688   6.891   3.024   4.842
 6915TIP3    H220689   6.804   2.992   4.960
 6916TIP3   OH220690   6.947   2.711   3.034
 6916TIP3    H120691   6.926   2.665   2.950
 6916TIP3    H220692   6.912   2.801   3.012
 6917TIP3   OH220693   6.418   2.441   4.881
 6917TIP3    H120694   6.418   2.362   4.823
 6917TIP3    H220695   6.374   2.508   4.824
 6918TIP3   OH220696   6.420   2.228   4.690
 6918TIP3    H120697   6.448   2.268   4.606
 6918TIP3    H220698   6.327   2.205   4.671
 6919TIP3   OH220699   6.444   2.761   4.563
 6919TIP3    H120700   6.530   2.773   4.520
 6919TIP3    H220701   6.388   2.827   4.517
 6920TIP3   OH220702   7.026   2.727   4.941
 6920TIP3    H120703   7.074   2.644   4.954
 6920TIP3    H220704   7.096   2.785   4.906
 6921TIP3   OH220705   7.070   2.982   4.681
 6921TIP3    H120706   7.012   3.035   4.621
 6921TIP3    H220707   7.157   3.002   4.642
 6922TIP3   OH220708   6.296   2.547   5.114
 6922TIP3    H120709   6.228   2.479   5.130
 6922TIP3    H220710   6.329   2.522   5.026
 6923TIP3   OH220711   6.552   1.989   4.759
 6923TIP3    H120712   6.502   2.070   4.736
 6923TIP3    H220713   6.483   1.920   4.748
 6924TIP3   OH220714   6.678   2.492   4.974
 6924TIP3    H120715   6.664   2.477   5.069
 6924TIP3    H220716   6.588   2.468   4.941
 6925TIP3   OH220717   6.917   2.444   4.829
 6925TIP3    H120718   6.842   2.444   4.892
 6925TIP3    H220719   6.991   2.413   4.885
 6926TIP3   OH220720   7.146   2.385   4.977
 6926TIP3    H120721   7.159   2.289   4.994
 6926TIP3    H220722   7.142   2.421   5.068
 6927TIP3   OH220723   6.134   2.328   5.169
 6927TIP3    H120724   6.139   2.236   5.136
 6927TIP3    H220725   6.172   2.317   5.258
 6928TIP3   OH220726   6.644   1.999   5.017
 6928TIP3    H120727   6.711   1.928   5.011
 6928TIP3    H220728   6.605   1.994   4.928
 6929TIP3   OH220729   6.713   2.214   5.175
 6929TIP3    H120730   6.691   2.142   5.111
 6929TIP3    H220731   6.634   2.272   5.168
 6930TIP3   OH220732   5.934   3.443   3.274
 6930TIP3    H120733   6.030   3.434   3.256
 6930TIP3    H220734   5.908   3.494   3.195
 6931TIP3   OH220735   5.413   2.826   3.488
 6931TIP3    H120736   5.508   2.846   3.474
 6931TIP3    H220737   5.407   2.736   3.448
 6932TIP3   OH220738   5.323   3.436   3.913
 6932TIP3    H120739   5.262   3.373   3.868
 6932TIP3    H220740   5.372   3.375   3.973
 6933TIP3   OH220741   5.464   3.281   4.092
 6933TIP3    H120742   5.454   3.211   4.158
 6933TIP3    H220743   5.517   3.345   4.142
 6934TIP3   OH220744   7.197   3.679   3.893
 6934TIP3    H120745   7.218   3.715   3.981
 6934TIP3    H220746   7.248   3.738   3.835
 6935TIP3   OH220747   7.221   3.703   4.174
 6935TIP3    H120748   7.168   3.620   4.166
 6935TIP3    H220749   7.290   3.672   4.235
 6936TIP3   OH220750   7.262   3.385   4.760
 6936TIP3    H120751   7.183   3.385   4.819
 6936TIP3    H220752   7.271   3.479   4.746
 6937TIP3   OH220753   7.085   2.896   3.366
 6937TIP3    H120754   7.151   2.962   3.338
 6937TIP3    H220755   7.127   2.858   3.446
 6938TIP3   OH220756   7.211   2.766   3.572
 6938TIP3    H120757   7.144   2.723   3.629
 6938TIP3    H220758   7.274   2.802   3.637
 6939TIP3   OH220759   7.268   3.160   4.003
 6939TIP3    H120760   7.320   3.091   3.956
 6939TIP3    H220761   7.262   3.230   3.935
 6940TIP3   OH220762   7.085   3.459   4.200
 6940TIP3    H120763   7.006   3.492   4.244
 6940TIP3    H220764   7.046   3.412   4.123
 6941TIP3   OH220765   7.149   2.674   3.215
 6941TIP3    H120766   7.077   2.674   3.148
 6941TIP3    H220767   7.119   2.749   3.270
 6942TIP3   OH220768   7.019   2.347   3.167
 6942TIP3    H120769   6.973   2.379   3.089
 6942TIP3    H220770   6.997   2.251   3.163
 6943TIP3   OH220771   7.024   2.623   3.715
 6943TIP3    H120772   7.031   2.527   3.706
 6943TIP3    H220773   7.009   2.635   3.811
 6944TIP3   OH220774   5.649   2.694   4.464
 6944TIP3    H120775   5.646   2.661   4.372
 6944TIP3    H220776   5.746   2.695   4.480
 6945TIP3   OH220777   7.315   3.049   4.574
 6945TIP3    H120778   7.385   2.980   4.564
 6945TIP3    H220779   7.337   3.111   4.503
 6946TIP3   OH220780   7.498   2.850   4.583
 6946TIP3    H120781   7.423   2.800   4.623
 6946TIP3    H220782   7.570   2.786   4.600
 6947TIP3   OH220783   6.961   2.082   3.155
 6947TIP3    H120784   7.034   2.047   3.210
 6947TIP3    H220785   6.887   2.021   3.174
 6948TIP3   OH220786   7.022   2.339   3.608
 6948TIP3    H120787   7.061   2.250   3.623
 6948TIP3    H220788   7.079   2.371   3.536
 6949TIP3   OH220789   7.180   2.510   4.105
 6949TIP3    H120790   7.265   2.535   4.063
 6949TIP3    H220791   7.195   2.546   4.194
 6950TIP3   OH220792   7.253   2.656   4.335
 6950TIP3    H120793   7.175   2.690   4.384
 6950TIP3    H220794   7.285   2.738   4.291
 6951TIP3   OH220795   5.868   2.380   5.136
 6951TIP3    H120796   5.966   2.375   5.141
 6951TIP3    H220797   5.844   2.294   5.175
 6952TIP3   OH220798   7.704   2.250   4.891
 6952TIP3    H120799   7.763   2.184   4.848
 6952TIP3    H220800   7.673   2.302   4.814
 6953TIP3   OH220801   7.129   2.090   3.647
 6953TIP3    H120802   7.178   2.073   3.731
 6953TIP3    H220803   7.068   2.013   3.646
 6954TIP3   OH220804   5.829   2.074   4.468
 6954TIP3    H120805   5.891   1.999   4.476
 6954TIP3    H220806   5.892   2.148   4.459
 6955TIP3   OH220807   5.630   2.346   4.539
 6955TIP3    H120808   5.680   2.343   4.455
 6955TIP3    H220809   5.658   2.431   4.575
 6956TIP3   OH220810   7.571   2.385   4.695
 6956TIP3    H120811   7.484   2.427   4.712
 6956TIP3    H220812   7.542   2.311   4.638
 6957TIP3   OH220813   7.207   2.020   3.282
 6957TIP3    H120814   7.247   1.950   3.226
 6957TIP3    H220815   7.275   2.090   3.278
 6958TIP3   OH220816   5.616   1.849   4.041
 6958TIP3    H120817   5.523   1.845   4.069
 6958TIP3    H220818   5.611   1.909   3.963
 6959TIP3   OH220819   6.776   3.552   3.547
 6959TIP3    H120820   6.831   3.547   3.466
 6959TIP3    H220821   6.819   3.624   3.597
 6960TIP3   OH220822   5.836   1.929   4.855
 6960TIP3    H120823   5.785   1.927   4.937
 6960TIP3    H220824   5.770   1.968   4.794
 6961TIP3   OH220825   5.876   3.362   4.933
 6961TIP3    H120826   5.784   3.336   4.915
 6961TIP3    H220827   5.885   3.338   5.025
 6962TIP3   OH220828   6.057   3.395   4.481
 6962TIP3    H120829   6.007   3.469   4.441
 6962TIP3    H220830   6.142   3.409   4.434
 6963TIP3   OH220831   7.470   2.147   4.578
 6963TIP3    H120832   7.381   2.136   4.542
 6963TIP3    H220833   7.506   2.055   4.568
 6964TIP3   OH220834   5.728   3.646   4.506
 6964TIP3    H120835   5.641   3.682   4.481
 6964TIP3    H220836   5.741   3.691   4.591
 6965TIP3   OH220837   5.965   3.627   4.363
 6965TIP3    H120838   5.878   3.641   4.405
 6965TIP3    H220839   5.947   3.659   4.272
 6966TIP3   OH220840   6.388   3.651   4.158
 6966TIP3    H120841   6.320   3.668   4.090
 6966TIP3    H220842   6.402   3.742   4.193
 6967TIP3   OH220843   6.659   3.592   4.227
 6967TIP3    H120844   6.572   3.620   4.194
 6967TIP3    H220845   6.718   3.663   4.195
 6968TIP3   OH220846   6.863   3.789   4.124
 6968TIP3    H120847   6.847   3.872   4.074
 6968TIP3    H220848   6.887   3.726   4.053
 6969TIP3   OH220849   5.639   3.441   4.249
 6969TIP3    H120850   5.669   3.414   4.338
 6969TIP3    H220851   5.711   3.399   4.196
 6970TIP3   OH220852   5.834   3.314   4.108
 6970TIP3    H120853   5.851   3.230   4.157
 6970TIP3    H220854   5.925   3.350   4.102
 6971TIP3   OH220855   6.099   3.404   4.112
 6971TIP3    H120856   6.133   3.313   4.101
 6971TIP3    H220857   6.148   3.430   4.193
 6972TIP3   OH220858   6.676   2.063   4.196
 6972TIP3    H120859   6.634   1.991   4.247
 6972TIP3    H220860   6.751   2.018   4.153
 6973TIP3   OH220861   7.197   1.945   4.100
 6973TIP3    H120862   7.234   1.996   4.025
 6973TIP3    H220863   7.102   1.964   4.092
 6974TIP3   OH220864   7.294   2.044   3.864
 6974TIP3    H120865   7.368   1.992   3.827
 6974TIP3    H220866   7.328   2.135   3.849
 6975TIP3   OH220867   5.925   1.772   4.211
 6975TIP3    H120868   5.832   1.739   4.214
 6975TIP3    H220869   5.973   1.686   4.207
 6976TIP3   OH220870   5.715   1.643   3.862
 6976TIP3    H120871   5.744   1.700   3.788
 6976TIP3    H220872   5.687   1.710   3.928
 6977TIP3   OH220873   6.371   1.803   4.094
 6977TIP3    H120874   6.427   1.851   4.030
 6977TIP3    H220875   6.399   1.843   4.177
 6978TIP3   OH220876   6.912   1.952   4.076
 6978TIP3    H120877   6.915   1.912   3.988
 6978TIP3    H220878   6.901   1.873   4.133
 6979TIP3   OH220879   6.946   1.877   3.639
 6979TIP3    H120880   6.860   1.919   3.655
 6979TIP3    H220881   6.932   1.790   3.684
 6980TIP3   OH220882   5.428   3.218   3.639
 6980TIP3    H120883   5.343   3.184   3.606
 6980TIP3    H220884   5.420   3.311   3.613
 6981TIP3   OH220885   5.831   1.800   3.623
 6981TIP3    H120886   5.879   1.737   3.565
 6981TIP3    H220887   5.905   1.854   3.658
 6982TIP3   OH220888   6.340   1.979   3.722
 6982TIP3    H120889   6.401   1.932   3.781
 6982TIP3    H220890   6.362   2.072   3.747
 6983TIP3   OH220891   6.201   3.398   3.221
 6983TIP3    H120892   6.289   3.422   3.186
 6983TIP3    H220893   6.180   3.323   3.161
 6984TIP3   OH220894   6.926   3.523   3.314
 6984TIP3    H120895   6.917   3.425   3.305
 6984TIP3    H220896   6.875   3.553   3.236
 6985TIP3   OH220897   6.133   2.053   5.102
 6985TIP3    H120898   6.097   1.983   5.159
 6985TIP3    H220899   6.227   2.052   5.131
 6986TIP3   OH220900   6.383   2.050   5.222
 6986TIP3    H120901   6.468   2.025   5.182
 6986TIP3    H220902   6.371   1.979   5.288
 6987TIP3   OH220903   5.504   3.238   3.275
 6987TIP3    H120904   5.506   3.259   3.370
 6987TIP3    H220905   5.592   3.195   3.261
 6988TIP3   OH220906   7.210   2.114   5.009
 6988TIP3    H120907   7.227   2.083   5.100
 6988TIP3    H220908   7.299   2.108   4.968
 6989TIP3   OH220909   7.709   2.930   4.013
 6989TIP3    H120910   7.732   2.859   4.077
 6989TIP3    H220911   7.788   2.985   4.018
 6990TIP3   OH220912   7.679   3.343   3.733
 6990TIP3    H120913   7.671   3.245   3.735
 6990TIP3    H220914   7.773   3.354   3.754
 6991TIP3   OH220915   7.389   2.546   3.519
 6991TIP3    H120916   7.338   2.626   3.538
 6991TIP3    H220917   7.319   2.490   3.480
 6992TIP3   OH220918   7.449   2.832   3.701
 6992TIP3    H120919   7.496   2.752   3.736
 6992TIP3    H220920   7.503   2.854   3.625
 6993TIP3   OH220921   8.313   3.748   3.326
 6993TIP3    H120922   8.410   3.737   3.334
 6993TIP3    H220923   8.292   3.777   3.416
 6994TIP3   OH220924   8.213   3.259   3.698
 6994TIP3    H120925   8.230   3.220   3.612
 6994TIP3    H220926   8.295   3.311   3.715
 6995TIP3   OH220927   7.933   2.426   3.706
 6995TIP3    H120928   7.952   2.490   3.635
 6995TIP3    H220929   7.902   2.349   3.655
 6996TIP3   OH220930   7.596   2.625   3.799
 6996TIP3    H120931   7.676   2.605   3.851
 6996TIP3    H220932   7.613   2.570   3.720
 6997TIP3   OH220933   8.021   2.826   3.593
 6997TIP3    H120934   8.112   2.793   3.607
 6997TIP3    H220935   7.977   2.743   3.563
 6998TIP3   OH220936   7.961   2.416   4.139
 6998TIP3    H120937   7.902   2.446   4.067
 6998TIP3    H220938   7.905   2.434   4.217
 6999TIP3   OH220939   8.068   3.181   3.931
 6999TIP3    H120940   8.003   3.245   3.968
 6999TIP3    H220941   8.112   3.236   3.864
 7000TIP3   OH220942   7.822   2.526   3.926
 7000TIP3    H120943   7.889   2.595   3.946
 7000TIP3    H220944   7.865   2.484   3.847
 7001TIP3   OH220945   7.885   3.376   4.012
 7001TIP3    H120946   7.867   3.468   3.984
 7001TIP3    H220947   7.808   3.361   4.071
 7002TIP3   OH220948   7.286   3.069   3.257
 7002TIP3    H120949   7.237   3.099   3.178
 7002TIP3    H220950   7.317   3.154   3.294
 7003TIP3   OH220951   7.819   2.973   3.480
 7003TIP3    H120952   7.776   2.912   3.416
 7003TIP3    H220953   7.891   2.917   3.516
 7004TIP3   OH220954   7.959   3.386   3.622
 7004TIP3    H120955   7.936   3.310   3.568
 7004TIP3    H220956   8.043   3.358   3.663
 7005TIP3   OH220957   7.957   2.942   3.840
 7005TIP3    H120958   7.987   2.915   3.751
 7005TIP3    H220959   8.001   3.028   3.855
 7006TIP3   OH220960   8.088   3.463   4.191
 7006TIP3    H120961   8.051   3.551   4.212
 7006TIP3    H220962   8.021   3.429   4.129
 7007TIP3   OH220963   7.846   3.064   4.264
 7007TIP3    H120964   7.849   3.149   4.312
 7007TIP3    H220965   7.754   3.035   4.283
 7008TIP3   OH220966   8.136   3.555   3.178
 7008TIP3    H120967   8.203   3.605   3.229
 7008TIP3    H220968   8.108   3.624   3.115
 7009TIP3   OH220969   7.889   3.667   4.249
 7009TIP3    H120970   7.858   3.666   4.156
 7009TIP3    H220971   7.808   3.643   4.298
 7010TIP3   OH220972   7.690   2.814   3.289
 7010TIP3    H120973   7.618   2.851   3.235
 7010TIP3    H220974   7.657   2.725   3.309
 7011TIP3   OH220975   7.472   3.198   4.199
 7011TIP3    H120976   7.404   3.177   4.132
 7011TIP3    H220977   7.508   3.110   4.222
 7012TIP3   OH220978   7.323   3.390   3.830
 7012TIP3    H120979   7.419   3.390   3.826
 7012TIP3    H220980   7.305   3.470   3.882
 7013TIP3   OH220981   8.055   3.745   2.981
 7013TIP3    H120982   8.021   3.742   2.890
 7013TIP3    H220983   8.024   3.834   3.009
 7014TIP3   OH220984   7.499   3.602   3.355
 7014TIP3    H120985   7.544   3.596   3.442
 7014TIP3    H220986   7.438   3.526   3.361
 7015TIP3   OH220987   8.323   3.715   2.904
 7015TIP3    H120988   8.231   3.727   2.934
 7015TIP3    H220989   8.342   3.625   2.932
 7016TIP3   OH220990   7.675   3.383   4.188
 7016TIP3    H120991   7.727   3.361   4.268
 7016TIP3    H220992   7.602   3.317   4.193
 7017TIP3   OH220993   8.057   2.189   3.998
 7017TIP3    H120994   7.970   2.169   3.958
 7017TIP3    H220995   8.043   2.279   4.031
 7018TIP3   OH220996   8.000   2.725   3.994
 7018TIP3    H120997   7.947   2.742   4.074
 7018TIP3    H220998   7.980   2.804   3.940
 7019TIP3   OH220999   7.889   2.607   3.497
 7019TIP3    H121000   7.802   2.572   3.524
 7019TIP3    H221001   7.902   2.562   3.411
 7020TIP3   OH221002   7.813   2.745   4.201
 7020TIP3    H121003   7.872   2.795   4.260
 7020TIP3    H221004   7.804   2.660   4.249
 7021TIP3   OH221005   7.860   2.181   2.896
 7021TIP3    H121006   7.848   2.200   2.990
 7021TIP3    H221007   7.803   2.248   2.856
 7022TIP3   OH221008   7.419   2.267   3.778
 7022TIP3    H121009   7.492   2.300   3.835
 7022TIP3    H221010   7.465   2.232   3.701
 7023TIP3   OH221011   7.385   2.248   3.299
 7023TIP3    H121012   7.431   2.286   3.221
 7023TIP3    H221013   7.324   2.321   3.318
 7024TIP3   OH221014   7.653   2.486   3.567
 7024TIP3    H121015   7.557   2.489   3.542
 7024TIP3    H221016   7.676   2.392   3.554
 7025TIP3   OH221017   7.929   2.482   3.252
 7025TIP3    H121018   8.011   2.484   3.202
 7025TIP3    H221019   7.863   2.498   3.181
 7026TIP3   OH221020   7.766   2.513   3.041
 7026TIP3    H121021   7.696   2.464   2.994
 7026TIP3    H221022   7.820   2.544   2.966
 7027TIP3   OH221023   7.835   3.304   4.407
 7027TIP3    H121024   7.917   3.332   4.453
 7027TIP3    H221025   7.774   3.295   4.483
 7028TIP3   OH221026   7.812   2.240   3.541
 7028TIP3    H121027   7.778   2.169   3.599
 7028TIP3    H221028   7.863   2.189   3.478
 7029TIP3   OH221029   8.270   2.650   4.000
 7029TIP3    H121030   8.178   2.676   3.978
 7029TIP3    H221031   8.316   2.736   4.004
 7030TIP3   OH221032   7.978   3.079   3.046
 7030TIP3    H121033   7.929   2.995   3.035
 7030TIP3    H221034   7.988   3.082   3.144
 7031TIP3   OH221035   8.381   3.336   4.075
 7031TIP3    H121036   8.406   3.309   4.163
 7031TIP3    H221037   8.348   3.426   4.090
 7032TIP3   OH221038   7.713   3.072   3.722
 7032TIP3    H121039   7.744   3.032   3.638
 7032TIP3    H221040   7.743   3.007   3.788
 7033TIP3   OH221041   8.106   3.222   2.846
 7033TIP3    H121042   8.194   3.240   2.885
 7033TIP3    H221043   8.069   3.157   2.910
 7034TIP3   OH221044   7.587   2.986   4.338
 7034TIP3    H121045   7.604   2.968   4.432
 7034TIP3    H221046   7.520   2.918   4.317
 7035TIP3   OH221047   8.316   3.095   4.354
 7035TIP3    H121048   8.260   3.050   4.289
 7035TIP3    H221049   8.402   3.053   4.339
 7036TIP3   OH221050   7.807   3.363   3.281
 7036TIP3    H121051   7.780   3.459   3.281
 7036TIP3    H221052   7.735   3.328   3.336
 7037TIP3   OH221053   7.372   2.672   3.055
 7037TIP3    H121054   7.415   2.756   3.079
 7037TIP3    H221055   7.294   2.673   3.115
 7038TIP3   OH221056   7.965   3.139   3.317
 7038TIP3    H121057   7.905   3.215   3.320
 7038TIP3    H221058   7.919   3.075   3.376
 7039TIP3   OH221059   8.075   3.717   3.822
 7039TIP3    H121060   8.109   3.785   3.761
 7039TIP3    H221061   8.142   3.729   3.893
 7040TIP3   OH221062   7.742   3.605   3.204
 7040TIP3    H121063   7.649   3.617   3.235
 7040TIP3    H221064   7.768   3.700   3.196
 7041TIP3   OH221065   7.793   2.494   4.347
 7041TIP3    H121066   7.696   2.491   4.356
 7041TIP3    H221067   7.821   2.431   4.415
 7042TIP3   OH221068   7.518   3.571   3.972
 7042TIP3    H121069   7.570   3.501   4.015
 7042TIP3    H221070   7.543   3.649   4.023
 7043TIP3   OH221071   7.813   3.208   2.668
 7043TIP3    H121072   7.797   3.133   2.608
 7043TIP3    H221073   7.810   3.164   2.753
 7044TIP3   OH221074   7.483   2.918   3.137
 7044TIP3    H121075   7.414   2.960   3.194
 7044TIP3    H221076   7.496   2.988   3.071
 7045TIP3   OH221077   7.937   3.455   2.938
 7045TIP3    H121078   7.936   3.540   2.896
 7045TIP3    H221079   7.980   3.400   2.872
 7046TIP3   OH221080   7.862   2.217   3.176
 7046TIP3    H121081   7.852   2.299   3.228
 7046TIP3    H221082   7.950   2.232   3.138
 7047TIP3   OH221083   7.478   3.125   2.941
 7047TIP3    H121084   7.493   3.215   2.908
 7047TIP3    H221085   7.532   3.072   2.878
 7048TIP3   OH221086   7.423   2.402   3.075
 7048TIP3    H121087   7.418   2.499   3.072
 7048TIP3    H221088   7.344   2.376   3.026
 7049TIP3   OH221089   7.790   2.124   3.946
 7049TIP3    H121090   7.777   2.085   3.857
 7049TIP3    H221091   7.791   2.045   4.004
 7050TIP3   OH221092   7.342   3.336   3.325
 7050TIP3    H121093   7.284   3.368   3.395
 7050TIP3    H221094   7.305   3.381   3.245
 7051TIP3   OH221095   7.508   3.854   4.417
 7051TIP3    H121096   7.594   3.809   4.410
 7051TIP3    H221097   7.450   3.775   4.409
 7052TIP3   OH221098   7.976   3.867   4.423
 7052TIP3    H121099   8.067   3.844   4.445
 7052TIP3    H221100   7.954   3.796   4.360
 7053TIP3   OH221101   7.962   3.417   2.579
 7053TIP3    H121102   7.904   3.345   2.612
 7053TIP3    H221103   8.049   3.374   2.586
 7054TIP3   OH221104   7.635   3.289   4.599
 7054TIP3    H121105   7.650   3.193   4.610
 7054TIP3    H221106   7.548   3.291   4.554
 7055TIP3   OH221107   7.626   2.949   2.793
 7055TIP3    H121108   7.673   2.902   2.865
 7055TIP3    H221109   7.691   2.941   2.721
 7056TIP3   OH221110   8.261   3.375   4.375
 7056TIP3    H121111   8.200   3.396   4.300
 7056TIP3    H221112   8.272   3.278   4.367
 7057TIP3   OH221113   8.106   3.119   2.588
 7057TIP3    H121114   8.113   3.161   2.677
 7057TIP3    H221115   8.037   3.053   2.605
 7058TIP3   OH221116   7.758   3.029   4.581
 7058TIP3    H121117   7.830   2.970   4.557
 7058TIP3    H221118   7.786   3.059   4.670
 7059TIP3   OH221119   7.824   2.844   3.009
 7059TIP3    H121120   7.792   2.803   3.091
 7059TIP3    H221121   7.866   2.768   2.963
 7060TIP3   OH221122   8.050   2.888   4.261
 7060TIP3    H121123   7.983   2.961   4.263
 7060TIP3    H221124   8.114   2.926   4.197
 7061TIP3   OH221125   7.928   2.634   2.852
 7061TIP3    H121126   7.892   2.640   2.762
 7061TIP3    H221127   8.021   2.609   2.830
 7062TIP3   OH221128   8.222   2.702   4.366
 7062TIP3    H121129   8.222   2.615   4.320
 7062TIP3    H221130   8.156   2.752   4.314
 7063TIP3   OH221131   8.225   2.475   4.200
 7063TIP3    H121132   8.234   2.525   4.116
 7063TIP3    H221133   8.137   2.433   4.186
 7064TIP3   OH221134   8.216   3.013   4.092
 7064TIP3    H121135   8.287   3.002   4.027
 7064TIP3    H221136   8.160   3.079   4.045
 7065TIP3   OH221137   8.096   2.806   4.601
 7065TIP3    H121138   8.029   2.737   4.615
 7065TIP3    H221139   8.128   2.785   4.511
 7066TIP3   OH221140   7.931   2.588   4.654
 7066TIP3    H121141   7.934   2.498   4.618
 7066TIP3    H221142   7.967   2.574   4.744
 7067TIP3   OH221143   7.717   3.691   2.750
 7067TIP3    H121144   7.815   3.690   2.748
 7067TIP3    H221145   7.699   3.750   2.675
 7068TIP3   OH221146   7.208   3.082   2.968
 7068TIP3    H121147   7.305   3.096   2.963
 7068TIP3    H221148   7.200   2.992   2.930
 7069TIP3   OH221149   7.132   3.692   3.389
 7069TIP3    H121150   7.061   3.634   3.352
 7069TIP3    H221151   7.172   3.631   3.455
 7070TIP3   OH221152   7.264   3.537   3.576
 7070TIP3    H121153   7.245   3.470   3.644
 7070TIP3    H221154   7.314   3.602   3.629
 7071TIP3   OH221155   7.444   2.953   3.950
 7071TIP3    H121156   7.441   2.917   3.859
 7071TIP3    H221157   7.541   2.952   3.966
 7072TIP3   OH221158   7.664   2.639   4.628
 7072TIP3    H121159   7.762   2.631   4.627
 7072TIP3    H221160   7.640   2.551   4.664
 7073TIP3   OH221161   7.617   2.336   3.959
 7073TIP3    H121162   7.675   2.257   3.963
 7073TIP3    H221163   7.685   2.406   3.953
 7074TIP3   OH221164   7.424   2.605   4.024
 7074TIP3    H121165   7.475   2.596   3.941
 7074TIP3    H221166   7.462   2.685   4.061
 7075TIP3   OH221167   7.411   2.104   3.526
 7075TIP3    H121168   7.319   2.101   3.555
 7075TIP3    H221169   7.406   2.164   3.449
 7076TIP3   OH221170   7.630   2.197   4.347
 7076TIP3    H121171   7.576   2.187   4.426
 7076TIP3    H221172   7.564   2.228   4.282
 7077TIP3   OH221173   7.665   3.624   4.422
 7077TIP3    H121174   7.579   3.581   4.407
 7077TIP3    H221175   7.692   3.586   4.507
 7078TIP3   OH221176   7.852   3.646   3.965
 7078TIP3    H121177   7.806   3.723   3.925
 7078TIP3    H221178   7.940   3.660   3.924
 7079TIP3   OH221179   8.427   4.129   3.919
 7079TIP3    H121180   8.438   4.036   3.891
 7079TIP3    H221181   8.470   4.124   4.006
 7080TIP3   OH221182   7.524   3.903   3.992
 7080TIP3    H121183   7.434   3.932   3.967
 7080TIP3    H221184   7.539   3.957   4.071
 7081TIP3   OH221185   7.756   3.876   3.847
 7081TIP3    H121186   7.669   3.890   3.891
 7081TIP3    H221187   7.740   3.912   3.758
 7082TIP3   OH221188   8.155   3.910   3.643
 7082TIP3    H121189   8.085   3.934   3.581
 7082TIP3    H221190   8.172   3.997   3.688
 7083TIP3   OH221191   8.413   3.826   3.617
 7083TIP3    H121192   8.321   3.848   3.641
 7083TIP3    H221193   8.463   3.893   3.670
 7084TIP3   OH221194   7.440   3.698   3.731
 7084TIP3    H121195   7.462   3.669   3.822
 7084TIP3    H221196   7.512   3.654   3.681
 7085TIP3   OH221197   7.635   3.570   3.590
 7085TIP3    H121198   7.647   3.487   3.642
 7085TIP3    H221199   7.725   3.607   3.593
 7086TIP3   OH221200   7.900   3.660   3.602
 7086TIP3    H121201   7.930   3.567   3.596
 7086TIP3    H221202   7.948   3.688   3.682
 7087TIP3   OH221203   7.721   2.031   3.691
 7087TIP3    H121204   7.630   1.995   3.699
 7087TIP3    H221205   7.771   1.946   3.686
 7088TIP3   OH221206   7.510   1.901   3.339
 7088TIP3    H121207   7.538   1.962   3.268
 7088TIP3    H221208   7.484   1.963   3.410
 7089TIP3   OH221209   7.228   3.472   3.121
 7089TIP3    H121210   7.141   3.441   3.089
 7089TIP3    H221211   7.218   3.567   3.102
 7090TIP3   OH221212   7.624   2.060   3.113
 7090TIP3    H121213   7.666   2.000   3.049
 7090TIP3    H221214   7.699   2.113   3.144
 7091TIP3   OH221215   7.991   3.653   2.724
 7091TIP3    H121216   8.083   3.662   2.690
 7091TIP3    H221217   7.962   3.583   2.662
 7092TIP3   OH221218   7.921   2.312   4.584
 7092TIP3    H121219   7.887   2.240   4.640
 7092TIP3    H221220   8.015   2.313   4.613
 7093TIP3   OH221221   8.161   2.310   4.717
 7093TIP3    H121222   8.239   2.272   4.672
 7093TIP3    H221223   8.145   2.240   4.784
 7094TIP3   OH221224   7.301   3.498   2.761
 7094TIP3    H121225   7.297   3.522   2.855
 7094TIP3    H221226   7.389   3.454   2.755
 7095TIP3   OH221227   0.868   3.823   4.952
 7095TIP3    H121228   0.839   3.916   4.938
 7095TIP3    H221229   0.788   3.775   4.925
 7096TIP3   OH221230   0.842   3.827   5.340
 7096TIP3    H121231   0.880   3.810   5.429
 7096TIP3    H221232   0.810   3.738   5.317
 7097TIP3   OH221233   0.190   3.706   5.667
 7097TIP3    H121234   0.173   3.646   5.742
 7097TIP3    H221235   0.250   3.771   5.706
 7098TIP3   OH221236   1.110   4.124   5.029
 7098TIP3    H121237   1.098   4.053   5.095
 7098TIP3    H221238   1.142   4.197   5.085
 7099TIP3   OH221239   0.142   4.111   5.361
 7099TIP3    H121240   0.124   4.017   5.380
 7099TIP3    H221241   0.227   4.121   5.405
 7100TIP3   OH221242  -0.088   3.616   5.342
 7100TIP3    H121243  -0.052   3.568   5.419
 7100TIP3    H221244  -0.028   3.691   5.336
 7101TIP3   OH221245   0.762   4.588   5.044
 7101TIP3    H121246   0.801   4.520   4.985
 7101TIP3    H221247   0.762   4.541   5.128
 7102TIP3   OH221248   0.666   4.052   5.388
 7102TIP3    H121249   0.706   3.970   5.352
 7102TIP3    H221250   0.749   4.099   5.411
 7103TIP3   OH221251   1.681   3.373   5.389
 7103TIP3    H121252   1.702   3.460   5.429
 7103TIP3    H221253   1.698   3.391   5.295
 7104TIP3   OH221254   1.079   3.556   5.417
 7104TIP3    H121255   1.125   3.473   5.440
 7104TIP3    H221256   1.045   3.534   5.328
 7105TIP3   OH221257   0.419   3.212   5.383
 7105TIP3    H121258   0.399   3.285   5.319
 7105TIP3    H221259   0.371   3.138   5.340
 7106TIP3   OH221260   1.110   3.305   5.004
 7106TIP3    H121261   1.180   3.290   5.071
 7106TIP3    H221262   1.164   3.339   4.931
 7107TIP3   OH221263   0.051   3.416   5.493
 7107TIP3    H121264   0.131   3.405   5.548
 7107TIP3    H221265   0.079   3.371   5.411
 7108TIP3   OH221266   0.493   3.610   5.271
 7108TIP3    H121267   0.585   3.585   5.291
 7108TIP3    H221268   0.453   3.524   5.247
 7109TIP3   OH221269   1.745   3.595   5.551
 7109TIP3    H121270   1.676   3.661   5.533
 7109TIP3    H221271   1.759   3.611   5.646
 7110TIP3   OH221272   0.412   3.194   5.821
 7110TIP3    H121273   0.356   3.236   5.753
 7110TIP3    H221274   0.358   3.212   5.902
 7111TIP3   OH221275   0.756   4.049   4.823
 7111TIP3    H121276   0.712   4.028   4.739
 7111TIP3    H221277   0.707   4.129   4.852
 7112TIP3   OH221278   0.517   3.976   5.614
 7112TIP3    H121279   0.460   4.042   5.656
 7112TIP3    H221280   0.561   4.026   5.542
 7113TIP3   OH221281   1.315   3.309   5.183
 7113TIP3    H121282   1.305   3.263   5.267
 7113TIP3    H221283   1.366   3.388   5.210
 7114TIP3   OH221284   0.289   3.309   5.602
 7114TIP3    H121285   0.347   3.384   5.628
 7114TIP3    H221286   0.341   3.272   5.528
 7115TIP3   OH221287   0.330   4.157   5.735
 7115TIP3    H121288   0.271   4.207   5.676
 7115TIP3    H221289   0.264   4.111   5.789
 7116TIP3   OH221290   1.176   4.379   5.187
 7116TIP3    H121291   1.087   4.363   5.225
 7116TIP3    H221292   1.164   4.465   5.144
 7117TIP3   OH221293   1.471   3.269   5.551
 7117TIP3    H121294   1.383   3.298   5.520
 7117TIP3    H221295   1.530   3.303   5.481
 7118TIP3   OH221296   0.765   2.913   5.529
 7118TIP3    H121297   0.752   2.818   5.546
 7118TIP3    H221298   0.688   2.950   5.577
 7119TIP3   OH221299   0.874   4.419   4.854
 7119TIP3    H121300   0.924   4.335   4.842
 7119TIP3    H221301   0.938   4.482   4.816
 7120TIP3   OH221302   1.022   4.202   4.778
 7120TIP3    H121303   0.979   4.124   4.743
 7120TIP3    H221304   1.060   4.167   4.862
 7121TIP3   OH221305   1.404   4.273   5.528
 7121TIP3    H121306   1.398   4.198   5.468
 7121TIP3    H221307   1.392   4.349   5.468
 7122TIP3   OH221308   0.693   3.675   4.788
 7122TIP3    H121309   0.615   3.729   4.765
 7122TIP3    H221310   0.742   3.672   4.704
 7123TIP3   OH221311   0.654   3.464   4.501
 7123TIP3    H121312   0.720   3.515   4.550
 7123TIP3    H221313   0.712   3.400   4.454
 7124TIP3   OH221314   1.644   3.917   5.358
 7124TIP3    H121315   1.578   3.883   5.424
 7124TIP3    H221316   1.587   3.959   5.292
 7125TIP3   OH221317   1.046   3.761   4.756
 7125TIP3    H121318   0.990   3.783   4.834
 7125TIP3    H221319   1.129   3.735   4.801
 7126TIP3   OH221320   0.282   3.753   5.174
 7126TIP3    H121321   0.240   3.693   5.110
 7126TIP3    H221322   0.360   3.701   5.203
 7127TIP3   OH221323   0.427   4.187   5.316
 7127TIP3    H121324   0.393   4.131   5.245
 7127TIP3    H221325   0.513   4.143   5.336
 7128TIP3   OH221326   0.456   3.720   5.527
 7128TIP3    H121327   0.469   3.709   5.431
 7128TIP3    H221328   0.474   3.815   5.542
 7129TIP3   OH221329   0.934   4.368   5.308
 7129TIP3    H121330   0.930   4.441   5.371
 7129TIP3    H221331   0.923   4.289   5.366
 7130TIP3   OH221332   0.545   4.295   5.851
 7130TIP3    H121333   0.488   4.349   5.909
 7130TIP3    H221334   0.479   4.235   5.811
 7131TIP3   OH221335   0.881   3.621   4.586
 7131TIP3    H121336   0.942   3.680   4.636
 7131TIP3    H221337   0.908   3.641   4.493
 7132TIP3   OH221338   0.293   3.840   5.960
 7132TIP3    H121339   0.298   3.924   6.012
 7132TIP3    H221340   0.198   3.838   5.940
 7133TIP3   OH221341   0.627   4.297   4.861
 7133TIP3    H121342   0.711   4.345   4.870
 7133TIP3    H221343   0.570   4.361   4.818
 7134TIP3   OH221344   0.323   4.465   5.943
 7134TIP3    H121345   0.308   4.465   5.846
 7134TIP3    H221346   0.250   4.410   5.975
 7135TIP3   OH221347   1.401   2.858   4.634
 7135TIP3    H121348   1.319   2.877   4.685
 7135TIP3    H221349   1.410   2.939   4.581
 7136TIP3   OH221350   0.153   3.592   4.978
 7136TIP3    H121351   0.086   3.628   4.916
 7136TIP3    H221352   0.115   3.507   5.002
 7137TIP3   OH221353   1.200   4.224   4.185
 7137TIP3    H121354   1.209   4.321   4.169
 7137TIP3    H221355   1.292   4.194   4.172
 7138TIP3   OH221356   1.645   4.632   5.573
 7138TIP3    H121357   1.645   4.535   5.587
 7138TIP3    H221358   1.561   4.655   5.619
 7139TIP3   OH221359   0.744   4.418   5.708
 7139TIP3    H121360   0.743   4.509   5.745
 7139TIP3    H221361   0.674   4.374   5.762
 7140TIP3   OH221362   0.509   4.541   4.665
 7140TIP3    H121363   0.463   4.523   4.580
 7140TIP3    H221364   0.476   4.630   4.689
 7141TIP3   OH221365   0.709   4.444   4.303
 7141TIP3    H121366   0.768   4.374   4.267
 7141TIP3    H221367   0.745   4.454   4.394
 7142TIP3   OH221368   0.760   4.493   4.573
 7142TIP3    H121369   0.672   4.500   4.616
 7142TIP3    H221370   0.812   4.452   4.645
 7143TIP3   OH221371   1.527   3.771   5.878
 7143TIP3    H121372   1.491   3.793   5.789
 7143TIP3    H221373   1.546   3.676   5.864
 7144TIP3   OH221374   0.528   2.988   5.665
 7144TIP3    H121375   0.440   2.957   5.636
 7144TIP3    H221376   0.502   3.069   5.712
 7145TIP3   OH221377   1.062   3.107   5.859
 7145TIP3    H121378   1.131   3.077   5.922
 7145TIP3    H221379   0.979   3.087   5.906
 7146TIP3   OH221380   1.299   3.530   5.771
 7146TIP3    H121381   1.248   3.540   5.854
 7146TIP3    H221382   1.293   3.617   5.729
 7147TIP3   OH221383   0.960   3.665   4.332
 7147TIP3    H121384   0.925   3.639   4.245
 7147TIP3    H221385   1.045   3.705   4.306
 7148TIP3   OH221386   0.670   3.040   4.635
 7148TIP3    H121387   0.638   3.035   4.728
 7148TIP3    H221388   0.633   2.957   4.600
 7149TIP3   OH221389   0.459   3.505   5.685
 7149TIP3    H121390   0.403   3.529   5.762
 7149TIP3    H221391   0.452   3.586   5.629
 7150TIP3   OH221392   0.340   3.390   5.194
 7150TIP3    H121393   0.246   3.367   5.209
 7150TIP3    H221394   0.354   3.350   5.106
 7151TIP3   OH221395   0.832   3.475   4.923
 7151TIP3    H121396   0.782   3.547   4.879
 7151TIP3    H221397   0.888   3.442   4.850
 7152TIP3   OH221398   1.009   3.756   6.012
 7152TIP3    H121399   0.987   3.682   6.072
 7152TIP3    H221400   1.105   3.763   6.027
 7153TIP3   OH221401   0.985   3.501   5.163
 7153TIP3    H121402   0.924   3.531   5.092
 7153TIP3    H221403   1.022   3.423   5.117
 7154TIP3   OH221404   0.286   3.527   5.897
 7154TIP3    H121405   0.295   3.600   5.960
 7154TIP3    H221406   0.276   3.450   5.956
 7155TIP3   OH221407   0.327   3.010   4.597
 7155TIP3    H121408   0.317   3.012   4.695
 7155TIP3    H221409   0.248   3.061   4.570
 7156TIP3   OH221410  -0.113   3.086   5.464
 7156TIP3    H121411  -0.031   3.087   5.517
 7156TIP3    H221412  -0.098   3.013   5.401
 7157TIP3   OH221413  -0.135   3.088   5.022
 7157TIP3    H121414  -0.108   3.096   4.928
 7157TIP3    H221415  -0.142   3.181   5.046
 7158TIP3   OH221416   0.953   3.747   5.574
 7158TIP3    H121417   1.012   3.688   5.521
 7158TIP3    H221418   0.953   3.699   5.659
 7159TIP3   OH221419   0.674   3.216   5.255
 7159TIP3    H121420   0.594   3.212   5.310
 7159TIP3    H221421   0.745   3.212   5.321
 7160TIP3   OH221422   0.102   3.258   5.260
 7160TIP3    H121423   0.012   3.223   5.268
 7160TIP3    H221424   0.153   3.175   5.245
 7161TIP3   OH221425   0.368   3.265   4.953
 7161TIP3    H121426   0.464   3.278   4.936
 7161TIP3    H221427   0.326   3.287   4.867
 7162TIP3   OH221428   1.162   3.287   5.458
 7162TIP3    H121429   1.130   3.303   5.549
 7162TIP3    H221430   1.092   3.229   5.424
 7163TIP3   OH221431   0.216   3.305   4.726
 7163TIP3    H121432   0.153   3.256   4.670
 7163TIP3    H221433   0.273   3.344   4.657
 7164TIP3   OH221434   1.340   4.970   5.661
 7164TIP3    H121435   1.342   5.009   5.573
 7164TIP3    H221436   1.387   5.034   5.716
 7165TIP3   OH221437   0.287   4.078   6.119
 7165TIP3    H121438   0.364   4.110   6.169
 7165TIP3    H221439   0.216   4.129   6.161
 7166TIP3   OH221440   0.752   3.544   5.349
 7166TIP3    H121441   0.827   3.505   5.302
 7166TIP3    H221442   0.761   3.505   5.438
 7167TIP3   OH221443   0.269   3.033   5.237
 7167TIP3    H121444   0.233   2.955   5.284
 7167TIP3    H221445   0.325   2.991   5.170
 7168TIP3   OH221446   0.728   3.439   5.647
 7168TIP3    H121447   0.639   3.478   5.658
 7168TIP3    H221448   0.786   3.503   5.694
 7169TIP3   OH221449   0.462   3.831   4.733
 7169TIP3    H121450   0.392   3.763   4.724
 7169TIP3    H221451   0.446   3.862   4.825
 7170TIP3   OH221452   0.922   3.140   4.603
 7170TIP3    H121453   0.826   3.121   4.613
 7170TIP3    H221454   0.930   3.234   4.628
 7171TIP3   OH221455   0.846   4.144   5.734
 7171TIP3    H121456   0.906   4.127   5.808
 7171TIP3    H221457   0.825   4.238   5.744
 7172TIP3   OH221458   0.991   3.391   4.706
 7172TIP3    H121459   1.088   3.394   4.721
 7172TIP3    H221460   0.974   3.471   4.653
 7173TIP3   OH221461   0.159   3.842   5.415
 7173TIP3    H121462   0.211   3.797   5.346
 7173TIP3    H221463   0.170   3.785   5.494
 7174TIP3   OH221464   0.610   3.979   4.559
 7174TIP3    H121465   0.562   4.065   4.564
 7174TIP3    H221466   0.556   3.923   4.619
 7175TIP3   OH221467   0.766   3.886   6.051
 7175TIP3    H121468   0.703   3.831   6.001
 7175TIP3    H221469   0.851   3.851   6.018
 7176TIP3   OH221470   1.018   4.428   5.621
 7176TIP3    H121471   0.923   4.415   5.638
 7176TIP3    H221472   1.046   4.469   5.705
 7177TIP3   OH221473   1.434   3.483   4.539
 7177TIP3    H121474   1.372   3.440   4.476
 7177TIP3    H221475   1.432   3.573   4.500
 7178TIP3   OH221476   1.658   4.354   5.618
 7178TIP3    H121477   1.564   4.326   5.624
 7178TIP3    H221478   1.682   4.310   5.533
 7179TIP3   OH221479   1.136   4.299   4.450
 7179TIP3    H121480   1.109   4.229   4.511
 7179TIP3    H221481   1.148   4.252   4.366
 7180TIP3   OH221482   1.101   3.942   5.249
 7180TIP3    H121483   1.015   3.902   5.273
 7180TIP3    H221484   1.157   3.864   5.237
 7181TIP3   OH221485   0.263   4.155   5.033
 7181TIP3    H121486   0.253   4.235   4.979
 7181TIP3    H221487   0.180   4.150   5.082
 7182TIP3   OH221488  -0.171   3.464   4.753
 7182TIP3    H121489  -0.114   3.542   4.770
 7182TIP3    H221490  -0.258   3.500   4.772
 7183TIP3   OH221491   0.395   3.918   4.977
 7183TIP3    H121492   0.359   4.006   4.998
 7183TIP3    H221493   0.363   3.866   5.054
 7184TIP3   OH221494   0.537   4.502   5.508
 7184TIP3    H121495   0.585   4.570   5.455
 7184TIP3    H221496   0.611   4.459   5.553
 7185TIP3   OH221497   0.173   4.402   4.892
 7185TIP3    H121498   0.100   4.417   4.952
 7185TIP3    H221499   0.214   4.492   4.891
 7186TIP3   OH221500   0.919   4.138   5.466
 7186TIP3    H121501   0.906   4.126   5.563
 7186TIP3    H221502   0.995   4.080   5.449
 7187TIP3   OH221503   0.893   4.032   4.350
 7187TIP3    H121504   0.948   4.005   4.428
 7187TIP3    H221505   0.806   3.998   4.379
 7188TIP3   OH221506   1.164   4.663   5.519
 7188TIP3    H121507   1.088   4.602   5.517
 7188TIP3    H221508   1.143   4.725   5.446
 7189TIP3   OH221509   1.232   4.500   4.169
 7189TIP3    H121510   1.270   4.573   4.116
 7189TIP3    H221511   1.151   4.545   4.202
 7190TIP3   OH221512   0.258   3.265   6.045
 7190TIP3    H121513   0.164   3.254   6.064
 7190TIP3    H221514   0.298   3.212   6.116
 7191TIP3   OH221515   1.054   3.961   4.563
 7191TIP3    H121516   1.042   3.896   4.634
 7191TIP3    H221517   1.151   3.956   4.552
 7192TIP3   OH221518   0.254   4.006   4.347
 7192TIP3    H121519   0.270   3.913   4.322
 7192TIP3    H221520   0.236   3.996   4.442
 7193TIP3   OH221521   0.206   4.014   4.623
 7193TIP3    H121522   0.283   3.983   4.673
 7193TIP3    H221523   0.214   4.112   4.631
 7194TIP3   OH221524  -0.050   3.698   4.827
 7194TIP3    H121525  -0.080   3.751   4.902
 7194TIP3    H221526  -0.034   3.768   4.760
 7195TIP3   OH221527   1.090   3.343   5.717
 7195TIP3    H121528   1.172   3.383   5.751
 7195TIP3    H221529   1.080   3.263   5.773
 7196TIP3   OH221530   0.970   3.092   4.885
 7196TIP3    H121531   0.958   3.113   4.790
 7196TIP3    H221532   1.010   3.174   4.920
 7197TIP3   OH221533   0.468   4.209   4.569
 7197TIP3    H121534   0.383   4.236   4.608
 7197TIP3    H221535   0.485   4.283   4.509
 7198TIP3   OH221536   0.649   3.276   4.985
 7198TIP3    H121537   0.715   3.346   4.968
 7198TIP3    H221538   0.659   3.264   5.082
 7199TIP3   OH221539   0.924   3.587   5.796
 7199TIP3    H121540   0.950   3.638   5.875
 7199TIP3    H221541   0.981   3.508   5.802
 7200TIP3   OH221542   0.800   2.999   5.083
 7200TIP3    H121543   0.798   3.072   5.147
 7200TIP3    H221544   0.863   3.034   5.016
 7201TIP3   OH221545   0.215   4.288   4.641
 7201TIP3    H121546   0.183   4.357   4.578
 7201TIP3    H221547   0.196   4.330   4.727
 7202TIP3   OH221548   0.314   3.000   4.874
 7202TIP3    H121549   0.311   3.089   4.914
 7202TIP3    H221550   0.410   2.982   4.883
 7203TIP3   OH221551   1.567   3.490   5.777
 7203TIP3    H121552   1.469   3.497   5.782
 7203TIP3    H221553   1.575   3.450   5.689
 7204TIP3   OH221554   1.220   3.677   5.151
 7204TIP3    H121555   1.140   3.627   5.174
 7204TIP3    H221556   1.288   3.633   5.207
 7205TIP3   OH221557  -0.055   3.921   4.670
 7205TIP3    H121558   0.031   3.967   4.657
 7205TIP3    H221559  -0.058   3.870   4.586
 7206TIP3   OH221560  -0.148   3.187   4.770
 7206TIP3    H121561  -0.144   3.284   4.761
 7206TIP3    H221562  -0.171   3.159   4.681
 7207TIP3   OH221563   1.183   4.648   5.108
 7207TIP3    H121564   1.142   4.696   5.032
 7207TIP3    H221565   1.278   4.664   5.088
 7208TIP3   OH221566   0.264   2.907   5.635
 7208TIP3    H121567   0.234   2.871   5.549
 7208TIP3    H221568   0.254   2.829   5.693
 7209TIP3   OH221569   0.432   4.633   6.140
 7209TIP3    H121570   0.528   4.622   6.141
 7209TIP3    H221571   0.407   4.571   6.068
 7210TIP3   OH221572   0.419   4.209   4.260
 7210TIP3    H121573   0.364   4.136   4.297
 7210TIP3    H221574   0.496   4.158   4.229
 7211TIP3   OH221575   1.060   4.543   5.867
 7211TIP3    H121576   1.062   4.472   5.936
 7211TIP3    H221577   1.143   4.592   5.888
 7212TIP3   OH221578   0.855   4.249   4.175
 7212TIP3    H121579   0.894   4.182   4.235
 7212TIP3    H221580   0.913   4.244   4.097
 7213TIP3   OH221581   0.065   3.730   4.491
 7213TIP3    H121582   0.124   3.698   4.562
 7213TIP3    H221583   0.128   3.732   4.416
 7214TIP3   OH221584   0.688   4.162   6.063
 7214TIP3    H121585   0.659   4.177   5.972
 7214TIP3    H221586   0.726   4.071   6.057
 7215TIP3   OH221587   0.577   3.927   4.290
 7215TIP3    H121588   0.581   3.937   4.388
 7215TIP3    H221589   0.581   3.829   4.283
 7216TIP3   OH221590   1.171   4.195   5.693
 7216TIP3    H121591   1.259   4.202   5.653
 7216TIP3    H221592   1.124   4.267   5.650
 7217TIP3   OH221593   0.205   3.798   6.290
 7217TIP3    H121594   0.267   3.761   6.226
 7217TIP3    H221595   0.262   3.843   6.354
 7218TIP3   OH221596   0.270   3.633   4.702
 7218TIP3    H121597   0.253   3.589   4.788
 7218TIP3    H221598   0.309   3.560   4.650
 7219TIP3   OH221599   0.547   3.704   5.940
 7219TIP3    H121600   0.465   3.755   5.932
 7219TIP3    H221601   0.596   3.733   5.859
 7220TIP3   OH221602   0.377   3.431   4.545
 7220TIP3    H121603   0.352   3.433   4.450
 7220TIP3    H221604   0.475   3.430   4.538
 7221TIP3   OH221605   1.054   4.102   6.074
 7221TIP3    H121606   1.119   4.074   6.009
 7221TIP3    H221607   1.054   4.029   6.138
 7222TIP3   OH221608   1.194   3.755   4.211
 7222TIP3    H121609   1.175   3.709   4.127
 7222TIP3    H221610   1.159   3.845   4.188
 7223TIP3   OH221611   0.670   3.488   6.057
 7223TIP3    H121612   0.668   3.408   6.000
 7223TIP3    H221613   0.625   3.554   6.000
 7224TIP3   OH221614   0.670   3.272   5.870
 7224TIP3    H121615   0.698   3.315   5.786
 7224TIP3    H221616   0.576   3.249   5.849
 7225TIP3   OH221617   0.698   3.808   5.743
 7225TIP3    H121618   0.778   3.803   5.689
 7225TIP3    H221619   0.643   3.871   5.692
 7226TIP3   OH221620   1.283   3.772   6.120
 7226TIP3    H121621   1.319   3.682   6.121
 7226TIP3    H221622   1.357   3.820   6.080
 7227TIP3   OH221623   0.547   3.602   6.293
 7227TIP3    H121624   0.486   3.526   6.299
 7227TIP3    H221625   0.579   3.593   6.202
 7228TIP3   OH221626   0.801   3.035   5.938
 7228TIP3    H121627   0.751   3.116   5.913
 7228TIP3    H221628   0.733   2.965   5.924
 7229TIP3   OH221629   0.927   3.536   6.151
 7229TIP3    H121630   0.908   3.520   6.245
 7229TIP3    H221631   0.839   3.514   6.113
 7230TIP3   OH221632   1.168   3.497   6.008
 7230TIP3    H121633   1.092   3.491   6.069
 7230TIP3    H221634   1.241   3.460   6.061
 7231TIP3   OH221635   1.395   3.430   6.157
 7231TIP3    H121636   1.408   3.334   6.171
 7231TIP3    H221637   1.392   3.465   6.249
 7232TIP3   OH221638   0.399   3.376   6.343
 7232TIP3    H121639   0.400   3.288   6.301
 7232TIP3    H221640   0.433   3.354   6.432
 7233TIP3   OH221641   0.893   3.042   6.196
 7233TIP3    H121642   0.959   2.971   6.188
 7233TIP3    H221643   0.853   3.040   6.106
 7234TIP3   OH221644   0.961   3.257   6.353
 7234TIP3    H121645   0.940   3.186   6.289
 7234TIP3    H221646   0.884   3.316   6.344
 7235TIP3   OH221647   0.186   4.490   4.451
 7235TIP3    H121648   0.281   4.479   4.433
 7235TIP3    H221649   0.159   4.536   4.370
 7236TIP3   OH221650   1.440   4.733   5.070
 7236TIP3    H121651   1.466   4.760   5.160
 7236TIP3    H221652   1.508   4.774   5.014
 7237TIP3   OH221653   1.471   4.751   5.349
 7237TIP3    H121654   1.423   4.666   5.346
 7237TIP3    H221655   1.539   4.729   5.414
 7238TIP3   OH221656   1.518   4.424   5.926
 7238TIP3    H121657   1.442   4.437   5.986
 7238TIP3    H221658   1.557   4.514   5.926
 7239TIP3   OH221659   1.333   3.942   4.544
 7239TIP3    H121660   1.400   4.006   4.513
 7239TIP3    H221661   1.377   3.905   4.623
 7240TIP3   OH221662   1.461   3.813   4.753
 7240TIP3    H121663   1.389   3.765   4.800
 7240TIP3    H221664   1.502   3.861   4.827
 7241TIP3   OH221665   1.533   4.210   5.194
 7241TIP3    H121666   1.581   4.143   5.141
 7241TIP3    H221667   1.488   4.261   5.126
 7242TIP3   OH221668   1.345   4.504   5.370
 7242TIP3    H121669   1.275   4.539   5.428
 7242TIP3    H221670   1.293   4.455   5.302
 7243TIP3   OH221671   1.397   3.720   4.392
 7243TIP3    H121672   1.326   3.717   4.324
 7243TIP3    H221673   1.366   3.795   4.446
 7244TIP3   OH221674   1.269   3.397   4.342
 7244TIP3    H121675   1.220   3.420   4.262
 7244TIP3    H221676   1.243   3.302   4.352
 7245TIP3   OH221677   1.274   3.666   4.885
 7245TIP3    H121678   1.279   3.569   4.878
 7245TIP3    H221679   1.258   3.678   4.982
 7246TIP3   OH221680   1.754   3.919   5.791
 7246TIP3    H121681   1.666   3.880   5.801
 7246TIP3    H221682   1.810   3.839   5.795
 7247TIP3   OH221683   1.202   3.137   4.357
 7247TIP3    H121684   1.283   3.092   4.388
 7247TIP3    H221685   1.140   3.065   4.342
 7248TIP3   OH221686   1.270   3.382   4.784
 7248TIP3    H121687   1.309   3.293   4.801
 7248TIP3    H221688   1.328   3.412   4.712
 7249TIP3   OH221689   1.426   3.558   5.292
 7249TIP3    H121690   1.515   3.581   5.256
 7249TIP3    H221691   1.425   3.612   5.373
 7250TIP3   OH221692   0.138   3.353   6.442
 7250TIP3    H121693   0.216   3.375   6.387
 7250TIP3    H221694   0.067   3.391   6.387
 7251TIP3   OH221695   1.951   3.295   6.068
 7251TIP3    H121696   2.012   3.230   6.025
 7251TIP3    H221697   1.920   3.346   5.991
 7252TIP3   OH221698   1.378   3.131   4.826
 7252TIP3    H121699   1.424   3.115   4.911
 7252TIP3    H221700   1.317   3.054   4.824
 7253TIP3   OH221701   0.091   3.119   5.649
 7253TIP3    H121702   0.153   3.043   5.653
 7253TIP3    H221703   0.154   3.192   5.632
 7254TIP3   OH221704   1.818   3.429   5.873
 7254TIP3    H121705   1.732   3.473   5.889
 7254TIP3    H221706   1.787   3.356   5.816
 7255TIP3   OH221707   1.462   3.061   4.442
 7255TIP3    H121708   1.514   3.000   4.388
 7255TIP3    H221709   1.523   3.137   4.451
 7256TIP3   OH221710  -0.112   2.918   5.235
 7256TIP3    H121711  -0.206   2.903   5.249
 7256TIP3    H221712  -0.113   2.976   5.155
 7257TIP3   OH221713   1.021   4.604   4.723
 7257TIP3    H121714   1.072   4.590   4.641
 7257TIP3    H221715   1.079   4.663   4.773
 7258TIP3   OH221716   0.081   2.985   6.045
 7258TIP3    H121717   0.038   2.984   6.131
 7258TIP3    H221718   0.018   3.034   5.991
 7259TIP3   OH221719   0.302   4.474   5.659
 7259TIP3    H121720   0.288   4.546   5.595
 7259TIP3    H221721   0.392   4.448   5.633
 7260TIP3   OH221722   0.750   4.683   5.798
 7260TIP3    H121723   0.792   4.682   5.886
 7260TIP3    H221724   0.818   4.731   5.746
 7261TIP3   OH221725   0.934   4.832   5.655
 7261TIP3    H121726   0.999   4.772   5.614
 7261TIP3    H221727   0.993   4.892   5.704
 7262TIP3   OH221728   1.720   3.192   5.754
 7262TIP3    H121729   1.630   3.185   5.717
 7262TIP3    H221730   1.753   3.100   5.743
 7263TIP3   OH221731   0.216   4.698   5.513
 7263TIP3    H121732   0.189   4.789   5.538
 7263TIP3    H221733   0.162   4.681   5.435
 7264TIP3   OH221734   0.641   4.699   5.340
 7264TIP3    H121735   0.593   4.723   5.260
 7264TIP3    H221736   0.656   4.786   5.383
 7265TIP3   OH221737   0.910   4.642   5.391
 7265TIP3    H121738   0.817   4.657   5.368
 7265TIP3    H221739   0.955   4.715   5.346
 7266TIP3   OH221740   1.113   4.830   5.302
 7266TIP3    H121741   1.102   4.914   5.252
 7266TIP3    H221742   1.141   4.768   5.231
 7267TIP3   OH221743   0.090   4.362   5.273
 7267TIP3    H121744   0.094   4.271   5.311
 7267TIP3    H221745   0.183   4.388   5.278
 7268TIP3   OH221746   0.367   4.458   5.289
 7268TIP3    H121747   0.390   4.364   5.273
 7268TIP3    H221748   0.419   4.471   5.371
 7269TIP3   OH221749   0.931   3.104   5.368
 7269TIP3    H121750   0.883   3.037   5.420
 7269TIP3    H221751   1.003   3.052   5.327
 7270TIP3   OH221752   1.447   2.994   5.283
 7270TIP3    H121753   1.481   3.039   5.202
 7270TIP3    H221754   1.351   3.001   5.269
 7271TIP3   OH221755   1.545   3.093   5.044
 7271TIP3    H121756   1.617   3.039   5.004
 7271TIP3    H221757   1.578   3.184   5.026
 7272TIP3   OH221758   0.172   2.817   5.389
 7272TIP3    H121759   0.078   2.788   5.385
 7272TIP3    H221760   0.218   2.730   5.383
 7273TIP3   OH221761  -0.014   2.682   5.048
 7273TIP3    H121762   0.005   2.736   4.969
 7273TIP3    H221763  -0.064   2.744   5.104
 7274TIP3   OH221764   0.613   2.851   5.271
 7274TIP3    H121765   0.674   2.884   5.203
 7274TIP3    H221766   0.652   2.888   5.352
 7275TIP3   OH221767   1.159   2.960   5.255
 7275TIP3    H121768   1.174   2.944   5.161
 7275TIP3    H221769   1.158   2.869   5.288
 7276TIP3   OH221770   1.193   2.917   4.816
 7276TIP3    H121771   1.107   2.959   4.832
 7276TIP3    H221772   1.184   2.837   4.872
 7277TIP3   OH221773   0.083   2.844   4.805
 7277TIP3    H121774   0.128   2.774   4.753
 7277TIP3    H221775   0.158   2.895   4.840
 7278TIP3   OH221776   0.590   3.023   4.900
 7278TIP3    H121777   0.650   2.975   4.960
 7278TIP3    H221778   0.611   3.115   4.925
 7279TIP3   OH221779   0.451   4.444   4.397
 7279TIP3    H121780   0.540   4.465   4.362
 7279TIP3    H221781   0.429   4.368   4.338
 7280TIP3   OH221782   1.169   4.566   4.493
 7280TIP3    H121783   1.163   4.468   4.482
 7280TIP3    H221784   1.125   4.596   4.411
 7281TIP3   OH221785   0.380   3.103   6.274
 7281TIP3    H121786   0.342   3.031   6.328
 7281TIP3    H221787   0.473   3.098   6.306
 7282TIP3   OH221788   0.630   3.098   6.401
 7282TIP3    H121789   0.713   3.074   6.357
 7282TIP3    H221790   0.618   3.023   6.463
 7283TIP3   OH221791   1.459   3.159   6.185
 7283TIP3    H121792   1.477   3.127   6.276
 7283TIP3    H221793   1.548   3.153   6.144
 7284TIP3   OH221794   1.401   4.707   5.670
 7284TIP3    H121795   1.318   4.674   5.631
 7284TIP3    H221796   1.379   4.803   5.675
 7285TIP3   OH221797   2.002   3.986   5.172
 7285TIP3    H121798   2.002   3.904   5.224
 7285TIP3    H221799   2.029   4.049   5.240
 7286TIP3   OH221800   1.929   4.393   4.910
 7286TIP3    H121801   1.910   4.320   4.970
 7286TIP3    H221802   2.026   4.388   4.899
 7287TIP3   OH221803   1.634   3.598   4.697
 7287TIP3    H121804   1.576   3.674   4.714
 7287TIP3    H221805   1.570   3.536   4.659
 7288TIP3   OH221806   1.733   3.883   4.857
 7288TIP3    H121807   1.765   3.802   4.903
 7288TIP3    H221808   1.722   3.850   4.767
 7289TIP3   OH221809   2.563   4.836   4.515
 7289TIP3    H121810   2.608   4.762   4.470
 7289TIP3    H221811   2.559   4.805   4.607
 7290TIP3   OH221812   3.485   3.617   4.874
 7290TIP3    H121813   3.509   3.704   4.912
 7290TIP3    H221814   3.506   3.629   4.780
 7291TIP3   OH221815   2.189   3.472   4.878
 7291TIP3    H121816   2.185   3.533   4.801
 7291TIP3    H221817   2.158   3.390   4.835
 7292TIP3   OH221818   2.900   3.551   4.478
 7292TIP3    H121819   2.957   3.542   4.557
 7292TIP3    H221820   2.958   3.605   4.423
 7293TIP3   OH221821   1.846   3.670   4.979
 7293TIP3    H121822   1.924   3.643   5.031
 7293TIP3    H221823   1.854   3.609   4.903
 7294TIP3   OH221824   3.548   3.840   5.033
 7294TIP3    H121825   3.459   3.877   5.019
 7294TIP3    H221826   3.553   3.844   5.130
 7295TIP3   OH221827   2.205   3.453   5.306
 7295TIP3    H121828   2.143   3.487   5.239
 7295TIP3    H221829   2.154   3.470   5.388
 7296TIP3   OH221830   2.299   4.225   5.101
 7296TIP3    H121831   2.231   4.282   5.143
 7296TIP3    H221832   2.355   4.291   5.058
 7297TIP3   OH221833   3.105   3.561   4.659
 7297TIP3    H121834   3.112   3.491   4.726
 7297TIP3    H221835   3.145   3.637   4.704
 7298TIP3   OH221836   2.073   3.572   5.097
 7298TIP3    H121837   2.138   3.644   5.115
 7298TIP3    H221838   2.117   3.529   5.019
 7299TIP3   OH221839   2.134   4.424   5.194
 7299TIP3    H121840   2.112   4.515   5.165
 7299TIP3    H221841   2.057   4.408   5.254
 7300TIP3   OH221842   1.533   4.112   4.433
 7300TIP3    H121843   1.491   4.137   4.349
 7300TIP3    H221844   1.564   4.199   4.467
 7301TIP3   OH221845   2.979   4.629   4.693
 7301TIP3    H121846   2.885   4.618   4.719
 7301TIP3    H221847   2.972   4.703   4.630
 7302TIP3   OH221848   3.259   3.545   5.045
 7302TIP3    H121849   3.168   3.549   5.008
 7302TIP3    H221850   3.313   3.563   4.966
 7303TIP3   OH221851   2.548   3.167   5.007
 7303TIP3    H121852   2.544   3.075   5.039
 7303TIP3    H221853   2.477   3.208   5.061
 7304TIP3   OH221854   2.690   4.648   4.334
 7304TIP3    H121855   2.762   4.582   4.321
 7304TIP3    H221856   2.739   4.726   4.299
 7305TIP3   OH221857   3.198   4.541   5.017
 7305TIP3    H121858   3.200   4.474   4.946
 7305TIP3    H221859   3.181   4.623   4.965
 7306TIP3   OH221860   2.449   3.724   3.990
 7306TIP3    H121861   2.517   3.775   4.038
 7306TIP3    H221862   2.506   3.657   3.946
 7307TIP3   OH221863   3.394   4.178   4.861
 7307TIP3    H121864   3.320   4.241   4.863
 7307TIP3    H221865   3.399   4.160   4.766
 7308TIP3   OH221866   2.803   4.007   4.276
 7308TIP3    H121867   2.831   4.100   4.284
 7308TIP3    H221868   2.852   3.964   4.348
 7309TIP3   OH221869   3.084   4.062   5.165
 7309TIP3    H121870   3.085   4.136   5.228
 7309TIP3    H221871   2.993   4.066   5.132
 7310TIP3   OH221872   2.187   4.380   4.802
 7310TIP3    H121873   2.165   4.397   4.709
 7310TIP3    H221874   2.281   4.403   4.807
 7311TIP3   OH221875   2.723   4.621   4.789
 7311TIP3    H121876   2.718   4.703   4.840
 7311TIP3    H221877   2.715   4.551   4.857
 7312TIP3   OH221878   2.345   4.541   5.339
 7312TIP3    H121879   2.286   4.602   5.389
 7312TIP3    H221880   2.278   4.487   5.293
 7313TIP3   OH221881   2.674   3.871   4.072
 7313TIP3    H121882   2.724   3.929   4.132
 7313TIP3    H221883   2.706   3.898   3.983
 7314TIP3   OH221884   2.085   4.104   5.426
 7314TIP3    H121885   2.098   4.188   5.476
 7314TIP3    H221886   2.000   4.075   5.466
 7315TIP3   OH221887   2.417   4.546   4.353
 7315TIP3    H121888   2.503   4.591   4.359
 7315TIP3    H221889   2.361   4.616   4.317
 7316TIP3   OH221890   2.140   4.707   5.431
 7316TIP3    H121891   2.102   4.710   5.341
 7316TIP3    H221892   2.061   4.686   5.486
 7317TIP3   OH221893   3.195   3.113   4.122
 7317TIP3    H121894   3.113   3.132   4.171
 7317TIP3    H221895   3.208   3.197   4.073
 7318TIP3   OH221896   1.933   3.871   4.491
 7318TIP3    H121897   1.869   3.905   4.426
 7318TIP3    H221898   1.916   3.776   4.488
 7319TIP3   OH221899   2.997   4.479   3.670
 7319TIP3    H121900   3.004   4.576   3.659
 7319TIP3    H221901   3.090   4.451   3.657
 7320TIP3   OH221902   1.726   4.238   5.382
 7320TIP3    H121903   1.653   4.226   5.316
 7320TIP3    H221904   1.751   4.146   5.402
 7321TIP3   OH221905   1.571   4.450   4.989
 7321TIP3    H121906   1.666   4.443   5.006
 7321TIP3    H221907   1.543   4.512   5.057
 7322TIP3   OH221908   3.437   4.886   5.066
 7322TIP3    H121909   3.437   4.790   5.084
 7322TIP3    H221910   3.354   4.912   5.112
 7323TIP3   OH221911   2.540   4.672   5.196
 7323TIP3    H121912   2.539   4.764   5.232
 7323TIP3    H221913   2.470   4.630   5.252
 7324TIP3   OH221914   2.308   4.794   4.155
 7324TIP3    H121915   2.263   4.778   4.070
 7324TIP3    H221916   2.275   4.883   4.180
 7325TIP3   OH221917   1.742   4.648   4.534
 7325TIP3    H121918   1.788   4.640   4.621
 7325TIP3    H221919   1.688   4.567   4.535
 7326TIP3   OH221920   2.506   4.700   3.789
 7326TIP3    H121921   2.566   4.631   3.752
 7326TIP3    H221922   2.543   4.712   3.879
 7327TIP3   OH221923   2.558   4.749   4.058
 7327TIP3    H121924   2.471   4.759   4.102
 7327TIP3    H221925   2.614   4.716   4.131
 7328TIP3   OH221926   3.328   4.013   5.337
 7328TIP3    H121927   3.242   4.014   5.292
 7328TIP3    H221928   3.348   3.917   5.334
 7329TIP3   OH221929   1.921   4.424   5.361
 7329TIP3    H121930   1.971   4.410   5.445
 7329TIP3    H221931   1.849   4.358   5.371
 7330TIP3   OH221932   2.321   3.243   5.155
 7330TIP3    H121933   2.232   3.215   5.125
 7330TIP3    H221934   2.298   3.328   5.198
 7331TIP3   OH221935   2.858   3.365   5.342
 7331TIP3    H121936   2.928   3.336   5.403
 7331TIP3    H221937   2.776   3.341   5.390
 7332TIP3   OH221938   3.103   3.797   5.273
 7332TIP3    H121939   3.047   3.783   5.353
 7332TIP3    H221940   3.063   3.875   5.232
 7333TIP3   OH221941   2.755   3.933   3.820
 7333TIP3    H121942   2.719   3.901   3.736
 7333TIP3    H221943   2.844   3.961   3.792
 7334TIP3   OH221944   2.465   3.297   4.120
 7334TIP3    H121945   2.434   3.288   4.213
 7334TIP3    H221946   2.431   3.213   4.084
 7335TIP3   OH221947   2.244   3.787   5.161
 7335TIP3    H121948   2.200   3.775   5.248
 7335TIP3    H221949   2.247   3.883   5.157
 7336TIP3   OH221950   2.119   3.629   4.664
 7336TIP3    H121951   2.032   3.592   4.690
 7336TIP3    H221952   2.134   3.585   4.578
 7337TIP3   OH221953   2.601   3.729   4.370
 7337TIP3    H121954   2.621   3.819   4.344
 7337TIP3    H221955   2.678   3.682   4.331
 7338TIP3   OH221956   2.806   4.012   5.493
 7338TIP3    H121957   2.782   3.936   5.551
 7338TIP3    H221958   2.901   4.022   5.516
 7339TIP3   OH221959   2.074   3.783   5.374
 7339TIP3    H121960   2.089   3.848   5.444
 7339TIP3    H221961   2.059   3.701   5.426
 7340TIP3   OH221962   2.123   3.268   4.085
 7340TIP3    H121963   2.115   3.266   4.182
 7340TIP3    H221964   2.044   3.320   4.061
 7341TIP3   OH221965   1.667   3.316   4.951
 7341TIP3    H121966   1.742   3.344   5.008
 7341TIP3    H221967   1.710   3.275   4.874
 7342TIP3   OH221968   1.632   3.291   4.476
 7342TIP3    H121969   1.680   3.327   4.399
 7342TIP3    H221970   1.571   3.366   4.494
 7343TIP3   OH221971   1.890   3.516   4.754
 7343TIP3    H121972   1.797   3.525   4.724
 7343TIP3    H221973   1.912   3.424   4.733
 7344TIP3   OH221974   2.164   3.512   4.427
 7344TIP3    H121975   2.259   3.526   4.409
 7344TIP3    H221976   2.119   3.538   4.343
 7345TIP3   OH221977   2.987   3.563   4.959
 7345TIP3    H121978   2.919   3.570   5.028
 7345TIP3    H221979   2.979   3.468   4.933
 7346TIP3   OH221980   2.008   3.566   4.212
 7346TIP3    H121981   1.940   3.515   4.165
 7346TIP3    H221982   2.061   3.599   4.136
 7347TIP3   OH221983   3.131   5.235   5.165
 7347TIP3    H121984   3.130   5.260   5.071
 7347TIP3    H221985   3.211   5.281   5.196
 7348TIP3   OH221986   2.087   4.349   5.582
 7348TIP3    H121987   2.166   4.374   5.633
 7348TIP3    H221988   2.022   4.337   5.654
 7349TIP3   OH221989   2.068   3.282   4.718
 7349TIP3    H121990   2.033   3.207   4.770
 7349TIP3    H221991   2.125   3.238   4.654
 7350TIP3   OH221992   2.515   3.685   5.153
 7350TIP3    H121993   2.434   3.737   5.146
 7350TIP3    H221994   2.582   3.750   5.182
 7351TIP3   OH221995   3.183   4.344   4.823
 7351TIP3    H121996   3.185   4.326   4.727
 7351TIP3    H221997   3.096   4.311   4.847
 7352TIP3   OH221998   2.716   3.401   4.083
 7352TIP3    H121999   2.621   3.380   4.099
 7352TIP3    H222000   2.727   3.492   4.118
 7353TIP3   OH222001   2.653   4.405   5.225
 7353TIP3    H122002   2.686   4.380   5.312
 7353TIP3    H222003   2.622   4.496   5.239
 7354TIP3   OH222004   2.792   3.641   4.191
 7354TIP3    H122005   2.888   3.643   4.209
 7354TIP3    H222006   2.778   3.722   4.139
 7355TIP3   OH222007   2.386   4.235   4.124
 7355TIP3    H122008   2.348   4.321   4.093
 7355TIP3    H222009   2.324   4.175   4.083
 7356TIP3   OH222010   1.842   4.019   5.520
 7356TIP3    H122011   1.830   4.005   5.616
 7356TIP3    H222012   1.770   3.963   5.483
 7357TIP3   OH222013   2.567   4.146   5.532
 7357TIP3    H122014   2.507   4.084   5.488
 7357TIP3    H222015   2.654   4.109   5.507
 7358TIP3   OH222016   2.821   4.659   5.123
 7358TIP3    H122017   2.725   4.663   5.133
 7358TIP3    H222018   2.850   4.714   5.199
 7359TIP3   OH222019   3.233   3.726   4.005
 7359TIP3    H122020   3.162   3.689   3.948
 7359TIP3    H222021   3.230   3.819   3.974
 7360TIP3   OH222022   3.450   4.595   5.107
 7360TIP3    H122023   3.352   4.590   5.102
 7360TIP3    H222024   3.474   4.566   5.017
 7361TIP3   OH222025   2.918   4.561   3.943
 7361TIP3    H122026   2.925   4.515   4.028
 7361TIP3    H222027   2.943   4.496   3.876
 7362TIP3   OH222028   2.065   4.420   4.546
 7362TIP3    H122029   2.063   4.492   4.479
 7362TIP3    H222030   1.973   4.392   4.544
 7363TIP3   OH222031   1.621   3.716   4.231
 7363TIP3    H122032   1.666   3.800   4.254
 7363TIP3    H222033   1.544   3.720   4.292
 7364TIP3   OH222034   2.329   4.751   4.988
 7364TIP3    H122035   2.370   4.827   4.942
 7364TIP3    H222036   2.403   4.721   5.043
 7365TIP3   OH222037   1.978   4.647   4.380
 7365TIP3    H122038   1.891   4.658   4.424
 7365TIP3    H222039   2.011   4.740   4.382
 7366TIP3   OH222040   2.727   4.398   4.963
 7366TIP3    H122041   2.685   4.401   5.052
 7366TIP3    H222042   2.814   4.365   4.988
 7367TIP3   OH222043   2.695   4.289   3.836
 7367TIP3    H122044   2.739   4.264   3.918
 7367TIP3    H222045   2.611   4.240   3.841
 7368TIP3   OH222046   2.959   4.923   5.002
 7368TIP3    H122047   2.879   4.868   4.994
 7368TIP3    H222048   2.945   4.988   4.930
 7369TIP3   OH222049   3.027   4.756   3.655
 7369TIP3    H122050   3.062   4.831   3.603
 7369TIP3    H222051   2.947   4.799   3.691
 7370TIP3   OH222052   2.044   3.535   5.521
 7370TIP3    H122053   1.948   3.537   5.535
 7370TIP3    H222054   2.074   3.477   5.593
 7371TIP3   OH222055   1.768   4.613   5.154
 7371TIP3    H122056   1.815   4.545   5.205
 7371TIP3    H222057   1.780   4.690   5.211
 7372TIP3   OH222058   2.069   4.256   3.833
 7372TIP3    H122059   2.059   4.163   3.805
 7372TIP3    H222060   2.037   4.251   3.926
 7373TIP3   OH222061   2.006   4.270   4.101
 7373TIP3    H122062   2.027   4.242   4.190
 7373TIP3    H222063   2.006   4.368   4.108
 7374TIP3   OH222064   1.734   3.962   4.315
 7374TIP3    H122065   1.666   4.006   4.370
 7374TIP3    H222066   1.744   4.028   4.244
 7375TIP3   OH222067   2.870   3.617   5.223
 7375TIP3    H122068   2.965   3.632   5.233
 7375TIP3    H222069   2.860   3.528   5.263
 7376TIP3   OH222070   2.759   3.345   4.370
 7376TIP3    H122071   2.756   3.371   4.276
 7376TIP3    H222072   2.808   3.421   4.410
 7377TIP3   OH222073   2.271   4.463   4.055
 7377TIP3    H122074   2.183   4.487   4.089
 7377TIP3    H222075   2.285   4.537   3.993
 7378TIP3   OH222076   2.442   3.525   4.450
 7378TIP3    H122077   2.496   3.600   4.417
 7378TIP3    H222078   2.492   3.500   4.529
 7379TIP3   OH222079   2.713   3.848   5.267
 7379TIP3    H122080   2.747   3.890   5.348
 7379TIP3    H222081   2.767   3.766   5.263
 7380TIP3   OH222082   2.596   3.262   4.577
 7380TIP3    H122083   2.648   3.285   4.658
 7380TIP3    H222084   2.656   3.295   4.507
 7381TIP3   OH222085   2.014   4.540   4.125
 7381TIP3    H122086   1.982   4.609   4.061
 7381TIP3    H222087   1.995   4.585   4.210
 7382TIP3   OH222088   2.108   3.251   4.360
 7382TIP3    H122089   2.107   3.341   4.399
 7382TIP3    H222090   2.203   3.230   4.368
 7383TIP3   OH222091   3.364   3.744   5.246
 7383TIP3    H122092   3.267   3.752   5.264
 7383TIP3    H222093   3.358   3.678   5.174
 7384TIP3   OH222094   1.725   4.166   4.117
 7384TIP3    H122095   1.779   4.246   4.110
 7384TIP3    H222096   1.773   4.109   4.053
 7385TIP3   OH222097   1.668   3.446   4.253
 7385TIP3    H122098   1.668   3.544   4.249
 7385TIP3    H222099   1.589   3.424   4.202
 7386TIP3   OH222100   2.982   4.900   4.595
 7386TIP3    H122101   2.940   4.948   4.521
 7386TIP3    H222102   3.077   4.919   4.575
 7387TIP3   OH222103   2.055   3.167   5.123
 7387TIP3    H122104   2.027   3.132   5.035
 7387TIP3    H222105   2.047   3.088   5.180
 7388TIP3   OH222106   1.595   4.382   4.501
 7388TIP3    H122107   1.534   4.411   4.570
 7388TIP3    H222108   1.558   4.427   4.421
 7389TIP3   OH222109   1.754   4.930   5.574
 7389TIP3    H122110   1.840   4.927   5.620
 7389TIP3    H222111   1.730   4.835   5.573
 7390TIP3   OH222112   2.234   4.890   5.619
 7390TIP3    H122113   2.328   4.868   5.627
 7390TIP3    H222114   2.207   4.828   5.548
 7391TIP3   OH222115   2.219   4.467   3.745
 7391TIP3    H122116   2.166   4.391   3.778
 7391TIP3    H222117   2.293   4.421   3.700
 7392TIP3   OH222118   2.875   4.798   5.354
 7392TIP3    H122119   2.867   4.729   5.424
 7392TIP3    H222120   2.952   4.849   5.385
 7393TIP3   OH222121   2.652   4.506   3.657
 7393TIP3    H122122   2.701   4.449   3.720
 7393TIP3    H222123   2.709   4.504   3.578
 7394TIP3   OH222124   1.884   4.335   5.776
 7394TIP3    H122125   1.901   4.239   5.777
 7394TIP3    H222126   1.799   4.339   5.727
 7395TIP3   OH222127   1.864   3.983   3.971
 7395TIP3    H122128   1.918   3.946   4.043
 7395TIP3    H222129   1.930   3.986   3.899
 7396TIP3   OH222130   2.492   4.421   5.549
 7396TIP3    H122131   2.450   4.436   5.462
 7396TIP3    H222132   2.524   4.328   5.542
 7397TIP3   OH222133   2.400   4.182   3.781
 7397TIP3    H122134   2.346   4.187   3.861
 7397TIP3    H222135   2.396   4.085   3.763
 7398TIP3   OH222136   2.978   4.422   5.133
 7398TIP3    H122137   3.059   4.470   5.106
 7398TIP3    H222138   2.914   4.496   5.135
 7399TIP3   OH222139   2.019   4.085   5.756
 7399TIP3    H122140   2.075   4.009   5.740
 7399TIP3    H222141   2.042   4.109   5.848
 7400TIP3   OH222142   2.063   3.887   4.185
 7400TIP3    H122143   2.043   3.841   4.267
 7400TIP3    H222144   2.111   3.818   4.135
 7401TIP3   OH222145   2.330   3.951   5.425
 7401TIP3    H122146   2.254   4.012   5.422
 7401TIP3    H222147   2.387   3.987   5.353
 7402TIP3   OH222148   2.174   3.686   4.029
 7402TIP3    H122149   2.150   3.690   3.934
 7402TIP3    H222150   2.272   3.685   4.023
 7403TIP3   OH222151   2.858   4.354   5.551
 7403TIP3    H122152   2.941   4.325   5.513
 7403TIP3    H222153   2.847   4.290   5.624
 7404TIP3   OH222154   2.988   4.009   3.696
 7404TIP3    H122155   2.967   3.965   3.611
 7404TIP3    H222156   2.957   4.100   3.675
 7405TIP3   OH222157   2.461   3.741   5.546
 7405TIP3    H122158   2.464   3.660   5.490
 7405TIP3    H222159   2.416   3.805   5.487
 7406TIP3   OH222160   2.463   3.523   5.365
 7406TIP3    H122161   2.494   3.567   5.282
 7406TIP3    H222162   2.371   3.500   5.340
 7407TIP3   OH222163   2.475   4.058   5.232
 7407TIP3    H122164   2.559   4.044   5.187
 7407TIP3    H222165   2.425   4.117   5.171
 7408TIP3   OH222166   3.070   4.030   5.603
 7408TIP3    H122167   3.107   3.944   5.629
 7408TIP3    H222168   3.149   4.078   5.575
 7409TIP3   OH222169   3.111   4.286   5.335
 7409TIP3    H122170   3.055   4.339   5.275
 7409TIP3    H222171   3.201   4.306   5.299
 7410TIP3   OH222172   2.340   3.848   5.779
 7410TIP3    H122173   2.272   3.780   5.794
 7410TIP3    H222174   2.374   3.822   5.691
 7411TIP3   OH222175   2.598   3.290   5.428
 7411TIP3    H122176   2.549   3.371   5.404
 7411TIP3    H222177   2.531   3.221   5.410
 7412TIP3   OH222178   2.720   3.797   5.637
 7412TIP3    H122179   2.710   3.780   5.733
 7412TIP3    H222180   2.631   3.770   5.606
 7413TIP3   OH222181   2.964   3.753   5.499
 7413TIP3    H122182   2.888   3.745   5.559
 7413TIP3    H222183   3.038   3.716   5.552
 7414TIP3   OH222184   3.194   3.683   5.638
 7414TIP3    H122185   3.206   3.588   5.657
 7414TIP3    H222186   3.187   3.723   5.727
 7415TIP3   OH222187   2.175   3.631   5.833
 7415TIP3    H122188   2.181   3.539   5.799
 7415TIP3    H222189   2.214   3.619   5.922
 7416TIP3   OH222190   2.688   3.297   5.685
 7416TIP3    H122191   2.756   3.228   5.676
 7416TIP3    H222192   2.650   3.296   5.595
 7417TIP3   OH222193   2.757   3.515   5.840
 7417TIP3    H122194   2.736   3.443   5.776
 7417TIP3    H222195   2.679   3.573   5.832
 7418TIP3   OH222196   1.975   4.741   3.932
 7418TIP3    H122197   2.070   4.741   3.910
 7418TIP3    H222198   1.941   4.800   3.862
 7419TIP3   OH222199   1.457   4.125   4.153
 7419TIP3    H122200   1.552   4.144   4.138
 7419TIP3    H222201   1.449   4.036   4.111
 7420TIP3   OH222202   1.373   4.737   4.571
 7420TIP3    H122203   1.308   4.675   4.531
 7420TIP3    H222204   1.418   4.677   4.635
 7421TIP3   OH222205   1.509   4.585   4.754
 7421TIP3    H122206   1.503   4.515   4.822
 7421TIP3    H222207   1.559   4.651   4.805
 7422TIP3   OH222208   3.236   4.991   4.558
 7422TIP3    H122209   3.264   5.025   4.645
 7422TIP3    H222210   3.302   5.030   4.498
 7423TIP3   OH222211   3.266   5.011   4.839
 7423TIP3    H122212   3.222   4.923   4.834
 7423TIP3    H222213   3.341   4.988   4.897
 7424TIP3   OH222214   3.308   4.687   5.408
 7424TIP3    H122215   3.239   4.696   5.476
 7424TIP3    H222216   3.353   4.773   5.414
 7425TIP3   OH222217   3.137   4.202   3.991
 7425TIP3    H122218   3.210   4.265   3.976
 7425TIP3    H222219   3.097   4.235   4.073
 7426TIP3   OH222220   3.143   4.764   4.865
 7426TIP3    H122221   3.071   4.808   4.915
 7426TIP3    H222222   3.092   4.716   4.796
 7427TIP3   OH222223   3.195   3.966   3.869
 7427TIP3    H122224   3.120   3.965   3.806
 7427TIP3    H222225   3.172   4.048   3.918
 7428TIP3   OH222226   3.052   3.646   3.820
 7428TIP3    H122227   3.006   3.671   3.739
 7428TIP3    H222228   3.035   3.549   3.821
 7429TIP3   OH222229   1.711   4.028   5.090
 7429TIP3    H122230   1.712   3.978   5.006
 7429TIP3    H222231   1.797   4.003   5.128
 7430TIP3   OH222232   3.359   4.349   5.233
 7430TIP3    H122233   3.429   4.280   5.227
 7430TIP3    H222234   3.394   4.419   5.176
 7431TIP3   OH222235   3.541   4.151   5.246
 7431TIP3    H122236   3.467   4.099   5.285
 7431TIP3    H222237   3.615   4.089   5.264
 7432TIP3   OH222238   3.010   3.378   3.811
 7432TIP3    H122239   3.081   3.348   3.871
 7432TIP3    H222240   2.934   3.322   3.836
 7433TIP3   OH222241   3.062   3.634   4.252
 7433TIP3    H122242   3.098   3.546   4.278
 7433TIP3    H222243   3.134   3.666   4.196
 7434TIP3   OH222244   3.242   3.790   4.772
 7434TIP3    H122245   3.293   3.848   4.716
 7434TIP3    H222246   3.246   3.835   4.859
 7435TIP3   OH222247   3.296   3.957   4.994
 7435TIP3    H122248   3.224   3.986   5.053
 7435TIP3    H222249   3.333   4.042   4.961
 7436TIP3   OH222250   1.906   3.684   5.797
 7436TIP3    H122251   2.004   3.678   5.799
 7436TIP3    H222252   1.883   3.598   5.836
 7437TIP3   OH222253   3.744   3.554   5.552
 7437TIP3    H122254   3.807   3.489   5.513
 7437TIP3    H222255   3.717   3.606   5.474
 7438TIP3   OH222256   3.174   3.389   4.305
 7438TIP3    H122257   3.220   3.377   4.391
 7438TIP3    H222258   3.111   3.314   4.308
 7439TIP3   OH222259   1.872   3.374   5.128
 7439TIP3    H122260   1.933   3.298   5.137
 7439TIP3    H222261   1.936   3.448   5.126
 7440TIP3   OH222262   1.673   3.650   5.211
 7440TIP3    H122263   1.727   3.655   5.129
 7440TIP3    H222264   1.692   3.735   5.254
 7441TIP3   OH222265   3.618   3.688   5.352
 7441TIP3    H122266   3.533   3.729   5.378
 7441TIP3    H222267   3.584   3.613   5.299
 7442TIP3   OH222268   3.253   3.322   3.944
 7442TIP3    H122269   3.294   3.252   3.890
 7442TIP3    H222270   3.321   3.392   3.944
 7443TIP3   OH222271   1.661   3.152   4.706
 7443TIP3    H122272   1.569   3.145   4.736
 7443TIP3    H222273   1.654   3.210   4.628
 7444TIP3   OH222274   2.811   4.858   4.212
 7444TIP3    H122275   2.865   4.840   4.132
 7444TIP3    H222276   2.869   4.918   4.260
 7445TIP3   OH222277   1.880   3.231   5.519
 7445TIP3    H122278   1.828   3.227   5.601
 7445TIP3    H222279   1.815   3.271   5.458
 7446TIP3   OH222280   1.921   4.663   5.594
 7446TIP3    H122281   1.828   4.637   5.577
 7446TIP3    H222282   1.931   4.635   5.686
 7447TIP3   OH222283   2.102   4.693   5.142
 7447TIP3    H122284   2.051   4.768   5.104
 7447TIP3    H222285   2.188   4.710   5.097
 7448TIP3   OH222286   2.541   4.937   5.280
 7448TIP3    H122287   2.582   4.935   5.369
 7448TIP3    H222288   2.607   4.989   5.230
 7449TIP3   OH222289   2.721   5.090   5.142
 7449TIP3    H122290   2.793   5.040   5.100
 7449TIP3    H222291   2.773   5.148   5.203
 7450TIP3   OH222292   3.517   3.448   5.240
 7450TIP3    H122293   3.426   3.434   5.205
 7450TIP3    H222294   3.552   3.357   5.230
 7451TIP3   OH222295   1.774   4.949   5.168
 7451TIP3    H122296   1.685   4.984   5.145
 7451TIP3    H222297   1.786   4.989   5.255
 7452TIP3   OH222298   2.011   4.927   5.026
 7452TIP3    H122299   1.924   4.940   5.070
 7452TIP3    H222300   1.992   4.959   4.936
 7453TIP3   OH222301   2.436   4.955   4.824
 7453TIP3    H122302   2.366   4.975   4.759
 7453TIP3    H222303   2.449   5.043   4.866
 7454TIP3   OH222304   2.706   4.891   4.873
 7454TIP3    H122305   2.613   4.912   4.856
 7454TIP3    H222306   2.752   4.965   4.831
 7455TIP3   OH222307   2.909   5.085   4.788
 7455TIP3    H122308   2.897   5.170   4.740
 7455TIP3    H222309   2.938   5.025   4.715
 7456TIP3   OH222310   1.685   4.746   4.913
 7456TIP3    H122311   1.713   4.714   5.002
 7456TIP3    H222312   1.755   4.702   4.859
 7457TIP3   OH222313   1.877   4.620   4.768
 7457TIP3    H122314   1.892   4.536   4.817
 7457TIP3    H222315   1.968   4.659   4.768
 7458TIP3   OH222316   2.142   4.719   4.777
 7458TIP3    H122317   2.186   4.639   4.747
 7458TIP3    H222318   2.190   4.738   4.860
 7459TIP3   OH222319   2.725   3.313   4.811
 7459TIP3    H122320   2.679   3.284   4.891
 7459TIP3    H222321   2.819   3.295   4.835
 7460TIP3   OH222322   3.340   3.345   4.515
 7460TIP3    H122323   3.419   3.297   4.484
 7460TIP3    H222324   3.370   3.437   4.517
 7461TIP3   OH222325   1.970   3.074   4.874
 7461TIP3    H122326   1.877   3.041   4.879
 7461TIP3    H222327   2.019   2.989   4.870
 7462TIP3   OH222328   1.747   2.944   4.518
 7462TIP3    H122329   1.787   3.000   4.449
 7462TIP3    H222330   1.727   3.009   4.588
 7463TIP3   OH222331   2.416   3.110   4.759
 7463TIP3    H122332   2.471   3.159   4.695
 7463TIP3    H222333   2.455   3.141   4.843
 7464TIP3   OH222334   2.990   3.176   4.303
 7464TIP3    H122335   2.905   3.218   4.321
 7464TIP3    H222336   2.979   3.091   4.351
 7465TIP3   OH222337   1.474   4.519   4.303
 7465TIP3    H122338   1.389   4.485   4.269
 7465TIP3    H222339   1.465   4.612   4.276
 7466TIP3   OH222340   1.876   3.101   4.287
 7466TIP3    H122341   1.922   3.038   4.229
 7466TIP3    H222342   1.952   3.154   4.320
 7467TIP3   OH222343   2.384   3.269   4.384
 7467TIP3    H122344   2.448   3.229   4.447
 7467TIP3    H222345   2.403   3.364   4.402
 7468TIP3   OH222346   2.249   4.699   3.889
 7468TIP3    H122347   2.335   4.724   3.851
 7468TIP3    H222348   2.225   4.626   3.827
 7469TIP3   OH222349   2.964   4.825   3.981
 7469TIP3    H122350   2.952   4.727   3.971
 7469TIP3    H222351   2.919   4.856   3.900
 7470TIP3   OH222352   2.177   3.355   5.766
 7470TIP3    H122353   2.142   3.285   5.823
 7470TIP3    H222354   2.272   3.355   5.794
 7471TIP3   OH222355   2.428   3.352   5.885
 7471TIP3    H122356   2.513   3.330   5.843
 7471TIP3    H222357   2.419   3.279   5.950
 7472TIP3   OH222358   1.549   4.536   3.939
 7472TIP3    H122359   1.554   4.564   4.031
 7472TIP3    H222360   1.636   4.493   3.925
 7473TIP3   OH222361   3.254   3.413   5.671
 7473TIP3    H122362   3.271   3.386   5.764
 7473TIP3    H222363   3.344   3.409   5.633
 7474TIP3   OH222364   3.189   4.966   5.164
 7474TIP3    H122365   3.110   4.936   5.115
 7474TIP3    H222366   3.171   5.062   5.171
 7475TIP3   OH222367   4.351   5.100   4.011
 7475TIP3    H122368   4.397   5.028   3.964
 7475TIP3    H222369   4.349   5.067   4.101
 7476TIP3   OH222370   5.267   3.886   4.349
 7476TIP3    H122371   5.293   3.967   4.398
 7476TIP3    H222372   5.320   3.895   4.267
 7477TIP3   OH222373   4.010   3.725   4.356
 7477TIP3    H122374   3.990   3.800   4.295
 7477TIP3    H222375   3.963   3.653   4.309
 7478TIP3   OH222376   4.711   3.793   3.974
 7478TIP3    H122377   4.756   3.810   4.059
 7478TIP3    H222378   4.747   3.863   3.918
 7479TIP3   OH222379   5.334   4.090   4.531
 7479TIP3    H122380   5.254   4.147   4.518
 7479TIP3    H222381   5.365   4.122   4.617
 7480TIP3   OH222382   4.003   3.705   4.795
 7480TIP3    H122383   3.947   3.743   4.724
 7480TIP3    H222384   3.948   3.726   4.874
 7481TIP3   OH222385   4.376   4.588   3.774
 7481TIP3    H122386   4.314   4.522   3.743
 7481TIP3    H222387   4.316   4.657   3.808
 7482TIP3   OH222388   4.901   3.826   4.194
 7482TIP3    H122389   4.908   3.730   4.200
 7482TIP3    H222390   4.988   3.853   4.163
 7483TIP3   OH222391   3.876   3.816   4.581
 7483TIP3    H122392   3.928   3.897   4.596
 7483TIP3    H222393   3.919   3.783   4.499
 7484TIP3   OH222394   3.943   4.674   4.700
 7484TIP3    H122395   3.917   4.741   4.635
 7484TIP3    H222396   3.862   4.668   4.754
 7485TIP3   OH222397   3.335   4.381   3.919
 7485TIP3    H122398   3.295   4.409   3.835
 7485TIP3    H222399   3.369   4.466   3.955
 7486TIP3   OH222400   4.780   4.895   4.168
 7486TIP3    H122401   4.688   4.879   4.200
 7486TIP3    H222402   4.767   4.980   4.122
 7487TIP3   OH222403   5.073   3.797   4.534
 7487TIP3    H122404   4.988   3.795   4.489
 7487TIP3    H222405   5.135   3.821   4.461
 7488TIP3   OH222406   4.358   3.424   4.515
 7488TIP3    H122407   4.338   3.330   4.527
 7488TIP3    H222408   4.280   3.465   4.559
 7489TIP3   OH222409   4.471   4.927   3.825
 7489TIP3    H122410   4.525   4.849   3.803
 7489TIP3    H222411   4.531   4.998   3.791
 7490TIP3   OH222412   4.618   4.706   3.739
 7490TIP3    H122413   4.536   4.658   3.715
 7490TIP3    H222414   4.633   4.669   3.826
 7491TIP3   OH222415   5.012   4.798   4.495
 7491TIP3    H122416   4.972   4.735   4.434
 7491TIP3    H222417   4.984   4.883   4.454
 7492TIP3   OH222418   4.294   4.194   3.754
 7492TIP3    H122419   4.210   4.242   3.743
 7492TIP3    H222420   4.329   4.191   3.664
 7493TIP3   OH222421   4.251   3.975   3.475
 7493TIP3    H122422   4.318   4.021   3.528
 7493TIP3    H222423   4.306   3.907   3.432
 7494TIP3   OH222424   4.621   4.284   3.754
 7494TIP3    H122425   4.551   4.310   3.816
 7494TIP3    H222426   4.678   4.232   3.813
 7495TIP3   OH222427   4.529   4.888   4.269
 7495TIP3    H122428   4.522   4.969   4.324
 7495TIP3    H222429   4.505   4.818   4.333
 7496TIP3   OH222430   4.146   4.797   4.832
 7496TIP3    H122431   4.083   4.858   4.876
 7496TIP3    H222432   4.083   4.741   4.782
 7497TIP3   OH222433   4.488   4.130   3.557
 7497TIP3    H122434   4.537   4.197   3.610
 7497TIP3    H222435   4.510   4.158   3.465
 7498TIP3   OH222436   3.897   4.351   4.932
 7498TIP3    H122437   3.903   4.440   4.972
 7498TIP3    H222438   3.803   4.330   4.951
 7499TIP3   OH222439   4.218   4.810   3.839
 7499TIP3    H122440   4.298   4.864   3.849
 7499TIP3    H222441   4.158   4.870   3.792
 7500TIP3   OH222442   3.936   4.962   4.915
 7500TIP3    H122443   3.901   4.963   4.824
 7500TIP3    H222444   3.856   4.943   4.968
 7501TIP3   OH222445   4.991   3.371   3.608
 7501TIP3    H122446   4.909   3.391   3.659
 7501TIP3    H222447   5.004   3.455   3.560
 7502TIP3   OH222448   3.744   4.104   3.917
 7502TIP3    H122449   3.657   4.137   3.885
 7502TIP3    H222450   3.720   4.052   3.995
 7503TIP3   OH222451   4.791   4.734   3.156
 7503TIP3    H122452   4.798   4.831   3.143
 7503TIP3    H222453   4.884   4.707   3.145
 7504TIP3   OH222454   3.517   4.492   4.864
 7504TIP3    H122455   3.466   4.456   4.791
 7504TIP3    H222456   3.558   4.411   4.903
 7505TIP3   OH222457   3.368   4.716   4.475
 7505TIP3    H122458   3.453   4.680   4.502
 7505TIP3    H222459   3.348   4.777   4.547
 7506TIP3   OH222460   5.235   5.144   4.554
 7506TIP3    H122461   5.232   5.048   4.569
 7506TIP3    H222462   5.151   5.171   4.599
 7507TIP3   OH222463   4.340   4.923   4.686
 7507TIP3    H122464   4.338   5.016   4.717
 7507TIP3    H222465   4.269   4.884   4.742
 7508TIP3   OH222466   4.104   5.055   3.639
 7508TIP3    H122467   4.055   5.039   3.556
 7508TIP3    H222468   4.071   5.142   3.666
 7509TIP3   OH222469   3.539   4.905   4.020
 7509TIP3    H122470   3.582   4.899   4.108
 7509TIP3    H222471   3.487   4.823   4.019
 7510TIP3   OH222472   4.301   4.958   3.276
 7510TIP3    H122473   4.361   4.889   3.241
 7510TIP3    H222474   4.336   4.970   3.367
 7511TIP3   OH222475   4.353   5.005   3.545
 7511TIP3    H122476   4.264   5.017   3.585
 7511TIP3    H222477   4.403   4.970   3.621
 7512TIP3   OH222478   5.129   4.274   4.843
 7512TIP3    H122479   5.046   4.297   4.801
 7512TIP3    H222480   5.137   4.179   4.821
 7513TIP3   OH222481   3.714   4.684   4.849
 7513TIP3    H122482   3.768   4.670   4.930
 7513TIP3    H222483   3.643   4.618   4.861
 7514TIP3   OH222484   4.118   3.502   4.636
 7514TIP3    H122485   4.029   3.473   4.608
 7514TIP3    H222486   4.094   3.584   4.683
 7515TIP3   OH222487   4.658   3.601   4.823
 7515TIP3    H122488   4.723   3.591   4.895
 7515TIP3    H222489   4.572   3.601   4.871
 7516TIP3   OH222490   4.544   4.185   3.297
 7516TIP3    H122491   4.535   4.155   3.206
 7516TIP3    H222492   4.631   4.229   3.290
 7517TIP3   OH222493   4.277   3.549   3.607
 7517TIP3    H122494   4.236   3.552   3.695
 7517TIP3    H222495   4.233   3.468   3.573
 7518TIP3   OH222496   4.052   4.028   4.639
 7518TIP3    H122497   3.995   4.051   4.716
 7518TIP3    H222498   4.047   4.109   4.584
 7519TIP3   OH222499   3.937   3.898   4.161
 7519TIP3    H122500   3.843   3.880   4.178
 7519TIP3    H222501   3.945   3.873   4.067
 7520TIP3   OH222502   4.412   3.984   3.890
 7520TIP3    H122503   4.368   4.062   3.850
 7520TIP3    H222504   4.472   3.954   3.820
 7521TIP3   OH222505   4.601   4.287   5.005
 7521TIP3    H122506   4.571   4.201   5.044
 7521TIP3    H222507   4.695   4.268   4.993
 7522TIP3   OH222508   3.879   4.037   4.857
 7522TIP3    H122509   3.893   4.107   4.921
 7522TIP3    H222510   3.867   3.958   4.913
 7523TIP3   OH222511   3.472   3.584   4.431
 7523TIP3    H122512   3.546   3.599   4.493
 7523TIP3    H222513   3.507   3.523   4.364
 7524TIP3   OH222514   3.433   3.544   3.960
 7524TIP3    H122515   3.483   3.582   3.886
 7524TIP3    H222516   3.370   3.616   3.980
 7525TIP3   OH222517   4.262   3.734   4.227
 7525TIP3    H122518   4.181   3.733   4.282
 7525TIP3    H222519   4.332   3.712   4.291
 7526TIP3   OH222520   3.696   3.770   4.205
 7526TIP3    H122521   3.611   3.740   4.239
 7526TIP3    H222522   3.748   3.687   4.203
 7527TIP3   OH222523   3.973   3.800   3.898
 7527TIP3    H122524   4.069   3.796   3.912
 7527TIP3    H222525   3.965   3.783   3.803
 7528TIP3   OH222526   4.928   5.491   4.653
 7528TIP3    H122527   4.924   5.517   4.559
 7528TIP3    H222528   5.007   5.540   4.684
 7529TIP3   OH222529   3.880   4.605   5.068
 7529TIP3    H122530   3.961   4.632   5.115
 7529TIP3    H222531   3.817   4.601   5.143
 7530TIP3   OH222532   3.864   3.546   4.202
 7530TIP3    H122533   3.834   3.464   4.247
 7530TIP3    H222534   3.882   3.514   4.111
 7531TIP3   OH222535   4.314   3.935   4.636
 7531TIP3    H122536   4.224   3.972   4.624
 7531TIP3    H222537   4.369   4.013   4.645
 7532TIP3   OH222538   4.061   4.351   3.721
 7532TIP3    H122539   3.989   4.286   3.703
 7532TIP3    H222540   4.042   4.375   3.814
 7533TIP3   OH222541   4.509   3.672   3.540
 7533TIP3    H122542   4.422   3.637   3.573
 7533TIP3    H222543   4.523   3.752   3.595
 7534TIP3   OH222544   4.462   4.658   4.710
 7534TIP3    H122545   4.478   4.639   4.803
 7534TIP3    H222546   4.421   4.747   4.714
 7535TIP3   OH222547   4.585   3.899   3.681
 7535TIP3    H122548   4.682   3.901   3.697
 7535TIP3    H222549   4.569   3.981   3.632
 7536TIP3   OH222550   4.196   4.487   3.525
 7536TIP3    H122551   4.156   4.576   3.534
 7536TIP3    H222552   4.146   4.437   3.592
 7537TIP3   OH222553   3.632   4.288   5.003
 7537TIP3    H122554   3.656   4.275   5.097
 7537TIP3    H222555   3.572   4.213   4.988
 7538TIP3   OH222556   4.353   4.405   5.018
 7538TIP3    H122557   4.294   4.337   4.981
 7538TIP3    H222558   4.442   4.367   4.998
 7539TIP3   OH222559   4.613   4.963   4.585
 7539TIP3    H122560   4.524   4.930   4.604
 7539TIP3    H222561   4.642   4.989   4.675
 7540TIP3   OH222562   5.024   3.992   3.507
 7540TIP3    H122563   4.959   3.953   3.445
 7540TIP3    H222564   5.027   4.083   3.471
 7541TIP3   OH222565   5.253   4.853   4.595
 7541TIP3    H122566   5.156   4.846   4.584
 7541TIP3    H222567   5.281   4.823   4.506
 7542TIP3   OH222568   4.730   4.813   3.423
 7542TIP3    H122569   4.698   4.746   3.485
 7542TIP3    H222570   4.740   4.763   3.340
 7543TIP3   OH222571   3.836   4.666   4.017
 7543TIP3    H122572   3.849   4.750   3.968
 7543TIP3    H222573   3.742   4.652   4.004
 7544TIP3   OH222574   3.421   3.966   3.716
 7544TIP3    H122575   3.462   4.052   3.738
 7544TIP3    H222576   3.342   3.968   3.774
 7545TIP3   OH222577   3.983   4.428   3.978
 7545TIP3    H122578   3.954   4.521   3.992
 7545TIP3    H222579   3.901   4.379   3.987
 7546TIP3   OH222580   4.121   5.009   4.476
 7546TIP3    H122581   4.165   5.084   4.431
 7546TIP3    H222582   4.196   4.971   4.525
 7547TIP3   OH222583   3.772   4.908   3.866
 7547TIP3    H122584   3.685   4.918   3.910
 7547TIP3    H222585   3.804   5.001   3.867
 7548TIP3   OH222586   4.488   4.678   4.438
 7548TIP3    H122587   4.475   4.666   4.534
 7548TIP3    H222588   4.521   4.592   4.410
 7549TIP3   OH222589   4.485   4.539   3.321
 7549TIP3    H122590   4.537   4.510   3.399
 7549TIP3    H222591   4.395   4.516   3.349
 7550TIP3   OH222592   4.760   5.181   4.493
 7550TIP3    H122593   4.688   5.115   4.501
 7550TIP3    H222594   4.730   5.237   4.418
 7551TIP3   OH222595   4.821   5.012   3.142
 7551TIP3    H122596   4.856   5.085   3.088
 7551TIP3    H222597   4.742   5.056   3.178
 7552TIP3   OH222598   3.842   3.791   5.009
 7552TIP3    H122599   3.745   3.794   5.019
 7552TIP3    H222600   3.868   3.732   5.081
 7553TIP3   OH222601   4.647   4.454   3.527
 7553TIP3    H122602   4.634   4.410   3.613
 7553TIP3    H222603   4.745   4.461   3.524
 7554TIP3   OH222604   3.566   4.869   4.645
 7554TIP3    H122605   3.620   4.806   4.697
 7554TIP3    H222606   3.589   4.952   4.688
 7555TIP3   OH222607   3.851   4.517   3.322
 7555TIP3    H122608   3.860   4.424   3.297
 7555TIP3    H222609   3.827   4.509   3.417
 7556TIP3   OH222610   3.791   4.527   3.593
 7556TIP3    H122611   3.867   4.495   3.644
 7556TIP3    H222612   3.798   4.624   3.603
 7557TIP3   OH222613   3.519   4.216   3.798
 7557TIP3    H122614   3.457   4.264   3.856
 7557TIP3    H222615   3.537   4.284   3.730
 7558TIP3   OH222616   4.568   3.595   3.856
 7558TIP3    H122617   4.541   3.634   3.772
 7558TIP3    H222618   4.614   3.670   3.899
 7559TIP3   OH222619   4.063   4.723   3.544
 7559TIP3    H122620   3.976   4.746   3.581
 7559TIP3    H222621   4.077   4.799   3.486
 7560TIP3   OH222622   4.243   3.780   3.959
 7560TIP3    H122623   4.305   3.855   3.942
 7560TIP3    H222624   4.248   3.773   4.057
 7561TIP3   OH222625   4.391   3.508   4.059
 7561TIP3    H122626   4.389   3.582   4.123
 7561TIP3    H222627   4.451   3.544   3.991
 7562TIP3   OH222628   3.809   4.798   3.614
 7562TIP3    H122629   3.777   4.868   3.551
 7562TIP3    H222630   3.791   4.842   3.700
 7563TIP3   OH222631   3.899   3.491   3.894
 7563TIP3    H122632   3.889   3.575   3.846
 7563TIP3    H222633   3.994   3.476   3.880
 7564TIP3   OH222634   5.131   4.011   4.750
 7564TIP3    H122635   5.063   3.958   4.793
 7564TIP3    H222636   5.148   3.960   4.669
 7565TIP3   OH222637   3.525   4.423   3.601
 7565TIP3    H122638   3.595   4.490   3.609
 7565TIP3    H222639   3.568   4.364   3.536
 7566TIP3   OH222640   3.465   3.691   3.705
 7566TIP3    H122641   3.473   3.787   3.723
 7566TIP3    H222642   3.368   3.681   3.706
 7567TIP3   OH222643   4.779   5.159   4.080
 7567TIP3    H122644   4.736   5.206   4.005
 7567TIP3    H222645   4.873   5.176   4.059
 7568TIP3   OH222646   3.852   3.425   4.609
 7568TIP3    H122647   3.822   3.391   4.522
 7568TIP3    H222648   3.842   3.346   4.666
 7569TIP3   OH222649   3.395   4.649   3.990
 7569TIP3    H122650   3.332   4.672   4.059
 7569TIP3    H222651   3.354   4.689   3.910
 7570TIP3   OH222652   3.553   5.190   5.063
 7570TIP3    H122653   3.639   5.191   5.110
 7570TIP3    H222654   3.535   5.094   5.061
 7571TIP3   OH222655   4.026   5.146   5.106
 7571TIP3    H122656   4.122   5.131   5.115
 7571TIP3    H222657   4.004   5.083   5.034
 7572TIP3   OH222658   4.011   4.721   3.233
 7572TIP3    H122659   3.954   4.651   3.271
 7572TIP3    H222660   4.087   4.668   3.205
 7573TIP3   OH222661   4.673   5.052   4.840
 7573TIP3    H122662   4.663   4.984   4.911
 7573TIP3    H222663   4.747   5.106   4.872
 7574TIP3   OH222664   4.448   4.763   3.148
 7574TIP3    H122665   4.491   4.699   3.208
 7574TIP3    H222666   4.505   4.760   3.069
 7575TIP3   OH222667   3.681   4.592   5.263
 7575TIP3    H122668   3.698   4.496   5.272
 7575TIP3    H222669   3.593   4.592   5.219
 7576TIP3   OH222670   3.661   4.237   3.458
 7576TIP3    H122671   3.715   4.205   3.533
 7576TIP3    H222672   3.730   4.242   3.389
 7577TIP3   OH222673   4.289   4.679   5.037
 7577TIP3    H122674   4.245   4.700   4.952
 7577TIP3    H222675   4.314   4.585   5.026
 7578TIP3   OH222676   4.174   4.439   3.259
 7578TIP3    H122677   4.172   4.451   3.356
 7578TIP3    H222678   4.163   4.342   3.252
 7579TIP3   OH222679   3.800   4.329   5.243
 7579TIP3    H122680   3.874   4.271   5.220
 7579TIP3    H222681   3.827   4.359   5.332
 7580TIP3   OH222682   3.861   4.171   3.679
 7580TIP3    H122683   3.830   4.131   3.764
 7580TIP3    H222684   3.899   4.093   3.632
 7581TIP3   OH222685   4.141   4.217   4.908
 7581TIP3    H122686   4.057   4.267   4.908
 7581TIP3    H222687   4.183   4.249   4.825
 7582TIP3   OH222688   3.973   3.973   3.528
 7582TIP3    H122689   3.943   3.883   3.512
 7582TIP3    H222690   4.069   3.967   3.511
 7583TIP3   OH222691   4.655   4.611   5.038
 7583TIP3    H122692   4.736   4.575   5.002
 7583TIP3    H222693   4.631   4.542   5.102
 7584TIP3   OH222694   4.785   4.257   3.173
 7584TIP3    H122695   4.824   4.226   3.090
 7584TIP3    H222696   4.748   4.345   3.146
 7585TIP3   OH222697   4.257   3.999   5.031
 7585TIP3    H122698   4.255   3.918   4.976
 7585TIP3    H222699   4.212   4.064   4.973
 7586TIP3   OH222700   4.258   3.779   4.853
 7586TIP3    H122701   4.287   3.825   4.770
 7586TIP3    H222702   4.165   3.757   4.831
 7587TIP3   OH222703   4.279   4.322   4.700
 7587TIP3    H122704   4.358   4.298   4.650
 7587TIP3    H222705   4.251   4.404   4.656
 7588TIP3   OH222706   4.886   4.288   5.113
 7588TIP3    H122707   4.896   4.196   5.083
 7588TIP3    H222708   4.949   4.335   5.058
 7589TIP3   OH222709   4.913   4.549   4.838
 7589TIP3    H122710   4.847   4.590   4.781
 7589TIP3    H222711   4.996   4.569   4.790
 7590TIP3   OH222712   4.139   4.105   5.265
 7590TIP3    H122713   4.070   4.037   5.281
 7590TIP3    H222714   4.170   4.079   5.176
 7591TIP3   OH222715   4.392   3.545   4.911
 7591TIP3    H122716   4.342   3.627   4.890
 7591TIP3    H222717   4.322   3.477   4.899
 7592TIP3   OH222718   4.518   4.049   5.115
 7592TIP3    H122719   4.503   4.036   5.211
 7592TIP3    H222720   4.428   4.026   5.082
 7593TIP3   OH222721   4.784   4.038   4.989
 7593TIP3    H122722   4.694   4.016   5.020
 7593TIP3    H222723   4.839   3.973   5.035
 7594TIP3   OH222724   5.016   3.944   5.137
 7594TIP3    H122725   5.014   3.847   5.153
 7594TIP3    H222726   4.995   3.980   5.225
 7595TIP3   OH222727   3.976   3.887   5.318
 7595TIP3    H122728   3.978   3.795   5.284
 7595TIP3    H222729   4.014   3.874   5.408
 7596TIP3   OH222730   4.488   3.557   5.167
 7596TIP3    H122731   4.552   3.483   5.159
 7596TIP3    H222732   4.447   3.554   5.078
 7597TIP3   OH222733   4.555   3.772   5.324
 7597TIP3    H122734   4.532   3.701   5.260
 7597TIP3    H222735   4.476   3.831   5.318
 7598TIP3   OH222736   3.776   5.000   3.426
 7598TIP3    H122737   3.871   4.993   3.405
 7598TIP3    H222738   3.746   5.052   3.348
 7599TIP3   OH222739   3.255   4.385   3.637
 7599TIP3    H122740   3.351   4.404   3.623
 7599TIP3    H222741   3.248   4.295   3.598
 7600TIP3   OH222742   3.170   4.994   4.056
 7600TIP3    H122743   3.103   4.933   4.018
 7600TIP3    H222744   3.214   4.934   4.120
 7601TIP3   OH222745   3.304   4.842   4.239
 7601TIP3    H122746   3.292   4.771   4.306
 7601TIP3    H222747   3.355   4.904   4.295
 7602TIP3   OH222748   5.037   5.237   4.044
 7602TIP3    H122749   5.056   5.272   4.133
 7602TIP3    H222750   5.092   5.293   3.988
 7603TIP3   OH222751   5.062   5.265   4.323
 7603TIP3    H122752   5.015   5.179   4.324
 7603TIP3    H222753   5.134   5.244   4.384
 7604TIP3   OH222754   5.110   4.939   4.899
 7604TIP3    H122755   5.036   4.950   4.962
 7604TIP3    H222756   5.150   5.028   4.901
 7605TIP3   OH222757   4.930   4.454   3.523
 7605TIP3    H122758   4.988   4.521   3.480
 7605TIP3    H222759   4.975   4.443   3.607
 7606TIP3   OH222760   5.130   4.716   4.160
 7606TIP3    H122761   5.132   4.638   4.104
 7606TIP3    H222762   5.109   4.788   4.099
 7607TIP3   OH222763   4.936   5.021   4.353
 7607TIP3    H122764   4.864   5.064   4.404
 7607TIP3    H222765   4.886   4.974   4.283
 7608TIP3   OH222766   4.986   4.234   3.363
 7608TIP3    H122767   4.913   4.230   3.299
 7608TIP3    H222768   4.958   4.311   3.417
 7609TIP3   OH222769   4.850   3.907   3.316
 7609TIP3    H122770   4.819   3.934   3.229
 7609TIP3    H222771   4.832   3.811   3.314
 7610TIP3   OH222772   5.153   4.604   4.718
 7610TIP3    H122773   5.226   4.538   4.708
 7610TIP3    H222774   5.180   4.674   4.657
 7611TIP3   OH222775   5.338   4.406   4.733
 7611TIP3    H122776   5.266   4.359   4.780
 7611TIP3    H222777   5.412   4.343   4.749
 7612TIP3   OH222778   4.804   3.639   3.293
 7612TIP3    H122779   4.879   3.610   3.349
 7612TIP3    H222780   4.731   3.581   3.321
 7613TIP3   OH222781   4.858   3.896   3.739
 7613TIP3    H122782   4.894   3.807   3.761
 7613TIP3    H222783   4.928   3.929   3.680
 7614TIP3   OH222784   5.100   4.241   4.491
 7614TIP3    H122785   5.008   4.227   4.515
 7614TIP3    H222786   5.092   4.280   4.403
 7615TIP3   OH222787   3.712   3.945   5.294
 7615TIP3    H122788   3.809   3.935   5.294
 7615TIP3    H222789   3.685   3.856   5.326
 7616TIP3   OH222790   5.544   3.810   5.039
 7616TIP3    H122791   5.604   3.743   5.000
 7616TIP3    H222792   5.516   3.860   4.960
 7617TIP3   OH222793   4.970   3.648   3.797
 7617TIP3    H122794   5.018   3.628   3.880
 7617TIP3    H222795   4.905   3.575   3.795
 7618TIP3   OH222796   3.667   3.636   4.622
 7618TIP3    H122797   3.730   3.562   4.631
 7618TIP3    H222798   3.730   3.710   4.608
 7619TIP3   OH222799   5.409   3.945   4.843
 7619TIP3    H122800   5.330   3.986   4.883
 7619TIP3    H222801   5.370   3.873   4.790
 7620TIP3   OH222802   5.044   3.582   3.427
 7620TIP3    H122803   5.089   3.510   3.378
 7620TIP3    H222804   5.115   3.649   3.433
 7621TIP3   OH222805   3.456   3.409   4.196
 7621TIP3    H122806   3.363   3.401   4.224
 7621TIP3    H222807   3.448   3.466   4.117
 7622TIP3   OH222808   4.618   5.112   3.698
 7622TIP3    H122809   4.670   5.106   3.615
 7622TIP3    H222810   4.665   5.182   3.746
 7623TIP3   OH222811   3.681   3.486   5.010
 7623TIP3    H122812   3.628   3.480   5.091
 7623TIP3    H222813   3.614   3.523   4.948
 7624TIP3   OH222814   3.715   4.920   5.080
 7624TIP3    H122815   3.622   4.893   5.067
 7624TIP3    H222816   3.729   4.898   5.173
 7625TIP3   OH222817   3.893   4.954   4.629
 7625TIP3    H122818   3.851   5.033   4.590
 7625TIP3    H222819   3.980   4.961   4.587
 7626TIP3   OH222820   4.335   5.193   4.765
 7626TIP3    H122821   4.377   5.191   4.854
 7626TIP3    H222822   4.401   5.245   4.715
 7627TIP3   OH222823   4.516   5.348   4.628
 7627TIP3    H122824   4.585   5.293   4.588
 7627TIP3    H222825   4.569   5.404   4.689
 7628TIP3   OH222826   5.311   3.702   4.730
 7628TIP3    H122827   5.222   3.683   4.696
 7628TIP3    H222828   5.352   3.613   4.721
 7629TIP3   OH222829   3.569   5.203   4.656
 7629TIP3    H122830   3.479   5.236   4.634
 7629TIP3    H222831   3.585   5.250   4.739
 7630TIP3   OH222832   3.806   5.187   4.512
 7630TIP3    H122833   3.719   5.197   4.556
 7630TIP3    H222834   3.787   5.220   4.422
 7631TIP3   OH222835   4.231   5.214   4.310
 7631TIP3    H122836   4.161   5.235   4.245
 7631TIP3    H222837   4.244   5.300   4.354
 7632TIP3   OH222838   4.501   5.155   4.355
 7632TIP3    H122839   4.406   5.174   4.340
 7632TIP3    H222840   4.544   5.233   4.319
 7633TIP3   OH222841   4.706   5.343   4.275
 7633TIP3    H122842   4.694   5.428   4.227
 7633TIP3    H222843   4.733   5.282   4.203
 7634TIP3   OH222844   3.481   5.004   4.401
 7634TIP3    H122845   3.506   4.972   4.490
 7634TIP3    H222846   3.551   4.961   4.348
 7635TIP3   OH222847   3.681   4.881   4.257
 7635TIP3    H122848   3.706   4.805   4.310
 7635TIP3    H222849   3.767   4.928   4.250
 7636TIP3   OH222850   3.943   4.974   4.261
 7636TIP3    H122851   3.996   4.900   4.228
 7636TIP3    H222852   3.988   4.990   4.347
 7637TIP3   OH222853   4.488   3.610   4.334
 7637TIP3    H122854   4.458   3.547   4.402
 7637TIP3    H222855   4.580   3.584   4.320
 7638TIP3   OH222856   5.047   3.516   4.253
 7638TIP3    H122857   5.080   3.558   4.171
 7638TIP3    H222858   4.950   3.511   4.238
 7639TIP3   OH222859   5.146   3.619   4.013
 7639TIP3    H122860   5.208   3.551   3.976
 7639TIP3    H222861   5.199   3.699   3.997
 7640TIP3   OH222862   3.767   3.329   4.361
 7640TIP3    H122863   3.675   3.294   4.365
 7640TIP3    H222864   3.816   3.245   4.356
 7641TIP3   OH222865   3.555   3.203   4.014
 7641TIP3    H122866   3.584   3.263   3.942
 7641TIP3    H222867   3.526   3.266   4.082
 7642TIP3   OH222868   4.220   3.354   4.244
 7642TIP3    H122869   4.270   3.410   4.183
 7642TIP3    H222870   4.227   3.404   4.327
 7643TIP3   OH222871   4.776   3.511   4.220
 7643TIP3    H122872   4.737   3.480   4.137
 7643TIP3    H222873   4.754   3.435   4.280
 7644TIP3   OH222874   4.787   3.436   3.790
 7644TIP3    H122875   4.702   3.481   3.808
 7644TIP3    H222876   4.771   3.349   3.833
 7645TIP3   OH222877   3.269   4.774   3.787
 7645TIP3    H122878   3.184   4.741   3.753
 7645TIP3    H222879   3.260   4.868   3.764
 7646TIP3   OH222880   3.677   3.363   3.785
 7646TIP3    H122881   3.731   3.302   3.731
 7646TIP3    H222882   3.747   3.415   3.830
 7647TIP3   OH222883   4.186   3.532   3.867
 7647TIP3    H122884   4.241   3.487   3.934
 7647TIP3    H222885   4.201   3.625   3.895
 7648TIP3   OH222886   4.043   4.956   3.373
 7648TIP3    H122887   4.130   4.980   3.335
 7648TIP3    H222888   4.020   4.882   3.312
 7649TIP3   OH222889   4.764   5.081   3.465
 7649TIP3    H122890   4.755   4.983   3.454
 7649TIP3    H222891   4.716   5.112   3.386
 7650TIP3   OH222892   3.973   3.612   5.254
 7650TIP3    H122893   3.937   3.541   5.310
 7650TIP3    H222894   4.067   3.611   5.283
 7651TIP3   OH222895   4.224   3.608   5.374
 7651TIP3    H122896   4.308   3.580   5.335
 7651TIP3    H222897   4.209   3.538   5.441
 7652TIP3   OH222898   3.345   4.796   3.426
 7652TIP3    H122899   3.346   4.816   3.521
 7652TIP3    H222900   3.433   4.753   3.413
 7653TIP3   OH222901   5.051   3.670   5.161
 7653TIP3    H122902   5.068   3.639   5.253
 7653TIP3    H222903   5.141   3.664   5.122
 7654TIP3   OH222904   4.988   5.222   4.650
 7654TIP3    H122905   4.908   5.193   4.601
 7654TIP3    H222906   4.968   5.318   4.658
 7655TIP3   OH222907   6.492   4.901   3.484
 7655TIP3    H122908   6.471   4.828   3.544
 7655TIP3    H222909   6.530   4.967   3.544
 7656TIP3   OH222910   5.527   4.902   3.883
 7656TIP3    H122911   5.488   4.817   3.858
 7656TIP3    H222912   5.588   4.881   3.955
 7657TIP3   OH222913   6.127   5.334   3.500
 7657TIP3    H122914   6.193   5.277   3.454
 7657TIP3    H222915   6.163   5.337   3.590
 7658TIP3   OH222916   7.075   4.139   3.847
 7658TIP3    H122917   7.099   4.225   3.887
 7658TIP3    H222918   7.074   4.161   3.753
 7659TIP3   OH222919   5.801   3.980   3.854
 7659TIP3    H122920   5.778   4.050   3.788
 7659TIP3    H222921   5.761   3.904   3.806
 7660TIP3   OH222922   6.506   4.039   3.459
 7660TIP3    H122923   6.568   4.040   3.535
 7660TIP3    H222924   6.527   4.124   3.420
 7661TIP3   OH222925   7.143   4.353   4.013
 7661TIP3    H122926   7.057   4.395   3.990
 7661TIP3    H222927   7.148   4.376   4.107
 7662TIP3   OH222928   5.804   3.954   4.296
 7662TIP3    H122929   5.752   3.992   4.222
 7662TIP3    H222930   5.747   3.981   4.371
 7663TIP3   OH222931   6.157   4.840   3.235
 7663TIP3    H122932   6.143   4.744   3.250
 7663TIP3    H222933   6.096   4.881   3.297
 7664TIP3   OH222934   5.893   4.741   4.079
 7664TIP3    H122935   5.833   4.808   4.118
 7664TIP3    H222936   5.963   4.796   4.041
 7665TIP3   OH222937   6.705   4.075   3.648
 7665TIP3    H122938   6.673   4.048   3.736
 7665TIP3    H222939   6.748   4.160   3.670
 7666TIP3   OH222940   5.684   4.064   4.084
 7666TIP3    H122941   5.739   4.145   4.096
 7666TIP3    H222942   5.724   4.030   4.000
 7667TIP3   OH222943   5.721   4.940   4.155
 7667TIP3    H122944   5.705   5.035   4.136
 7667TIP3    H222945   5.649   4.924   4.220
 7668TIP3   OH222946   5.117   4.627   3.412
 7668TIP3    H122947   5.086   4.659   3.326
 7668TIP3    H222948   5.154   4.710   3.451
 7669TIP3   OH222949   6.558   5.144   3.652
 7669TIP3    H122950   6.466   5.133   3.685
 7669TIP3    H222951   6.553   5.230   3.607
 7670TIP3   OH222952   6.856   4.046   4.011
 7670TIP3    H122953   6.765   4.056   3.976
 7670TIP3    H222954   6.910   4.078   3.937
 7671TIP3   OH222955   6.153   3.679   3.998
 7671TIP3    H122956   6.132   3.585   4.009
 7671TIP3    H222957   6.075   3.721   4.040
 7672TIP3   OH222958   6.268   5.183   3.322
 7672TIP3    H122959   6.323   5.104   3.302
 7672TIP3    H222960   6.319   5.249   3.269
 7673TIP3   OH222961   6.414   4.974   3.230
 7673TIP3    H122962   6.348   4.905   3.210
 7673TIP3    H222963   6.456   4.938   3.312
 7674TIP3   OH222964   6.792   5.051   3.991
 7674TIP3    H122965   6.779   4.974   3.932
 7674TIP3    H222966   6.776   5.126   3.930
 7675TIP3   OH222967   6.102   4.526   3.209
 7675TIP3    H122968   6.011   4.511   3.183
 7675TIP3    H222969   6.151   4.459   3.158
 7676TIP3   OH222970   6.044   4.235   2.966
 7676TIP3    H122971   6.117   4.282   3.011
 7676TIP3    H222972   6.096   4.169   2.916
 7677TIP3   OH222973   6.988   4.695   3.838
 7677TIP3    H122974   6.902   4.743   3.842
 7677TIP3    H222975   7.016   4.718   3.747
 7678TIP3   OH222976   6.421   4.534   3.228
 7678TIP3    H122977   6.360   4.544   3.303
 7678TIP3    H222978   6.503   4.507   3.273
 7679TIP3   OH222979   6.679   4.567   4.139
 7679TIP3    H122980   6.667   4.653   4.183
 7679TIP3    H222981   6.590   4.557   4.097
 7680TIP3   OH222982   6.305   5.136   3.760
 7680TIP3    H122983   6.311   5.215   3.817
 7680TIP3    H222984   6.314   5.063   3.826
 7681TIP3   OH222985   5.937   5.053   4.314
 7681TIP3    H122986   5.879   5.115   4.363
 7681TIP3    H222987   5.871   5.001   4.266
 7682TIP3   OH222988   6.276   4.380   3.047
 7682TIP3    H122989   6.330   4.444   3.099
 7682TIP3    H222990   6.304   4.403   2.955
 7683TIP3   OH222991   5.693   4.610   4.420
 7683TIP3    H122992   5.696   4.697   4.464
 7683TIP3    H222993   5.597   4.590   4.425
 7684TIP3   OH222994   6.010   5.104   3.292
 7684TIP3    H122995   6.100   5.129   3.323
 7684TIP3    H222996   5.952   5.152   3.355
 7685TIP3   OH222997   5.732   5.217   4.403
 7685TIP3    H122998   5.694   5.226   4.314
 7685TIP3    H222999   5.653   5.198   4.458
 7686TIP3   OH223000   6.787   3.626   3.096
 7686TIP3    H123001   6.706   3.648   3.147
 7686TIP3    H223002   6.802   3.711   3.049
 7687TIP3   OH223003   5.540   4.338   3.392
 7687TIP3    H123004   5.473   4.404   3.368
 7687TIP3    H223005   5.504   4.302   3.473
 7688TIP3   OH223006   6.588   4.995   2.645
 7688TIP3    H123007   6.598   5.091   2.630
 7688TIP3    H223008   6.681   4.964   2.632
 7689TIP3   OH223009   5.318   4.754   4.353
 7689TIP3    H123010   5.246   4.739   4.287
 7689TIP3    H223011   5.344   4.663   4.376
 7690TIP3   OH223012   5.162   4.954   3.977
 7690TIP3    H123013   5.258   4.962   3.985
 7690TIP3    H223014   5.132   5.031   4.029
 7691TIP3   OH223015   7.022   5.398   4.034
 7691TIP3    H123016   7.023   5.302   4.053
 7691TIP3    H223017   6.941   5.425   4.084
 7692TIP3   OH223018   6.130   5.186   4.169
 7692TIP3    H123019   6.132   5.278   4.205
 7692TIP3    H223020   6.063   5.145   4.227
 7693TIP3   OH223021   5.906   5.309   3.094
 7693TIP3    H123022   5.814   5.307   3.065
 7693TIP3    H223023   5.912   5.402   3.123
 7694TIP3   OH223024   5.337   5.158   3.508
 7694TIP3    H123025   5.384   5.148   3.593
 7694TIP3    H223026   5.286   5.075   3.506
 7695TIP3   OH223027   6.917   4.527   4.313
 7695TIP3    H123028   6.835   4.539   4.262
 7695TIP3    H223029   6.933   4.431   4.300
 7696TIP3   OH223030   5.517   4.936   4.332
 7696TIP3    H123031   5.565   4.925   4.417
 7696TIP3    H223032   5.443   4.873   4.342
 7697TIP3   OH223033   5.912   3.754   4.123
 7697TIP3    H123034   5.822   3.731   4.094
 7697TIP3    H223035   5.894   3.838   4.168
 7698TIP3   OH223036   6.435   3.883   4.310
 7698TIP3    H123037   6.480   3.899   4.394
 7698TIP3    H223038   6.345   3.858   4.340
 7699TIP3   OH223039   6.692   4.303   4.241
 7699TIP3    H123040   6.634   4.300   4.321
 7699TIP3    H223041   6.666   4.388   4.200
 7700TIP3   OH223042   6.347   4.432   2.790
 7700TIP3    H123043   6.314   4.409   2.701
 7700TIP3    H223044   6.430   4.478   2.767
 7701TIP3   OH223045   6.056   3.810   3.097
 7701TIP3    H123046   6.027   3.805   3.190
 7701TIP3    H223047   6.018   3.727   3.063
 7702TIP3   OH223048   5.841   4.285   4.128
 7702TIP3    H123049   5.792   4.307   4.210
 7702TIP3    H223050   5.845   4.369   4.080
 7703TIP3   OH223051   5.713   4.120   3.644
 7703TIP3    H123052   5.627   4.159   3.628
 7703TIP3    H223053   5.737   4.083   3.558
 7704TIP3   OH223054   6.397   4.524   4.470
 7704TIP3    H123055   6.376   4.450   4.531
 7704TIP3    H223056   6.492   4.536   4.490
 7705TIP3   OH223057   5.669   4.296   4.343
 7705TIP3    H123058   5.693   4.368   4.403
 7705TIP3    H223059   5.663   4.219   4.402
 7706TIP3   OH223060   5.714   3.782   3.058
 7706TIP3    H123061   5.707   3.779   3.155
 7706TIP3    H223062   5.637   3.838   3.036
 7707TIP3   OH223063   5.227   3.805   3.450
 7707TIP3    H123064   5.275   3.844   3.375
 7707TIP3    H223065   5.168   3.880   3.474
 7708TIP3   OH223066   6.425   4.516   4.047
 7708TIP3    H123067   6.386   4.490   3.963
 7708TIP3    H223068   6.376   4.460   4.111
 7709TIP3   OH223069   6.056   3.946   3.722
 7709TIP3    H123070   5.975   3.969   3.772
 7709TIP3    H223071   6.125   3.988   3.775
 7710TIP3   OH223072   5.775   4.029   3.391
 7710TIP3    H123073   5.840   4.094   3.361
 7710TIP3    H223074   5.704   4.044   3.324
 7711TIP3   OH223075   6.575   4.041   3.925
 7711TIP3    H123076   6.527   4.086   3.997
 7711TIP3    H223077   6.500   3.999   3.880
 7712TIP3   OH223078   5.605   4.061   3.188
 7712TIP3    H123079   5.530   4.023   3.140
 7712TIP3    H223080   5.656   4.101   3.114
 7713TIP3   OH223081   6.724   5.749   4.140
 7713TIP3    H123082   6.722   5.776   4.046
 7713TIP3    H223083   6.801   5.798   4.173
 7714TIP3   OH223084   5.678   4.859   4.558
 7714TIP3    H123085   5.758   4.888   4.606
 7714TIP3    H223086   5.613   4.861   4.631
 7715TIP3   OH223087   5.689   3.787   3.698
 7715TIP3    H123088   5.634   3.720   3.744
 7715TIP3    H223089   5.721   3.739   3.621
 7716TIP3   OH223090   6.112   4.190   4.139
 7716TIP3    H123091   6.032   4.237   4.108
 7716TIP3    H223092   6.177   4.262   4.150
 7717TIP3   OH223093   5.827   4.616   3.199
 7717TIP3    H123094   5.767   4.541   3.175
 7717TIP3    H223095   5.815   4.619   3.295
 7718TIP3   OH223096   6.749   4.834   3.823
 7718TIP3    H123097   6.773   4.885   3.743
 7718TIP3    H223098   6.664   4.793   3.799
 7719TIP3   OH223099   6.306   3.909   3.040
 7719TIP3    H123100   6.213   3.893   3.068
 7719TIP3    H223101   6.327   3.998   3.077
 7720TIP3   OH223102   6.244   4.917   4.192
 7720TIP3    H123103   6.284   4.894   4.277
 7720TIP3    H223104   6.215   5.008   4.205
 7721TIP3   OH223105   6.395   4.143   3.144
 7721TIP3    H123106   6.484   4.161   3.179
 7721TIP3    H223107   6.362   4.232   3.122
 7722TIP3   OH223108   5.971   4.748   3.000
 7722TIP3    H123109   5.963   4.836   3.037
 7722TIP3    H223110   5.935   4.693   3.072
 7723TIP3   OH223111   5.427   4.538   4.494
 7723TIP3    H123112   5.464   4.550   4.584
 7723TIP3    H223113   5.378   4.456   4.506
 7724TIP3   OH223114   6.157   4.658   4.507
 7724TIP3    H123115   6.097   4.602   4.454
 7724TIP3    H223116   6.244   4.622   4.479
 7725TIP3   OH223117   6.411   5.197   4.082
 7725TIP3    H123118   6.317   5.183   4.100
 7725TIP3    H223119   6.440   5.237   4.167
 7726TIP3   OH223120   6.823   4.250   2.998
 7726TIP3    H123121   6.761   4.207   2.934
 7726TIP3    H223122   6.819   4.341   2.961
 7727TIP3   OH223123   7.042   5.110   4.081
 7727TIP3    H123124   6.944   5.103   4.073
 7727TIP3    H223125   7.068   5.079   3.991
 7728TIP3   OH223126   6.520   5.069   2.910
 7728TIP3    H123127   6.497   4.999   2.973
 7728TIP3    H223128   6.533   5.020   2.827
 7729TIP3   OH223129   6.491   4.678   3.731
 7729TIP3    H123130   6.398   4.654   3.709
 7729TIP3    H223131   6.526   4.588   3.728
 7730TIP3   OH223132   5.211   4.230   3.202
 7730TIP3    H123133   5.260   4.312   3.225
 7730TIP3    H223134   5.136   4.235   3.265
 7731TIP3   OH223135   5.930   5.250   3.961
 7731TIP3    H123136   5.961   5.333   3.922
 7731TIP3    H223137   6.005   5.226   4.019
 7732TIP3   OH223138   5.558   5.184   3.322
 7732TIP3    H123139   5.486   5.167   3.386
 7732TIP3    H223140   5.583   5.276   3.344
 7733TIP3   OH223141   6.333   4.918   3.928
 7733TIP3    H123142   6.304   4.903   4.020
 7733TIP3    H223143   6.377   4.834   3.907
 7734TIP3   OH223144   6.279   4.803   2.811
 7734TIP3    H123145   6.335   4.775   2.887
 7734TIP3    H223146   6.194   4.763   2.836
 7735TIP3   OH223147   6.555   5.435   3.978
 7735TIP3    H123148   6.479   5.373   3.979
 7735TIP3    H223149   6.533   5.496   3.905
 7736TIP3   OH223150   6.620   5.270   2.628
 7736TIP3    H123151   6.655   5.343   2.574
 7736TIP3    H223152   6.539   5.313   2.662
 7737TIP3   OH223153   5.639   4.048   4.500
 7737TIP3    H123154   5.542   4.045   4.508
 7737TIP3    H223155   5.667   3.987   4.571
 7738TIP3   OH223156   6.442   4.724   3.017
 7738TIP3    H123157   6.426   4.668   3.095
 7738TIP3    H223158   6.540   4.721   3.013
 7739TIP3   OH223159   5.362   5.127   4.125
 7739TIP3    H123160   5.410   5.062   4.179
 7739TIP3    H223161   5.373   5.207   4.178
 7740TIP3   OH223162   5.642   4.775   2.809
 7740TIP3    H123163   5.656   4.683   2.782
 7740TIP3    H223164   5.623   4.764   2.904
 7741TIP3   OH223165   5.589   4.781   3.081
 7741TIP3    H123166   5.647   4.744   3.148
 7741TIP3    H223167   5.600   4.878   3.096
 7742TIP3   OH223168   5.317   4.477   3.287
 7742TIP3    H123169   5.255   4.523   3.347
 7742TIP3    H223170   5.333   4.548   3.221
 7743TIP3   OH223171   6.470   4.131   4.182
 7743TIP3    H123172   6.561   4.153   4.206
 7743TIP3    H223173   6.458   4.041   4.219
 7744TIP3   OH223174   6.356   3.852   3.338
 7744TIP3    H123175   6.347   3.888   3.248
 7744TIP3    H223176   6.406   3.925   3.382
 7745TIP3   OH223177   5.873   5.027   3.001
 7745TIP3    H123178   5.781   5.026   3.030
 7745TIP3    H223179   5.859   5.009   2.904
 7746TIP3   OH223180   6.313   4.364   4.244
 7746TIP3    H123181   6.342   4.409   4.325
 7746TIP3    H223182   6.364   4.280   4.245
 7747TIP3   OH223183   6.182   3.767   3.544
 7747TIP3    H123184   6.165   3.841   3.606
 7747TIP3    H223185   6.250   3.807   3.484
 7748TIP3   OH223186   5.625   5.052   3.097
 7748TIP3    H123187   5.591   5.121   3.035
 7748TIP3    H223188   5.596   5.091   3.183
 7749TIP3   OH223189   5.703   3.762   3.333
 7749TIP3    H123190   5.706   3.853   3.370
 7749TIP3    H223191   5.797   3.739   3.342
 7750TIP3   OH223192   6.958   4.259   4.230
 7750TIP3    H123193   6.861   4.261   4.242
 7750TIP3    H223194   6.961   4.210   4.146
 7751TIP3   OH223195   5.318   4.683   3.088
 7751TIP3    H123196   5.388   4.750   3.100
 7751TIP3    H223197   5.364   4.625   3.023
 7752TIP3   OH223198   5.264   3.960   3.224
 7752TIP3    H123199   5.266   4.058   3.221
 7752TIP3    H223200   5.179   3.939   3.184
 7753TIP3   OH223201   6.573   5.412   3.566
 7753TIP3    H123202   6.534   5.457   3.489
 7753TIP3    H223203   6.668   5.431   3.550
 7754TIP3   OH223204   5.636   3.687   4.099
 7754TIP3    H123205   5.615   3.653   4.009
 7754TIP3    H223206   5.633   3.605   4.152
 7755TIP3   OH223207   5.177   4.893   3.477
 7755TIP3    H123208   5.108   4.934   3.532
 7755TIP3    H223209   5.159   4.935   3.390
 7756TIP3   OH223210   5.349   5.446   4.549
 7756TIP3    H123211   5.434   5.448   4.597
 7756TIP3    H223212   5.329   5.351   4.550
 7757TIP3   OH223213   5.823   5.400   4.597
 7757TIP3    H123214   5.919   5.390   4.603
 7757TIP3    H223215   5.802   5.339   4.524
 7758TIP3   OH223216   5.821   4.970   2.740
 7758TIP3    H123217   5.757   4.896   2.759
 7758TIP3    H223218   5.889   4.924   2.689
 7759TIP3   OH223219   6.465   5.310   4.328
 7759TIP3    H123220   6.459   5.241   4.398
 7759TIP3    H223221   6.542   5.362   4.358
 7760TIP3   OH223222   6.231   5.025   2.625
 7760TIP3    H123223   6.273   4.973   2.697
 7760TIP3    H223224   6.298   5.020   2.554
 7761TIP3   OH223225   5.479   4.849   4.752
 7761TIP3    H123226   5.492   4.753   4.759
 7761TIP3    H223227   5.392   4.853   4.707
 7762TIP3   OH223228   5.455   4.495   2.945
 7762TIP3    H123229   5.510   4.462   3.018
 7762TIP3    H223230   5.523   4.501   2.874
 7763TIP3   OH223231   6.083   4.932   4.523
 7763TIP3    H123232   6.045   4.951   4.435
 7763TIP3    H223233   6.116   4.840   4.514
 7764TIP3   OH223234   5.966   4.690   2.739
 7764TIP3    H123235   5.962   4.707   2.836
 7764TIP3    H223236   5.969   4.591   2.739
 7765TIP3   OH223237   6.578   4.948   4.138
 7765TIP3    H123238   6.654   4.990   4.092
 7765TIP3    H223239   6.505   5.002   4.103
 7766TIP3   OH223240   5.595   4.584   4.727
 7766TIP3    H123241   5.674   4.536   4.699
 7766TIP3    H223242   5.623   4.616   4.815
 7767TIP3   OH223243   5.664   4.403   3.160
 7767TIP3    H123244   5.626   4.369   3.244
 7767TIP3    H223245   5.696   4.320   3.118
 7768TIP3   OH223246   5.927   4.463   4.395
 7768TIP3    H123247   5.851   4.524   4.394
 7768TIP3    H223248   5.982   4.497   4.321
 7769TIP3   OH223249   5.764   4.193   3.005
 7769TIP3    H123250   5.738   4.202   2.911
 7769TIP3    H223251   5.862   4.197   2.998
 7770TIP3   OH223252   6.449   4.868   4.526
 7770TIP3    H123253   6.525   4.838   4.475
 7770TIP3    H223254   6.444   4.801   4.597
 7771TIP3   OH223255   6.583   4.526   2.670
 7771TIP3    H123256   6.561   4.481   2.586
 7771TIP3    H223257   6.548   4.616   2.650
 7772TIP3   OH223258   6.056   4.257   4.519
 7772TIP3    H123259   6.056   4.176   4.464
 7772TIP3    H223260   6.012   4.321   4.460
 7773TIP3   OH223261   6.057   4.034   4.349
 7773TIP3    H123262   6.084   4.083   4.268
 7773TIP3    H223263   5.965   4.010   4.326
 7774TIP3   OH223264   6.072   4.575   4.203
 7774TIP3    H123265   6.151   4.567   4.147
 7774TIP3    H223266   6.012   4.627   4.147
 7775TIP3   OH223267   6.666   4.543   4.580
 7775TIP3    H123268   6.716   4.461   4.584
 7775TIP3    H223269   6.730   4.603   4.539
 7776TIP3   OH223270   6.706   4.799   4.322
 7776TIP3    H123271   6.649   4.853   4.263
 7776TIP3    H223272   6.794   4.817   4.281
 7777TIP3   OH223273   5.934   4.361   4.753
 7777TIP3    H123274   5.866   4.292   4.766
 7777TIP3    H223275   5.966   4.341   4.663
 7778TIP3   OH223276   6.187   3.799   4.396
 7778TIP3    H123277   6.135   3.881   4.378
 7778TIP3    H223278   6.119   3.730   4.382
 7779TIP3   OH223279   6.316   4.304   4.612
 7779TIP3    H123280   6.296   4.292   4.706
 7779TIP3    H223281   6.227   4.283   4.574
 7780TIP3   OH223282   6.554   4.259   4.470
 7780TIP3    H123283   6.478   4.261   4.531
 7780TIP3    H223284   6.627   4.229   4.526
 7781TIP3   OH223285   6.780   4.194   4.620
 7781TIP3    H123286   6.785   4.101   4.643
 7781TIP3    H223287   6.778   4.239   4.707
 7782TIP3   OH223288   5.771   4.143   4.807
 7782TIP3    H123289   5.775   4.052   4.772
 7782TIP3    H223290   5.809   4.130   4.896
 7783TIP3   OH223291   6.294   3.818   4.646
 7783TIP3    H123292   6.305   3.724   4.662
 7783TIP3    H223293   6.254   3.818   4.556
 7784TIP3   OH223294   6.351   4.029   4.814
 7784TIP3    H123295   6.335   3.961   4.745
 7784TIP3    H223296   6.272   4.087   4.805
 7785TIP3   OH223297   5.601   5.256   2.910
 7785TIP3    H123298   5.663   5.278   2.840
 7785TIP3    H223299   5.520   5.286   2.867
 7786TIP3   OH223300   5.050   4.639   3.125
 7786TIP3    H123301   5.145   4.662   3.112
 7786TIP3    H223302   5.047   4.549   3.087
 7787TIP3   OH223303   4.969   5.251   3.540
 7787TIP3    H123304   4.901   5.191   3.503
 7787TIP3    H223305   5.011   5.192   3.607
 7788TIP3   OH223306   5.098   5.101   3.730
 7788TIP3    H123307   5.091   5.028   3.794
 7788TIP3    H223308   5.149   5.165   3.783
 7789TIP3   OH223309   6.827   5.505   3.530
 7789TIP3    H123310   6.852   5.531   3.620
 7789TIP3    H223311   6.895   5.547   3.476
 7790TIP3   OH223312   6.857   5.520   3.809
 7790TIP3    H123313   6.813   5.432   3.809
 7790TIP3    H223314   6.932   5.500   3.867
 7791TIP3   OH223315   6.904   5.198   4.384
 7791TIP3    H123316   6.832   5.208   4.449
 7791TIP3    H223317   6.946   5.287   4.388
 7792TIP3   OH223318   6.722   4.711   3.003
 7792TIP3    H123319   6.790   4.775   2.975
 7792TIP3    H223320   6.765   4.672   3.083
 7793TIP3   OH223321   6.845   4.576   3.209
 7793TIP3    H123322   6.779   4.535   3.269
 7793TIP3    H223323   6.911   4.613   3.272
 7794TIP3   OH223324   6.901   4.972   3.636
 7794TIP3    H123325   6.957   4.905   3.592
 7794TIP3    H223326   6.898   5.044   3.570
 7795TIP3   OH223327   6.731   5.271   3.832
 7795TIP3    H123328   6.662   5.313   3.886
 7795TIP3    H223329   6.679   5.224   3.764
 7796TIP3   OH223330   6.785   4.488   2.851
 7796TIP3    H123331   6.713   4.490   2.785
 7796TIP3    H223332   6.757   4.563   2.908
 7797TIP3   OH223333   6.663   4.157   2.798
 7797TIP3    H123334   6.606   4.193   2.728
 7797TIP3    H223335   6.638   4.062   2.794
 7798TIP3   OH223336   6.654   4.433   3.360
 7798TIP3    H123337   6.663   4.340   3.333
 7798TIP3    H223338   6.639   4.425   3.455
 7799TIP3   OH223339   6.951   4.862   4.211
 7799TIP3    H123340   7.022   4.795   4.200
 7799TIP3    H223341   6.977   4.930   4.147
 7800TIP3   OH223342   7.133   4.662   4.220
 7800TIP3    H123343   7.057   4.613   4.260
 7800TIP3    H223344   7.205   4.598   4.238
 7801TIP3   OH223345   6.602   3.891   2.784
 7801TIP3    H123346   6.673   3.863   2.846
 7801TIP3    H223347   6.526   3.837   2.811
 7802TIP3   OH223348   6.664   4.168   3.242
 7802TIP3    H123349   6.692   4.077   3.268
 7802TIP3    H223350   6.725   4.183   3.167
 7803TIP3   OH223351   6.830   4.306   3.739
 7803TIP3    H123352   6.911   4.344   3.701
 7803TIP3    H223353   6.826   4.354   3.823
 7804TIP3   OH223354   6.893   4.470   3.970
 7804TIP3    H123355   6.816   4.503   4.021
 7804TIP3    H223356   6.923   4.552   3.926
 7805TIP3   OH223357   5.505   4.194   4.770
 7805TIP3    H123358   5.603   4.188   4.774
 7805TIP3    H223359   5.480   4.109   4.809
 7806TIP3   OH223360   7.370   4.049   4.536
 7806TIP3    H123361   7.410   3.987   4.472
 7806TIP3    H223362   7.313   4.104   4.478
 7807TIP3   OH223363   6.770   3.905   3.279
 7807TIP3    H123364   6.813   3.893   3.367
 7807TIP3    H223365   6.704   3.833   3.281
 7808TIP3   OH223366   5.460   3.908   4.136
 7808TIP3    H123367   5.509   3.824   4.126
 7808TIP3    H223368   5.534   3.971   4.127
 7809TIP3   OH223369   7.215   4.188   4.350
 7809TIP3    H123370   7.131   4.235   4.370
 7809TIP3    H223371   7.180   4.122   4.287
 7810TIP3   OH223372   6.844   3.836   2.918
 7810TIP3    H123373   6.885   3.765   2.864
 7810TIP3    H223374   6.912   3.906   2.917
 7811TIP3   OH223375   5.241   3.639   3.665
 7811TIP3    H123376   5.151   3.651   3.700
 7811TIP3    H223377   5.249   3.713   3.601
 7812TIP3   OH223378   6.385   5.380   3.166
 7812TIP3    H123379   6.452   5.363   3.096
 7812TIP3    H223380   6.437   5.434   3.229
 7813TIP3   OH223381   5.473   3.751   4.495
 7813TIP3    H123382   5.421   3.742   4.576
 7813TIP3    H223383   5.406   3.781   4.432
 7814TIP3   OH223384   5.513   5.170   4.565
 7814TIP3    H123385   5.418   5.149   4.554
 7814TIP3    H223386   5.524   5.160   4.661
 7815TIP3   OH223387   5.697   5.207   4.110
 7815TIP3    H123388   5.648   5.285   4.075
 7815TIP3    H223389   5.782   5.221   4.064
 7816TIP3   OH223390   6.133   5.451   4.252
 7816TIP3    H123391   6.174   5.450   4.341
 7816TIP3    H223392   6.200   5.502   4.202
 7817TIP3   OH223393   6.315   5.602   4.114
 7817TIP3    H123394   6.390   5.552   4.078
 7817TIP3    H223395   6.363   5.662   4.176
 7818TIP3   OH223396   7.109   3.958   4.216
 7818TIP3    H123397   7.018   3.953   4.181
 7818TIP3    H223398   7.138   3.865   4.203
 7819TIP3   OH223399   5.367   5.460   4.146
 7819TIP3    H123400   5.276   5.490   4.122
 7819TIP3    H223401   5.382   5.514   4.225
 7820TIP3   OH223402   5.598   5.438   3.997
 7820TIP3    H123403   5.513   5.450   4.045
 7820TIP3    H223404   5.578   5.480   3.911
 7821TIP3   OH223405   6.027   5.473   3.792
 7821TIP3    H123406   5.961   5.508   3.730
 7821TIP3    H223407   6.045   5.553   3.846
 7822TIP3   OH223408   6.298   5.407   3.838
 7822TIP3    H123409   6.204   5.433   3.827
 7822TIP3    H223410   6.345   5.488   3.812
 7823TIP3   OH223411   6.498   5.596   3.762
 7823TIP3    H123412   6.489   5.682   3.716
 7823TIP3    H223413   6.529   5.538   3.690
 7824TIP3   OH223414   5.277   5.259   3.885
 7824TIP3    H123415   5.302   5.231   3.975
 7824TIP3    H223416   5.346   5.213   3.833
 7825TIP3   OH223417   5.468   5.127   3.746
 7825TIP3    H123418   5.476   5.036   3.782
 7825TIP3    H223419   5.559   5.156   3.754
 7826TIP3   OH223420   6.325   3.878   3.841
 7826TIP3    H123421   6.272   3.808   3.882
 7826TIP3    H223422   6.396   3.830   3.796
 7827TIP3   OH223423   6.836   3.754   3.733
 7827TIP3    H123424   6.870   3.811   3.661
 7827TIP3    H223425   6.742   3.779   3.735
 7828TIP3   OH223426   6.933   3.858   3.499
 7828TIP3    H123427   7.009   3.810   3.459
 7828TIP3    H223428   6.963   3.951   3.486
 7829TIP3   OH223429   5.563   3.585   3.850
 7829TIP3    H123430   5.470   3.555   3.849
 7829TIP3    H223431   5.610   3.499   3.845
 7830TIP3   OH223432   5.348   3.452   3.493
 7830TIP3    H123433   5.379   3.514   3.425
 7830TIP3    H223434   5.315   3.514   3.562
 7831TIP3   OH223435   6.011   3.615   3.729
 7831TIP3    H123436   6.060   3.670   3.666
 7831TIP3    H223437   6.021   3.666   3.810
 7832TIP3   OH223438   6.554   3.765   3.715
 7832TIP3    H123439   6.547   3.732   3.624
 7832TIP3    H223440   6.539   3.683   3.768
 7833TIP3   OH223441   6.582   3.692   3.275
 7833TIP3    H123442   6.497   3.736   3.292
 7833TIP3    H223443   6.567   3.606   3.321
 7834TIP3   OH223444   5.067   5.032   3.271
 7834TIP3    H123445   4.980   5.000   3.242
 7834TIP3    H223446   5.058   5.126   3.251
 7835TIP3   OH223447   5.468   3.618   3.255
 7835TIP3    H123448   5.517   3.554   3.200
 7835TIP3    H223449   5.542   3.670   3.293
 7836TIP3   OH223450   5.978   3.796   3.363
 7836TIP3    H123451   6.051   3.762   3.419
 7836TIP3    H223452   5.957   3.879   3.410
 7837TIP3   OH223453   6.558   5.336   2.953
 7837TIP3    H123454   6.550   5.238   2.942
 7837TIP3    H223455   6.515   5.367   2.871
 7838TIP3   OH223456   5.767   3.868   4.741
 7838TIP3    H123457   5.733   3.796   4.797
 7838TIP3    H223458   5.862   3.867   4.769
 7839TIP3   OH223459   6.016   3.866   4.863
 7839TIP3    H123460   6.104   3.842   4.831
 7839TIP3    H223461   6.000   3.796   4.930
 7840TIP3   OH223462   5.142   5.051   2.912
 7840TIP3    H123463   5.138   5.074   3.006
 7840TIP3    H223464   5.230   5.008   2.904
 7841TIP3   OH223465   6.836   3.887   4.646
 7841TIP3    H123466   6.861   3.903   4.735
 7841TIP3    H223467   6.896   3.933   4.592
 7842TIP3   OH223468   6.780   5.479   4.141
 7842TIP3    H123469   6.702   5.450   4.090
 7842TIP3    H223470   6.763   5.575   4.146
 7843TIP3   OH223471   8.051   4.855   2.903
 7843TIP3    H123472   8.020   4.945   2.883
 7843TIP3    H223473   7.972   4.804   2.881
 7844TIP3   OH223474   8.049   4.848   3.287
 7844TIP3    H123475   8.079   4.835   3.379
 7844TIP3    H223476   8.007   4.763   3.269
 7845TIP3   OH223477   7.346   4.746   3.651
 7845TIP3    H123478   7.376   4.675   3.712
 7845TIP3    H223479   7.422   4.805   3.654
 7846TIP3   OH223480   8.295   5.151   2.970
 7846TIP3    H123481   8.272   5.088   3.039
 7846TIP3    H223482   8.322   5.229   3.021
 7847TIP3   OH223483   7.313   5.155   3.368
 7847TIP3    H123484   7.310   5.056   3.368
 7847TIP3    H223485   7.406   5.169   3.393
 7848TIP3   OH223486   7.029   4.360   3.155
 7848TIP3    H123487   6.980   4.441   3.175
 7848TIP3    H223488   6.957   4.304   3.120
 7849TIP3   OH223489   7.083   4.646   3.336
 7849TIP3    H123490   7.132   4.568   3.370
 7849TIP3    H223491   7.146   4.681   3.271
 7850TIP3   OH223492   7.847   5.078   3.332
 7850TIP3    H123493   7.888   5.000   3.292
 7850TIP3    H223494   7.929   5.125   3.359
 7851TIP3   OH223495   8.259   4.598   3.361
 7851TIP3    H123496   8.268   4.506   3.391
 7851TIP3    H223497   8.209   4.582   3.278
 7852TIP3   OH223498   7.597   4.238   3.332
 7852TIP3    H123499   7.581   4.310   3.268
 7852TIP3    H223500   7.549   4.165   3.287
 7853TIP3   OH223501   8.286   4.328   2.965
 7853TIP3    H123502   8.343   4.268   3.016
 7853TIP3    H223503   8.351   4.373   2.910
 7854TIP3   OH223504   7.233   4.441   3.437
 7854TIP3    H123505   7.315   4.422   3.486
 7854TIP3    H223506   7.247   4.384   3.359
 7855TIP3   OH223507   7.674   4.637   3.230
 7855TIP3    H123508   7.768   4.612   3.246
 7855TIP3    H223509   7.635   4.552   3.200
 7856TIP3   OH223510   7.593   4.222   3.766
 7856TIP3    H123511   7.534   4.260   3.698
 7856TIP3    H223512   7.540   4.241   3.847
 7857TIP3   OH223513   7.949   5.075   2.764
 7857TIP3    H123514   7.895   5.052   2.686
 7857TIP3    H223515   7.898   5.151   2.799
 7858TIP3   OH223516   7.701   4.998   3.559
 7858TIP3    H123517   7.640   5.064   3.598
 7858TIP3    H223518   7.744   5.050   3.488
 7859TIP3   OH223519   7.467   4.338   3.551
 7859TIP3    H123520   7.529   4.411   3.574
 7859TIP3    H223521   7.515   4.298   3.475
 7860TIP3   OH223522   7.521   5.188   3.650
 7860TIP3    H123523   7.502   5.279   3.615
 7860TIP3    H223524   7.443   5.177   3.708
 7861TIP3   OH223525   6.923   4.883   2.894
 7861TIP3    H123526   6.880   4.912   2.811
 7861TIP3    H223527   6.956   4.968   2.930
 7862TIP3   OH223528   8.365   5.396   3.129
 7862TIP3    H123529   8.279   5.383   3.176
 7862TIP3    H223530   8.350   5.484   3.090
 7863TIP3   OH223531   7.934   3.934   3.477
 7863TIP3    H123532   7.921   3.840   3.501
 7863TIP3    H223533   7.860   3.976   3.526
 7864TIP3   OH223534   8.042   5.454   2.788
 7864TIP3    H123535   8.099   5.375   2.785
 7864TIP3    H223536   8.107   5.523   2.763
 7865TIP3   OH223537   8.194   5.229   2.723
 7865TIP3    H123538   8.126   5.160   2.716
 7865TIP3    H223539   8.243   5.200   2.802
 7866TIP3   OH223540   8.595   5.303   3.482
 7866TIP3    H123541   8.591   5.228   3.420
 7866TIP3    H223542   8.582   5.380   3.423
 7867TIP3   OH223543   7.877   4.702   2.737
 7867TIP3    H123544   7.796   4.754   2.720
 7867TIP3    H223545   7.920   4.702   2.650
 7868TIP3   OH223546   7.836   4.491   2.447
 7868TIP3    H123547   7.902   4.542   2.497
 7868TIP3    H223548   7.895   4.428   2.400
 7869TIP3   OH223549   8.221   4.783   2.705
 7869TIP3    H123550   8.166   4.813   2.781
 7869TIP3    H223551   8.295   4.741   2.753
 7870TIP3   OH223552   8.449   4.807   3.611
 7870TIP3    H123553   8.472   4.890   3.653
 7870TIP3    H223554   8.357   4.823   3.583
 7871TIP3   OH223555   7.463   4.782   3.123
 7871TIP3    H123556   7.423   4.723   3.056
 7871TIP3    H223557   7.539   4.728   3.155
 7872TIP3   OH223558   7.600   5.209   3.263
 7872TIP3    H123559   7.573   5.152   3.189
 7872TIP3    H223560   7.686   5.170   3.287
 7873TIP3   OH223561   7.598   4.755   3.477
 7873TIP3    H123562   7.632   4.733   3.388
 7873TIP3    H223563   7.640   4.841   3.497
 7874TIP3   OH223564   8.132   5.387   3.258
 7874TIP3    H123565   8.110   5.471   3.303
 7874TIP3    H223566   8.107   5.319   3.324
 7875TIP3   OH223567   7.749   5.297   3.800
 7875TIP3    H123568   7.729   5.387   3.834
 7875TIP3    H223569   7.662   5.267   3.768
 7876TIP3   OH223570   8.065   4.637   2.535
 7876TIP3    H123571   8.121   4.701   2.586
 7876TIP3    H223572   8.093   4.660   2.442
 7877TIP3   OH223573   7.490   4.863   3.907
 7877TIP3    H123574   7.496   4.953   3.946
 7877TIP3    H223575   7.395   4.845   3.922
 7878TIP3   OH223576   7.815   5.309   2.817
 7878TIP3    H123577   7.896   5.366   2.817
 7878TIP3    H223578   7.752   5.362   2.769
 7879TIP3   OH223579   7.330   4.626   2.922
 7879TIP3    H123580   7.258   4.668   2.871
 7879TIP3    H223581   7.292   4.541   2.945
 7880TIP3   OH223582   8.379   5.251   2.131
 7880TIP3    H123583   8.379   5.345   2.107
 7880TIP3    H223584   8.463   5.221   2.094
 7881TIP3   OH223585   7.104   5.008   3.839
 7881TIP3    H123586   7.038   4.986   3.770
 7881TIP3    H223587   7.143   4.920   3.861
 7882TIP3   OH223588   6.963   5.206   3.464
 7882TIP3    H123589   7.059   5.196   3.460
 7882TIP3    H223590   6.956   5.280   3.526
 7883TIP3   OH223591   7.940   5.432   3.654
 7883TIP3    H123592   7.926   5.516   3.703
 7883TIP3    H223593   7.871   5.381   3.701
 7884TIP3   OH223594   7.690   5.581   2.624
 7884TIP3    H123595   7.663   5.522   2.550
 7884TIP3    H223596   7.652   5.664   2.593
 7885TIP3   OH223597   7.134   5.417   2.997
 7885TIP3    H123598   7.179   5.409   3.085
 7885TIP3    H223599   7.081   5.336   2.997
 7886TIP3   OH223600   7.894   5.473   2.252
 7886TIP3    H123601   7.951   5.404   2.212
 7886TIP3    H223602   7.934   5.481   2.341
 7887TIP3   OH223603   7.946   5.515   2.521
 7887TIP3    H123604   7.862   5.521   2.570
 7887TIP3    H223605   8.005   5.480   2.591
 7888TIP3   OH223606   7.309   5.190   3.819
 7888TIP3    H123607   7.359   5.181   3.902
 7888TIP3    H223608   7.235   5.127   3.832
 7889TIP3   OH223609   7.709   4.016   3.613
 7889TIP3    H123610   7.621   3.987   3.584
 7889TIP3    H223611   7.684   4.098   3.660
 7890TIP3   OH223612   8.199   4.146   3.775
 7890TIP3    H123613   8.275   4.138   3.838
 7890TIP3    H223614   8.123   4.120   3.832
 7891TIP3   OH223615   8.518   4.558   3.732
 7891TIP3    H123616   8.454   4.563   3.806
 7891TIP3    H223617   8.497   4.639   3.682
 7892TIP3   OH223618   8.146   4.690   2.285
 7892TIP3    H123619   8.112   4.667   2.197
 7892TIP3    H223620   8.216   4.753   2.263
 7893TIP3   OH223621   7.866   4.065   2.583
 7893TIP3    H123622   7.830   4.062   2.674
 7893TIP3    H223623   7.824   3.985   2.546
 7894TIP3   OH223624   7.644   4.534   3.628
 7894TIP3    H123625   7.593   4.555   3.710
 7894TIP3    H223626   7.628   4.615   3.575
 7895TIP3   OH223627   7.526   4.419   3.142
 7895TIP3    H123628   7.434   4.391   3.162
 7895TIP3    H223629   7.538   4.376   3.055
 7896TIP3   OH223630   8.018   4.506   2.870
 7896TIP3    H123631   7.964   4.576   2.828
 7896TIP3    H223632   8.073   4.476   2.796
 7897TIP3   OH223633   8.192   4.779   3.954
 7897TIP3    H123634   8.168   4.707   4.017
 7897TIP3    H223635   8.286   4.788   3.973
 7898TIP3   OH223636   8.162   4.537   3.107
 7898TIP3    H123637   8.100   4.552   3.033
 7898TIP3    H223638   8.198   4.450   3.080
 7899TIP3   OH223639   7.462   4.561   3.835
 7899TIP3    H123640   7.488   4.627   3.901
 7899TIP3    H223641   7.450   4.481   3.889
 7900TIP3   OH223642   7.513   4.040   2.546
 7900TIP3    H123643   7.505   4.038   2.643
 7900TIP3    H223644   7.435   4.093   2.522
 7901TIP3   OH223645   7.058   4.081   3.412
 7901TIP3    H123646   7.130   4.114   3.470
 7901TIP3    H223647   7.104   4.048   3.334
 7902TIP3   OH223648   7.023   4.062   2.935
 7902TIP3    H123649   7.071   4.100   2.858
 7902TIP3    H223650   6.962   4.135   2.955
 7903TIP3   OH223651   8.168   4.787   3.532
 7903TIP3    H123652   8.209   4.719   3.473
 7903TIP3    H223653   8.143   4.729   3.607
 7904TIP3   OH223654   7.847   4.263   3.200
 7904TIP3    H123655   7.775   4.248   3.264
 7904TIP3    H223656   7.923   4.218   3.244
 7905TIP3   OH223657   7.289   4.298   3.209
 7905TIP3    H123658   7.195   4.306   3.181
 7905TIP3    H223659   7.310   4.205   3.188
 7906TIP3   OH223660   7.553   4.289   2.902
 7906TIP3    H123661   7.647   4.306   2.883
 7906TIP3    H223662   7.508   4.313   2.818
 7907TIP3   OH223663   8.267   4.332   3.400
 7907TIP3    H123664   8.256   4.337   3.496
 7907TIP3    H223665   8.351   4.281   3.391
 7908TIP3   OH223666   7.403   4.327   2.677
 7908TIP3    H123667   7.329   4.283   2.631
 7908TIP3    H223668   7.453   4.363   2.601
 7909TIP3   OH223669   8.516   6.009   3.626
 7909TIP3    H123670   8.512   6.013   3.527
 7909TIP3    H223671   8.560   6.092   3.644
 7910TIP3   OH223672   7.474   5.112   4.043
 7910TIP3    H123673   7.555   5.144   4.088
 7910TIP3    H223674   7.411   5.116   4.117
 7911TIP3   OH223675   7.939   4.573   3.308
 7911TIP3    H123676   8.000   4.519   3.255
 7911TIP3    H223677   7.937   4.525   3.393
 7912TIP3   OH223678   7.456   4.055   3.183
 7912TIP3    H123679   7.420   3.978   3.232
 7912TIP3    H223680   7.505   4.011   3.112
 7913TIP3   OH223681   7.913   4.471   3.588
 7913TIP3    H123682   7.823   4.505   3.604
 7913TIP3    H223683   7.969   4.531   3.640
 7914TIP3   OH223684   7.651   4.855   2.684
 7914TIP3    H123685   7.579   4.789   2.672
 7914TIP3    H223686   7.630   4.889   2.775
 7915TIP3   OH223687   8.553   5.093   3.297
 7915TIP3    H123688   8.553   5.111   3.203
 7915TIP3    H223689   8.466   5.049   3.307
 7916TIP3   OH223690   8.117   4.164   2.543
 7916TIP3    H123691   8.022   4.139   2.555
 7916TIP3    H223692   8.116   4.260   2.563
 7917TIP3   OH223693   8.055   5.176   3.683
 7917TIP3    H123694   8.068   5.155   3.777
 7917TIP3    H223695   8.015   5.265   3.687
 7918TIP3   OH223696   8.204   4.422   2.632
 7918TIP3    H123697   8.288   4.469   2.647
 7918TIP3    H223698   8.151   4.493   2.590
 7919TIP3   OH223699   7.344   4.878   3.358
 7919TIP3    H123700   7.384   4.847   3.275
 7919TIP3    H223701   7.386   4.821   3.424
 7920TIP3   OH223702   7.795   5.006   2.507
 7920TIP3    H123703   7.748   5.092   2.513
 7920TIP3    H223704   7.739   4.950   2.567
 7921TIP3   OH223705   7.227   4.796   3.975
 7921TIP3    H123706   7.243   4.783   4.070
 7921TIP3    H223707   7.156   4.732   3.958
 7922TIP3   OH223708   7.948   4.904   3.993
 7922TIP3    H123709   7.887   4.846   3.945
 7922TIP3    H223710   8.035   4.870   3.963
 7923TIP3   OH223711   8.212   5.437   3.573
 7923TIP3    H123712   8.116   5.434   3.588
 7923TIP3    H223713   8.241   5.484   3.654
 7924TIP3   OH223714   8.303   5.333   2.393
 7924TIP3    H123715   8.312   5.278   2.472
 7924TIP3    H223716   8.335   5.277   2.321
 7925TIP3   OH223717   8.311   4.955   3.234
 7925TIP3    H123718   8.216   4.936   3.246
 7925TIP3    H223719   8.343   4.869   3.203
 7926TIP3   OH223720   7.441   5.179   2.975
 7926TIP3    H123721   7.432   5.262   2.926
 7926TIP3    H223722   7.351   5.164   3.007
 7927TIP3   OH223723   7.008   4.486   2.690
 7927TIP3    H123724   7.053   4.570   2.713
 7927TIP3    H223725   6.931   4.489   2.752
 7928TIP3   OH223726   7.581   4.946   2.926
 7928TIP3    H123727   7.543   5.034   2.945
 7928TIP3    H223728   7.547   4.895   3.002
 7929TIP3   OH223729   7.718   5.526   3.454
 7929TIP3    H123730   7.763   5.607   3.426
 7929TIP3    H223731   7.784   5.490   3.516
 7930TIP3   OH223732   7.360   5.422   2.834
 7930TIP3    H123733   7.275   5.427   2.884
 7930TIP3    H223734   7.392   5.513   2.839
 7931TIP3   OH223735   8.098   5.155   3.417
 7931TIP3    H123736   8.085   5.160   3.515
 7931TIP3    H223737   8.182   5.108   3.412
 7932TIP3   OH223738   8.061   5.052   2.308
 7932TIP3    H123739   8.119   5.027   2.383
 7932TIP3    H223740   7.974   5.030   2.344
 7933TIP3   OH223741   8.362   5.682   3.460
 7933TIP3    H123742   8.282   5.626   3.464
 7933TIP3    H223743   8.333   5.752   3.397
 7934TIP3   OH223744   7.431   4.305   3.978
 7934TIP3    H123745   7.333   4.311   3.989
 7934TIP3    H223746   7.455   4.247   4.052
 7935TIP3   OH223747   8.234   4.978   2.510
 7935TIP3    H123748   8.220   4.911   2.580
 7935TIP3    H223749   8.306   5.030   2.548
 7936TIP3   OH223750   7.153   5.386   3.614
 7936TIP3    H123751   7.210   5.316   3.649
 7936TIP3    H223752   7.180   5.460   3.670
 7937TIP3   OH223753   7.442   5.034   2.297
 7937TIP3    H123754   7.454   4.941   2.269
 7937TIP3    H223755   7.421   5.023   2.392
 7938TIP3   OH223756   7.386   5.039   2.568
 7938TIP3    H123757   7.454   5.009   2.630
 7938TIP3    H223758   7.391   5.137   2.578
 7939TIP3   OH223759   7.119   4.730   2.773
 7939TIP3    H123760   7.053   4.775   2.830
 7939TIP3    H223761   7.132   4.800   2.705
 7940TIP3   OH223762   8.271   4.390   3.673
 7940TIP3    H123763   8.357   4.403   3.715
 7940TIP3    H223764   8.241   4.305   3.713
 7941TIP3   OH223765   8.132   4.130   2.838
 7941TIP3    H123766   8.134   4.144   2.743
 7941TIP3    H223767   8.180   4.208   2.874
 7942TIP3   OH223768   7.659   5.240   2.522
 7942TIP3    H123769   7.568   5.259   2.553
 7942TIP3    H223770   7.664   5.297   2.444
 7943TIP3   OH223771   7.835   4.303   2.931
 7943TIP3    H123772   7.902   4.373   2.919
 7943TIP3    H223773   7.840   4.290   3.029
 7944TIP3   OH223774   8.110   4.615   3.734
 7944TIP3    H123775   8.138   4.662   3.815
 7944TIP3    H223776   8.168   4.537   3.733
 7945TIP3   OH223777   7.980   4.007   3.030
 7945TIP3    H123778   8.012   4.055   3.110
 7945TIP3    H223779   8.034   4.053   2.961
 7946TIP3   OH223780   7.403   5.312   2.585
 7946TIP3    H123781   7.369   5.382   2.525
 7946TIP3    H223782   7.381   5.351   2.673
 7947TIP3   OH223783   7.498   4.026   2.821
 7947TIP3    H123784   7.494   4.115   2.862
 7947TIP3    H223785   7.594   4.008   2.831
 7948TIP3   OH223786   8.398   4.694   3.141
 7948TIP3    H123787   8.312   4.657   3.113
 7948TIP3    H223788   8.403   4.654   3.230
 7949TIP3   OH223789   7.116   4.937   2.577
 7949TIP3    H123790   7.185   5.005   2.586
 7949TIP3    H223791   7.159   4.879   2.510
 7950TIP3   OH223792   7.058   4.216   2.707
 7950TIP3    H123793   7.058   4.314   2.707
 7950TIP3    H223794   6.970   4.196   2.675
 7951TIP3   OH223795   8.380   5.672   3.054
 7951TIP3    H123796   8.340   5.722   2.978
 7951TIP3    H223797   8.474   5.680   3.035
 7952TIP3   OH223798   7.448   3.935   3.581
 7952TIP3    H123799   7.416   3.902   3.495
 7952TIP3    H223800   7.437   3.857   3.639
 7953TIP3   OH223801   6.983   5.155   2.961
 7953TIP3    H123802   6.921   5.184   3.029
 7953TIP3    H223803   6.946   5.199   2.880
 7954TIP3   OH223804   7.144   5.698   4.035
 7954TIP3    H123805   7.233   5.694   4.076
 7954TIP3    H223806   7.124   5.603   4.032
 7955TIP3   OH223807   7.606   5.237   2.213
 7955TIP3    H123808   7.549   5.163   2.244
 7955TIP3    H223809   7.680   5.188   2.173
 7956TIP3   OH223810   8.268   5.565   3.809
 7956TIP3    H123811   8.254   5.499   3.881
 7956TIP3    H223812   8.329   5.627   3.850
 7957TIP3   OH223813   8.032   5.279   2.119
 7957TIP3    H123814   8.081   5.221   2.179
 7957TIP3    H223815   8.084   5.274   2.036
 7958TIP3   OH223816   7.272   5.104   4.237
 7958TIP3    H123817   7.289   5.008   4.241
 7958TIP3    H223818   7.185   5.107   4.192
 7959TIP3   OH223819   7.252   4.752   2.431
 7959TIP3    H123820   7.307   4.720   2.505
 7959TIP3    H223821   7.320   4.757   2.360
 7960TIP3   OH223822   7.878   5.175   4.013
 7960TIP3    H123823   7.840   5.209   3.929
 7960TIP3    H223824   7.901   5.083   3.993
 7961TIP3   OH223825   7.762   4.952   2.238
 7961TIP3    H123826   7.764   4.963   2.335
 7961TIP3    H223827   7.764   4.854   2.231
 7962TIP3   OH223828   8.379   5.195   3.617
 7962TIP3    H123829   8.454   5.243   3.577
 7962TIP3    H223830   8.307   5.259   3.605
 7963TIP3   OH223831   7.391   4.839   4.222
 7963TIP3    H123832   7.471   4.794   4.192
 7963TIP3    H223833   7.420   4.872   4.309
 7964TIP3   OH223834   7.457   4.660   2.651
 7964TIP3    H123835   7.428   4.623   2.736
 7964TIP3    H223836   7.492   4.581   2.605
 7965TIP3   OH223837   7.727   4.721   3.880
 7965TIP3    H123838   7.649   4.781   3.882
 7965TIP3    H223839   7.777   4.756   3.803
 7966TIP3   OH223840   7.559   4.453   2.490
 7966TIP3    H123841   7.534   4.461   2.396
 7966TIP3    H223842   7.656   4.456   2.484
 7967TIP3   OH223843   8.249   5.124   4.015
 7967TIP3    H123844   8.316   5.086   3.957
 7967TIP3    H223845   8.236   5.054   4.082
 7968TIP3   OH223846   7.851   4.512   4.004
 7968TIP3    H123847   7.852   4.434   3.944
 7968TIP3    H223848   7.807   4.579   3.948
 7969TIP3   OH223849   7.850   4.302   3.813
 7969TIP3    H123850   7.881   4.341   3.729
 7969TIP3    H223851   7.757   4.280   3.792
 7970TIP3   OH223852   7.877   4.831   3.687
 7970TIP3    H123853   7.963   4.845   3.644
 7970TIP3    H223854   7.820   4.898   3.642
 7971TIP3   OH223855   8.464   4.799   4.072
 7971TIP3    H123856   8.497   4.709   4.060
 7971TIP3    H223857   8.528   4.853   4.023
 7972TIP3   OH223858   8.514   5.053   3.808
 7972TIP3    H123859   8.459   5.107   3.747
 7972TIP3    H223860   8.593   5.039   3.752
 7973TIP3   OH223861   7.731   4.619   4.239
 7973TIP3    H123862   7.661   4.551   4.253
 7973TIP3    H223863   7.763   4.596   4.150
 7974TIP3   OH223864   7.965   4.060   3.892
 7974TIP3    H123865   7.916   4.140   3.867
 7974TIP3    H223866   7.900   3.989   3.878
 7975TIP3   OH223867   8.110   4.561   4.096
 7975TIP3    H123868   8.095   4.547   4.191
 7975TIP3    H223869   8.021   4.539   4.062
 7976TIP3   OH223870   8.356   4.528   3.953
 7976TIP3    H123871   8.276   4.520   4.007
 7976TIP3    H223872   8.421   4.478   4.008
 7977TIP3   OH223873   8.555   4.428   4.111
 7977TIP3    H123874   8.593   4.343   4.135
 7977TIP3    H223875   8.563   4.479   4.194
 7978TIP3   OH223876   7.567   4.399   4.292
 7978TIP3    H123877   7.574   4.309   4.257
 7978TIP3    H223878   7.603   4.387   4.382
 7979TIP3   OH223879   8.091   4.062   4.136
 7979TIP3    H123880   8.154   3.989   4.127
 7979TIP3    H223881   8.047   4.057   4.049
 7980TIP3   OH223882   8.149   4.284   4.297
 7980TIP3    H123883   8.134   4.211   4.232
 7980TIP3    H223884   8.069   4.340   4.285
 7981TIP3   OH223885   7.373   5.524   2.405
 7981TIP3    H123886   7.466   5.510   2.379
 7981TIP3    H223887   7.339   5.567   2.324
 7982TIP3   OH223888   6.846   4.898   2.610
 7982TIP3    H123889   6.941   4.918   2.597
 7982TIP3    H223890   6.840   4.808   2.570
 7983TIP3   OH223891   6.765   5.506   3.030
 7983TIP3    H123892   6.699   5.446   2.992
 7983TIP3    H223893   6.808   5.447   3.096
 7984TIP3   OH223894   6.899   5.353   3.217
 7984TIP3    H123895   6.888   5.284   3.284
 7984TIP3    H223896   6.950   5.418   3.269
 7985TIP3   OH223897   8.700   5.747   3.295
 7985TIP3    H123898   8.647   5.665   3.287
 7985TIP3    H223899   8.669   5.780   3.380
 7986TIP3   OH223900   8.679   5.468   3.878
 7986TIP3    H123901   8.604   5.469   3.941
 7986TIP3    H223902   8.703   5.562   3.874
 7987TIP3   OH223903   8.534   5.524   3.314
 7987TIP3    H123904   8.468   5.569   3.371
 7987TIP3    H223905   8.476   5.476   3.252
 7988TIP3   OH223906   8.433   4.660   2.833
 7988TIP3    H123907   8.523   4.620   2.843
 7988TIP3    H223908   8.427   4.704   2.919
 7989TIP3   OH223909   7.082   4.769   3.586
 7989TIP3    H123910   7.079   4.734   3.495
 7989TIP3    H223911   7.179   4.769   3.603
 7990TIP3   OH223912   7.299   4.449   4.265
 7990TIP3    H123913   7.397   4.445   4.266
 7990TIP3    H223914   7.277   4.362   4.304
 7991TIP3   OH223915   7.264   4.144   3.582
 7991TIP3    H123916   7.326   4.070   3.596
 7991TIP3    H223917   7.326   4.220   3.580
 7992TIP3   OH223918   7.069   4.420   3.665
 7992TIP3    H123919   7.116   4.418   3.580
 7992TIP3    H223920   7.097   4.505   3.701
 7993TIP3   OH223921   7.048   3.915   3.161
 7993TIP3    H123922   6.957   3.914   3.196
 7993TIP3    H223923   7.041   3.977   3.086
 7994TIP3   OH223924   8.206   5.632   2.674
 7994TIP3    H123925   8.252   5.618   2.587
 7994TIP3    H223926   8.270   5.688   2.720
 7995TIP3   OH223927   7.270   3.999   3.980
 7995TIP3    H123928   7.215   3.994   4.060
 7995TIP3    H223929   7.207   4.042   3.918
 7996TIP3   OH223930   7.292   5.440   4.084
 7996TIP3    H123931   7.208   5.404   4.052
 7996TIP3    H223932   7.303   5.398   4.170
 7997TIP3   OH223933   7.481   5.445   3.569
 7997TIP3    H123934   7.439   5.533   3.561
 7997TIP3    H223935   7.571   5.469   3.543
 7998TIP3   OH223936   8.110   5.875   3.579
 7998TIP3    H123937   8.163   5.794   3.583
 7998TIP3    H223938   8.149   5.927   3.651
 7999TIP3   OH223939   7.161   5.720   3.624
 7999TIP3    H123940   7.070   5.753   3.608
 7999TIP3    H223941   7.179   5.759   3.711
 8000TIP3   OH223942   7.396   5.702   3.485
 8000TIP3    H123943   7.310   5.711   3.531
 8000TIP3    H223944   7.375   5.732   3.395
 8001TIP3   OH223945   7.836   5.752   3.256
 8001TIP3    H123946   7.744   5.764   3.230
 8001TIP3    H223947   7.850   5.828   3.316
 8002TIP3   OH223948   8.092   5.661   3.329
 8002TIP3    H123949   8.001   5.682   3.298
 8002TIP3    H223950   8.136   5.747   3.317
 8003TIP3   OH223951   8.293   5.850   3.250
 8003TIP3    H123952   8.284   5.935   3.202
 8003TIP3    H223953   8.316   5.788   3.178
 8004TIP3   OH223954   7.076   5.512   3.372
 8004TIP3    H123955   7.101   5.486   3.464
 8004TIP3    H223956   7.149   5.467   3.323
 8005TIP3   OH223957   7.273   5.385   3.229
 8005TIP3    H123958   7.283   5.300   3.279
 8005TIP3    H223959   7.365   5.419   3.233
 8006TIP3   OH223960   7.544   5.480   3.233
 8006TIP3    H123961   7.570   5.386   3.227
 8006TIP3    H223962   7.587   5.501   3.318
 8007TIP3   OH223963   8.061   4.103   3.275
 8007TIP3    H123964   8.045   4.054   3.357
 8007TIP3    H223965   8.159   4.099   3.267
 8008TIP3   OH223966   7.360   3.842   3.333
 8008TIP3    H123967   7.267   3.809   3.338
 8008TIP3    H223968   7.409   3.757   3.328
 8009TIP3   OH223969   7.148   3.715   2.984
 8009TIP3    H123970   7.175   3.775   2.912
 8009TIP3    H223971   7.118   3.779   3.053
 8010TIP3   OH223972   7.807   3.872   3.215
 8010TIP3    H123973   7.858   3.924   3.152
 8010TIP3    H223974   7.834   3.912   3.300
 8011TIP3   OH223975   8.310   3.999   3.196
 8011TIP3    H123976   8.346   3.979   3.110
 8011TIP3    H223977   8.312   3.912   3.240
 8012TIP3   OH223978   6.863   5.289   2.760
 8012TIP3    H123979   6.777   5.255   2.727
 8012TIP3    H223980   6.852   5.383   2.736
 8013TIP3   OH223981   7.265   3.875   2.744
 8013TIP3    H123982   7.313   3.811   2.688
 8013TIP3    H223983   7.338   3.927   2.782
 8014TIP3   OH223984   7.776   4.051   2.845
 8014TIP3    H123985   7.836   4.007   2.907
 8014TIP3    H223986   7.794   4.144   2.870
 8015TIP3   OH223987   7.639   5.470   2.352
 8015TIP3    H123988   7.727   5.493   2.314
 8015TIP3    H223989   7.614   5.399   2.289
 8016TIP3   OH223990   8.339   5.598   2.441
 8016TIP3    H123991   8.336   5.500   2.430
 8016TIP3    H223992   8.314   5.626   2.352
 8017TIP3   OH223993   7.577   4.128   4.227
 8017TIP3    H123994   7.532   4.066   4.286
 8017TIP3    H223995   7.670   4.117   4.256
 8018TIP3   OH223996   7.833   4.098   4.353
 8018TIP3    H123997   7.901   4.113   4.285
 8018TIP3    H223998   7.877   4.023   4.399
 8019TIP3   OH223999   6.939   5.309   2.399
 8019TIP3    H124000   6.938   5.329   2.494
 8019TIP3    H224001   7.027   5.265   2.387
 8020TIP3   OH224002   8.574   5.740   3.637
 8020TIP3    H124003   8.502   5.705   3.581
 8020TIP3    H224004   8.554   5.836   3.636
 8021TIP3   OH224005   0.504   5.642   4.591
 8021TIP3    H124006   0.467   5.731   4.604
 8021TIP3    H224007   0.431   5.598   4.541
 8022TIP3   OH224008   0.518   5.626   4.972
 8022TIP3    H124009   0.561   5.600   5.056
 8022TIP3    H224010   0.470   5.545   4.949
 8023TIP3   OH224011   0.746   5.943   4.660
 8023TIP3    H124012   0.736   5.873   4.727
 8023TIP3    H224013   0.775   6.018   4.714
 8024TIP3   OH224014   0.448   6.429   4.661
 8024TIP3    H124015   0.494   6.346   4.640
 8024TIP3    H224016   0.378   6.397   4.722
 8025TIP3   OH224017   0.331   5.842   5.020
 8025TIP3    H124018   0.371   5.764   4.979
 8025TIP3    H224019   0.412   5.893   5.042
 8026TIP3   OH224020   1.314   5.186   5.020
 8026TIP3    H124021   1.346   5.269   5.063
 8026TIP3    H224022   1.341   5.201   4.928
 8027TIP3   OH224023   0.711   5.358   5.052
 8027TIP3    H124024   0.755   5.273   5.073
 8027TIP3    H224025   0.681   5.341   4.960
 8028TIP3   OH224026   0.747   5.120   4.639
 8028TIP3    H124027   0.817   5.104   4.707
 8028TIP3    H224028   0.803   5.152   4.566
 8029TIP3   OH224029   1.390   5.396   5.189
 8029TIP3    H124030   1.304   5.439   5.170
 8029TIP3    H224031   1.397   5.412   5.284
 8030TIP3   OH224032   0.367   5.878   4.471
 8030TIP3    H124033   0.364   5.823   4.391
 8030TIP3    H224034   0.447   5.929   4.457
 8031TIP3   OH224035   0.950   5.124   4.819
 8031TIP3    H124036   0.945   5.074   4.901
 8031TIP3    H224037   1.006   5.200   4.845
 8032TIP3   OH224038   0.814   6.187   4.822
 8032TIP3    H124039   0.725   6.177   4.863
 8032TIP3    H224040   0.805   6.275   4.781
 8033TIP3   OH224041   1.108   5.088   5.188
 8033TIP3    H124042   1.021   5.114   5.154
 8033TIP3    H224043   1.169   5.119   5.118
 8034TIP3   OH224044   0.407   4.715   5.157
 8034TIP3    H124045   0.403   4.619   5.177
 8034TIP3    H224046   0.367   4.752   5.236
 8035TIP3   OH224047   0.510   6.212   4.480
 8035TIP3    H124048   0.558   6.128   4.461
 8035TIP3    H224049   0.576   6.278   4.448
 8036TIP3   OH224050   0.629   5.977   4.413
 8036TIP3    H124051   0.668   5.916   4.346
 8036TIP3    H224052   0.684   5.959   4.492
 8037TIP3   OH224053   1.040   6.100   5.167
 8037TIP3    H124054   1.028   6.020   5.111
 8037TIP3    H224055   1.023   6.172   5.104
 8038TIP3   OH224056   0.332   5.514   4.424
 8038TIP3    H124057   0.253   5.457   4.444
 8038TIP3    H224058   0.360   5.485   4.336
 8039TIP3   OH224059   0.308   5.282   4.139
 8039TIP3    H124060   0.382   5.334   4.178
 8039TIP3    H224061   0.360   5.216   4.089
 8040TIP3   OH224062   1.236   5.739   5.015
 8040TIP3    H124063   1.151   5.789   5.019
 8040TIP3    H224064   1.265   5.760   4.924
 8041TIP3   OH224065   0.682   5.573   4.395
 8041TIP3    H124066   0.630   5.596   4.475
 8041TIP3    H224067   0.767   5.546   4.436
 8042TIP3   OH224068   0.919   5.613   5.314
 8042TIP3    H124069   0.911   5.695   5.365
 8042TIP3    H224070   0.834   5.612   5.267
 8043TIP3   OH224071   0.573   6.180   4.941
 8043TIP3    H124072   0.556   6.262   4.991
 8043TIP3    H224073   0.557   6.109   5.006
 8044TIP3   OH224074   0.518   5.435   4.223
 8044TIP3    H124075   0.577   5.493   4.276
 8044TIP3    H224076   0.548   5.457   4.131
 8045TIP3   OH224077   1.037   4.672   4.272
 8045TIP3    H124078   0.955   4.694   4.322
 8045TIP3    H224079   1.051   4.754   4.221
 8046TIP3   OH224080   0.839   6.039   3.826
 8046TIP3    H124081   0.848   6.135   3.804
 8046TIP3    H224082   0.931   6.008   3.811
 8047TIP3   OH224083   1.271   6.445   5.211
 8047TIP3    H124084   1.273   6.348   5.225
 8047TIP3    H224085   1.188   6.467   5.260
 8048TIP3   OH224086   0.343   6.261   3.932
 8048TIP3    H124087   0.405   6.192   3.902
 8048TIP3    H224088   0.362   6.267   4.027
 8049TIP3   OH224089   0.394   6.311   4.217
 8049TIP3    H124090   0.331   6.313   4.291
 8049TIP3    H224091   0.475   6.286   4.263
 8050TIP3   OH224092   1.168   5.574   5.489
 8050TIP3    H124093   1.083   5.582   5.442
 8050TIP3    H224094   1.185   5.478   5.481
 8051TIP3   OH224095   0.709   4.918   5.493
 8051TIP3    H124096   0.779   4.891   5.556
 8051TIP3    H224097   0.627   4.900   5.542
 8052TIP3   OH224098   0.933   5.347   5.412
 8052TIP3    H124099   0.887   5.342   5.499
 8052TIP3    H224100   0.911   5.437   5.381
 8053TIP3   OH224101   0.594   5.482   3.970
 8053TIP3    H124102   0.560   5.455   3.882
 8053TIP3    H224103   0.682   5.518   3.944
 8054TIP3   OH224104   0.292   4.863   4.252
 8054TIP3    H124105   0.273   4.861   4.349
 8054TIP3    H224106   0.270   4.770   4.230
 8055TIP3   OH224107   0.473   5.297   4.559
 8055TIP3    H124108   0.426   5.372   4.518
 8055TIP3    H224109   0.526   5.262   4.485
 8056TIP3   OH224110   0.662   5.561   5.638
 8056TIP3    H124111   0.638   5.487   5.697
 8056TIP3    H224112   0.757   5.572   5.660
 8057TIP3   OH224113   0.625   5.316   4.795
 8057TIP3    H124114   0.563   5.344   4.724
 8057TIP3    H224115   0.663   5.238   4.750
 8058TIP3   OH224116   0.654   5.566   5.211
 8058TIP3    H124117   0.682   5.487   5.159
 8058TIP3    H224118   0.619   5.520   5.291
 8059TIP3   OH224119   0.322   5.031   4.884
 8059TIP3    H124120   0.238   5.034   4.931
 8059TIP3    H224121   0.387   5.025   4.956
 8060TIP3   OH224122   0.802   5.102   5.098
 8060TIP3    H124123   0.769   5.115   5.190
 8060TIP3    H224124   0.735   5.040   5.064
 8061TIP3   OH224125   0.961   6.794   5.314
 8061TIP3    H124126   0.960   6.815   5.219
 8061TIP3    H224127   1.045   6.838   5.342
 8062TIP3   OH224128   0.403   5.353   4.989
 8062TIP3    H124129   0.475   5.314   4.937
 8062TIP3    H224130   0.417   5.312   5.077
 8063TIP3   OH224131   0.391   5.246   5.279
 8063TIP3    H124132   0.328   5.322   5.273
 8063TIP3    H224133   0.465   5.289   5.326
 8064TIP3   OH224134   1.001   5.883   5.002
 8064TIP3    H124135   1.025   5.932   4.921
 8064TIP3    H224136   0.918   5.838   4.975
 8065TIP3   OH224137   0.555   4.953   4.246
 8065TIP3    H124138   0.458   4.941   4.246
 8065TIP3    H224139   0.567   5.048   4.268
 8066TIP3   OH224140   0.525   5.995   5.366
 8066TIP3    H124141   0.509   5.932   5.438
 8066TIP3    H224142   0.453   6.061   5.379
 8067TIP3   OH224143   0.629   5.205   4.343
 8067TIP3    H124144   0.726   5.205   4.360
 8067TIP3    H224145   0.618   5.284   4.287
 8068TIP3   OH224146   0.241   5.792   4.203
 8068TIP3    H124147   0.176   5.864   4.206
 8068TIP3    H224148   0.197   5.724   4.256
 8069TIP3   OH224149   0.425   5.661   5.744
 8069TIP3    H124150   0.370   5.582   5.727
 8069TIP3    H224151   0.507   5.639   5.695
 8070TIP3   OH224152   0.664   6.249   5.255
 8070TIP3    H124153   0.581   6.204   5.277
 8070TIP3    H224154   0.685   6.293   5.340
 8071TIP3   OH224155   1.066   5.298   4.180
 8071TIP3    H124156   1.004   5.254   4.117
 8071TIP3    H224157   1.068   5.386   4.136
 8072TIP3   OH224158   1.291   6.161   5.253
 8072TIP3    H124159   1.194   6.149   5.245
 8072TIP3    H224160   1.319   6.126   5.165
 8073TIP3   OH224161   0.771   6.112   4.086
 8073TIP3    H124162   0.750   6.031   4.135
 8073TIP3    H224163   0.787   6.077   3.996
 8074TIP3   OH224164   0.772   5.745   4.913
 8074TIP3    H124165   0.680   5.718   4.929
 8074TIP3    H224166   0.807   5.663   4.871
 8075TIP3   OH224167   0.570   5.946   5.104
 8075TIP3    H124168   0.557   5.959   5.201
 8075TIP3    H224169   0.649   5.891   5.101
 8076TIP3   OH224170   0.538   5.845   3.988
 8076TIP3    H124171   0.583   5.820   4.071
 8076TIP3    H224172   0.449   5.808   4.001
 8077TIP3   OH224173   0.808   6.475   5.152
 8077TIP3    H124174   0.732   6.413   5.158
 8077TIP3    H224175   0.777   6.538   5.083
 8078TIP3   OH224176   0.869   6.313   3.804
 8078TIP3    H124177   0.905   6.385   3.750
 8078TIP3    H224178   0.789   6.359   3.838
 8079TIP3   OH224179   0.695   5.786   4.218
 8079TIP3    H124180   0.684   5.709   4.278
 8079TIP3    H224181   0.790   5.774   4.194
 8080TIP3   OH224182   0.725   5.155   5.355
 8080TIP3    H124183   0.806   5.197   5.391
 8080TIP3    H224184   0.717   5.075   5.411
 8081TIP3   OH224185   0.605   4.905   4.525
 8081TIP3    H124186   0.594   4.926   4.430
 8081TIP3    H224187   0.647   4.987   4.559
 8082TIP3   OH224188   0.284   5.105   4.624
 8082TIP3    H124189   0.357   5.169   4.609
 8082TIP3    H224190   0.295   5.086   4.719
 8083TIP3   OH224191   0.580   5.404   5.417
 8083TIP3    H124192   0.591   5.461   5.495
 8083TIP3    H224193   0.631   5.325   5.442
 8084TIP3   OH224194   0.437   4.810   4.724
 8084TIP3    H124195   0.434   4.888   4.783
 8084TIP3    H224196   0.500   4.842   4.656
 8085TIP3   OH224197   1.202   5.308   5.406
 8085TIP3    H124198   1.104   5.307   5.416
 8085TIP3    H224199   1.210   5.250   5.329
 8086TIP3   OH224200   0.854   5.500   4.798
 8086TIP3    H124201   0.778   5.440   4.811
 8086TIP3    H224202   0.926   5.453   4.845
 8087TIP3   OH224203   0.824   6.454   4.748
 8087TIP3    H124204   0.780   6.504   4.675
 8087TIP3    H224205   0.917   6.476   4.725
 8088TIP3   OH224206   0.738   6.352   5.500
 8088TIP3    H124207   0.694   6.302   5.573
 8088TIP3    H224208   0.829   6.323   5.509
 8089TIP3   OH224209   0.493   6.064   3.812
 8089TIP3    H124210   0.536   5.998   3.869
 8089TIP3    H224211   0.548   6.060   3.731
 8090TIP3   OH224212   0.231   5.745   3.930
 8090TIP3    H124213   0.229   5.756   4.026
 8090TIP3    H224214   0.228   5.648   3.921
 8091TIP3   OH224215   0.827   5.981   5.310
 8091TIP3    H124216   0.892   6.036   5.262
 8091TIP3    H224217   0.746   6.034   5.303
 8092TIP3   OH224218   0.047   5.250   4.228
 8092TIP3    H124219   0.026   5.255   4.133
 8092TIP3    H224220   0.144   5.251   4.224
 8093TIP3   OH224221   0.699   5.915   5.714
 8093TIP3    H124222   0.758   5.873   5.651
 8093TIP3    H224223   0.693   5.847   5.784
 8094TIP3   OH224224   0.827   5.568   3.851
 8094TIP3    H124225   0.813   5.523   3.765
 8094TIP3    H224226   0.796   5.658   3.826
 8095TIP3   OH224227   0.264   5.034   5.417
 8095TIP3    H124228   0.318   5.099   5.367
 8095TIP3    H224229   0.232   5.089   5.490
 8096TIP3   OH224230   0.405   5.665   5.331
 8096TIP3    H124231   0.474   5.658   5.262
 8096TIP3    H224232   0.369   5.753   5.316
 8097TIP3   OH224233   0.916   5.584   5.744
 8097TIP3    H124234   0.951   5.519   5.809
 8097TIP3    H224235   0.997   5.623   5.709
 8098TIP3   OH224236   0.958   5.845   5.500
 8098TIP3    H124237   0.901   5.895   5.438
 8098TIP3    H224238   1.046   5.861   5.459
 8099TIP3   OH224239   0.449   4.849   5.560
 8099TIP3    H124240   0.386   4.919   5.532
 8099TIP3    H224241   0.393   4.769   5.550
 8100TIP3   OH224242   0.566   5.357   5.794
 8100TIP3    H124243   0.597   5.349   5.886
 8100TIP3    H224244   0.478   5.317   5.800
 8101TIP3   OH224245   0.806   5.291   5.644
 8101TIP3    H124246   0.734   5.294   5.709
 8101TIP3    H224247   0.882   5.259   5.698
 8102TIP3   OH224248   1.030   5.226   5.802
 8102TIP3    H124249   1.067   5.159   5.863
 8102TIP3    H224250   1.014   5.298   5.867
 8103TIP3   OH224251   0.538   4.859   5.822
 8103TIP3    H124252   0.604   4.787   5.820
 8103TIP3    H224253   0.500   4.853   5.733
 8104TIP3   OH224254   0.616   5.066   5.982
 8104TIP3    H124255   0.594   4.991   5.923
 8104TIP3    H224256   0.530   5.113   5.983
 8105TIP3   OH224257   1.077   6.549   4.705
 8105TIP3    H124258   1.109   6.568   4.795
 8105TIP3    H224259   1.148   6.579   4.647
 8106TIP3   OH224260   1.122   6.559   4.983
 8106TIP3    H124261   1.063   6.481   4.978
 8106TIP3    H224262   1.182   6.527   5.053
 8107TIP3   OH224263   1.151   6.248   5.564
 8107TIP3    H124264   1.078   6.262   5.626
 8107TIP3    H224265   1.194   6.335   5.559
 8108TIP3   OH224266   0.966   5.759   4.180
 8108TIP3    H124267   1.034   5.821   4.147
 8108TIP3    H224268   1.013   5.720   4.258
 8109TIP3   OH224269   1.094   5.628   4.384
 8109TIP3    H124270   1.031   5.583   4.444
 8109TIP3    H224271   1.163   5.659   4.447
 8110TIP3   OH224272   1.153   6.018   4.814
 8110TIP3    H124273   1.206   5.947   4.771
 8110TIP3    H224274   1.146   6.085   4.744
 8111TIP3   OH224275   0.982   6.319   5.004
 8111TIP3    H124276   0.910   6.361   5.057
 8111TIP3    H224277   0.931   6.272   4.935
 8112TIP3   OH224278   1.034   5.534   4.030
 8112TIP3    H124279   0.963   5.533   3.962
 8112TIP3    H224280   1.004   5.609   4.084
 8113TIP3   OH224281   0.895   5.209   3.989
 8113TIP3    H124282   0.870   5.238   3.900
 8113TIP3    H224283   0.875   5.113   3.982
 8114TIP3   OH224284   0.907   5.482   4.528
 8114TIP3    H124285   0.919   5.386   4.519
 8114TIP3    H224286   0.895   5.492   4.625
 8115TIP3   OH224287   1.203   5.907   5.388
 8115TIP3    H124288   1.272   5.838   5.378
 8115TIP3    H224289   1.226   5.968   5.316
 8116TIP3   OH224290   1.384   5.708   5.398
 8116TIP3    H124291   1.309   5.658   5.436
 8116TIP3    H224292   1.457   5.644   5.415
 8117TIP3   OH224293   0.846   4.943   3.974
 8117TIP3    H124294   0.925   4.909   4.021
 8117TIP3    H224295   0.779   4.875   3.990
 8118TIP3   OH224296   0.906   5.198   4.419
 8118TIP3    H124297   0.947   5.109   4.435
 8118TIP3    H224298   0.965   5.230   4.348
 8119TIP3   OH224299   1.065   5.370   4.918
 8119TIP3    H124300   1.151   5.394   4.876
 8119TIP3    H224301   1.082   5.405   5.008
 8120TIP3   OH224302   1.138   5.515   5.147
 8120TIP3    H124303   1.063   5.548   5.199
 8120TIP3    H224304   1.171   5.597   5.104
 8121TIP3   OH224305   1.604   5.119   5.708
 8121TIP3    H124306   1.653   5.046   5.666
 8121TIP3    H224307   1.564   5.162   5.629
 8122TIP3   OH224308   1.012   4.949   4.463
 8122TIP3    H124309   1.063   4.932   4.545
 8122TIP3    H224310   0.953   4.870   4.461
 8123TIP3   OH224311   1.457   5.242   5.510
 8123TIP3    H124312   1.370   5.283   5.531
 8123TIP3    H224313   1.427   5.171   5.450
 8124TIP3   OH224314   1.093   4.879   4.094
 8124TIP3    H124315   1.134   4.809   4.040
 8124TIP3    H224316   1.161   4.949   4.092
 8125TIP3   OH224317   0.662   6.399   4.362
 8125TIP3    H124318   0.715   6.397   4.279
 8125TIP3    H224319   0.700   6.476   4.407
 8126TIP3   OH224320   0.556   6.639   5.297
 8126TIP3    H124321   0.606   6.570   5.251
 8126TIP3    H224322   0.623   6.675   5.359
 8127TIP3   OH224323   1.359   5.009   5.380
 8127TIP3    H124324   1.267   4.993   5.355
 8127TIP3    H224325   1.395   4.917   5.379
 8128TIP3   OH224326   0.539   6.462   5.032
 8128TIP3    H124327   0.451   6.474   5.071
 8128TIP3    H224328   0.551   6.545   4.985
 8129TIP3   OH224329   0.773   6.652   4.939
 8129TIP3    H124330   0.743   6.728   4.887
 8129TIP3    H224331   0.781   6.582   4.870
 8130TIP3   OH224332   0.563   4.920   5.008
 8130TIP3    H124333   0.523   4.843   5.051
 8130TIP3    H224334   0.640   4.881   4.961
 8131TIP3   OH224335   1.081   4.808   4.913
 8131TIP3    H124336   1.119   4.856   4.836
 8131TIP3    H224337   0.986   4.825   4.904
 8132TIP3   OH224338   1.179   4.903   4.677
 8132TIP3    H124339   1.252   4.850   4.640
 8132TIP3    H224340   1.215   4.994   4.662
 8133TIP3   OH224341   0.269   4.662   4.914
 8133TIP3    H124342   0.315   4.709   4.843
 8133TIP3    H224343   0.319   4.688   4.992
 8134TIP3   OH224344   0.793   4.809   4.890
 8134TIP3    H124345   0.805   4.766   4.804
 8134TIP3    H224346   0.786   4.731   4.949
 8135TIP3   OH224347   0.831   4.735   4.453
 8135TIP3    H124348   0.744   4.775   4.470
 8135TIP3    H224349   0.820   4.648   4.498
 8136TIP3   OH224350   0.241   4.855   4.522
 8136TIP3    H124351   0.291   4.804   4.588
 8136TIP3    H224352   0.259   4.946   4.553
 8137TIP3   OH224353   0.805   6.380   4.129
 8137TIP3    H124354   0.797   6.282   4.116
 8137TIP3    H224355   0.763   6.413   4.047
 8138TIP3   OH224356   1.028   6.524   5.318
 8138TIP3    H124357   0.949   6.490   5.270
 8138TIP3    H224358   1.003   6.617   5.328
 8139TIP3   OH224359   2.299   5.897   4.080
 8139TIP3    H124360   2.267   5.987   4.059
 8139TIP3    H224361   2.226   5.844   4.043
 8140TIP3   OH224362   2.296   5.900   4.467
 8140TIP3    H124363   2.332   5.870   4.553
 8140TIP3    H224364   2.258   5.817   4.433
 8141TIP3   OH224365   1.593   5.791   4.832
 8141TIP3    H124366   1.623   5.721   4.893
 8141TIP3    H224367   1.677   5.835   4.813
 8142TIP3   OH224368   2.543   6.201   4.146
 8142TIP3    H124369   2.528   6.130   4.211
 8142TIP3    H224370   2.575   6.274   4.202
 8143TIP3   OH224371   1.568   6.203   4.556
 8143TIP3    H124372   1.561   6.105   4.554
 8143TIP3    H224373   1.665   6.212   4.543
 8144TIP3   OH224374   1.274   5.402   4.335
 8144TIP3    H124375   1.226   5.485   4.349
 8144TIP3    H224376   1.204   5.349   4.292
 8145TIP3   OH224377   1.333   5.690   4.513
 8145TIP3    H124378   1.381   5.611   4.547
 8145TIP3    H224379   1.392   5.720   4.443
 8146TIP3   OH224380   2.194   6.659   4.165
 8146TIP3    H124381   2.234   6.590   4.108
 8146TIP3    H224382   2.191   6.613   4.250
 8147TIP3   OH224383   2.095   6.124   4.513
 8147TIP3    H124384   2.134   6.046   4.469
 8147TIP3    H224385   2.178   6.171   4.536
 8148TIP3   OH224386   3.111   5.441   4.509
 8148TIP3    H124387   3.142   5.525   4.551
 8148TIP3    H224388   3.134   5.457   4.416
 8149TIP3   OH224389   2.508   5.623   4.541
 8149TIP3    H124390   2.552   5.538   4.562
 8149TIP3    H224391   2.477   5.605   4.450
 8150TIP3   OH224392   1.850   5.282   4.506
 8150TIP3    H124393   1.830   5.355   4.444
 8150TIP3    H224394   1.804   5.208   4.461
 8151TIP3   OH224395   2.543   5.377   4.128
 8151TIP3    H124396   2.615   5.361   4.194
 8151TIP3    H224397   2.596   5.410   4.053
 8152TIP3   OH224398   1.481   5.484   4.615
 8152TIP3    H124399   1.564   5.465   4.662
 8152TIP3    H224400   1.494   5.429   4.535
 8153TIP3   OH224401   1.919   5.682   4.416
 8153TIP3    H124402   2.014   5.658   4.424
 8153TIP3    H224403   1.881   5.599   4.380
 8154TIP3   OH224404   3.186   5.651   4.679
 8154TIP3    H124405   3.101   5.696   4.660
 8154TIP3    H224406   3.202   5.681   4.769
 8155TIP3   OH224407   1.844   5.267   4.942
 8155TIP3    H124408   1.784   5.302   4.875
 8155TIP3    H224409   1.791   5.283   5.023
 8156TIP3   OH224410   2.184   6.115   3.952
 8156TIP3    H124411   2.148   6.100   3.863
 8156TIP3    H224412   2.139   6.199   3.977
 8157TIP3   OH224413   1.951   6.042   4.734
 8157TIP3    H124414   1.891   6.111   4.771
 8157TIP3    H224415   1.994   6.090   4.660
 8158TIP3   OH224416   2.749   5.380   4.305
 8158TIP3    H124417   2.738   5.332   4.389
 8158TIP3    H224418   2.802   5.457   4.332
 8159TIP3   OH224419   1.716   5.381   4.725
 8159TIP3    H124420   1.779   5.452   4.749
 8159TIP3    H224421   1.764   5.340   4.650
 8160TIP3   OH224422   1.778   6.239   4.837
 8160TIP3    H124423   1.752   6.324   4.797
 8160TIP3    H224424   1.700   6.221   4.893
 8161TIP3   OH224425   1.166   5.927   4.070
 8161TIP3    H124426   1.131   5.952   3.982
 8161TIP3    H224427   1.202   6.012   4.103
 8162TIP3   OH224428   2.610   6.445   4.312
 8162TIP3    H124429   2.519   6.436   4.350
 8162TIP3    H224430   2.601   6.530   4.265
 8163TIP3   OH224431   2.904   5.341   4.675
 8163TIP3    H124432   2.817   5.368   4.642
 8163TIP3    H224433   2.965   5.373   4.605
 8164TIP3   OH224434   2.198   4.986   4.660
 8164TIP3    H124435   2.178   4.892   4.675
 8164TIP3    H224436   2.121   5.027   4.705
 8165TIP3   OH224437   2.307   6.488   3.980
 8165TIP3    H124438   2.357   6.405   3.963
 8165TIP3    H224439   2.371   6.552   3.941
 8166TIP3   OH224440   2.452   6.273   3.896
 8166TIP3    H124441   2.425   6.192   3.852
 8166TIP3    H224442   2.491   6.238   3.980
 8167TIP3   OH224443   2.836   6.353   4.655
 8167TIP3    H124444   2.825   6.276   4.595
 8167TIP3    H224445   2.820   6.428   4.594
 8168TIP3   OH224446   2.131   5.751   3.914
 8168TIP3    H124447   2.050   5.801   3.891
 8168TIP3    H224448   2.174   5.741   3.827
 8169TIP3   OH224449   2.088   5.536   3.632
 8169TIP3    H124450   2.161   5.588   3.671
 8169TIP3    H224451   2.138   5.468   3.583
 8170TIP3   OH224452   3.032   5.993   4.502
 8170TIP3    H124453   2.948   6.044   4.505
 8170TIP3    H224454   3.063   6.017   4.411
 8171TIP3   OH224455   2.478   5.833   3.882
 8171TIP3    H124456   2.423   5.856   3.961
 8171TIP3    H224457   2.562   5.807   3.925
 8172TIP3   OH224458   2.711   5.868   4.800
 8172TIP3    H124459   2.708   5.951   4.850
 8172TIP3    H224460   2.625   5.872   4.753
 8173TIP3   OH224461   1.709   5.829   4.304
 8173TIP3    H124462   1.665   5.771   4.238
 8173TIP3    H224463   1.784   5.774   4.333
 8174TIP3   OH224464   1.835   6.238   4.450
 8174TIP3    H124465   1.817   6.205   4.361
 8174TIP3    H224466   1.925   6.202   4.467
 8175TIP3   OH224467   1.838   5.801   4.657
 8175TIP3    H124468   1.873   5.772   4.570
 8175TIP3    H224469   1.887   5.884   4.673
 8176TIP3   OH224470   2.367   6.439   4.432
 8176TIP3    H124471   2.359   6.517   4.489
 8176TIP3    H224472   2.354   6.364   4.494
 8177TIP3   OH224473   1.985   6.358   4.979
 8177TIP3    H124474   1.924   6.418   5.027
 8177TIP3    H224475   1.921   6.302   4.930
 8178TIP3   OH224476   2.316   5.690   3.710
 8178TIP3    H124477   2.375   5.750   3.760
 8178TIP3    H224478   2.342   5.710   3.617
 8179TIP3   OH224479   1.740   5.912   5.085
 8179TIP3    H124480   1.742   6.000   5.128
 8179TIP3    H224481   1.645   5.890   5.094
 8180TIP3   OH224482   2.059   6.369   3.990
 8180TIP3    H124483   2.144   6.417   3.994
 8180TIP3    H224484   2.003   6.430   3.941
 8181TIP3   OH224485   1.776   6.523   5.065
 8181TIP3    H124486   1.744   6.522   4.973
 8181TIP3    H224487   1.695   6.504   5.117
 8182TIP3   OH224488   2.833   4.927   3.759
 8182TIP3    H124489   2.751   4.950   3.808
 8182TIP3    H224490   2.848   5.010   3.709
 8183TIP3   OH224491   1.570   5.673   4.116
 8183TIP3    H124492   1.505   5.713   4.054
 8183TIP3    H224493   1.545   5.580   4.112
 8184TIP3   OH224494   2.633   6.296   3.308
 8184TIP3    H124495   2.642   6.392   3.293
 8184TIP3    H224496   2.726   6.266   3.295
 8185TIP3   OH224497   1.357   6.056   5.012
 8185TIP3    H124498   1.290   6.032   4.945
 8185TIP3    H224499   1.395   5.970   5.037
 8186TIP3   OH224500   1.211   6.248   4.639
 8186TIP3    H124501   1.306   6.232   4.629
 8186TIP3    H224502   1.205   6.320   4.703
 8187TIP3   OH224503   3.074   6.701   4.703
 8187TIP3    H124504   3.073   6.604   4.717
 8187TIP3    H224505   2.990   6.726   4.749
 8188TIP3   OH224506   2.179   6.487   4.835
 8188TIP3    H124507   2.177   6.579   4.869
 8188TIP3    H224508   2.110   6.445   4.890
 8189TIP3   OH224509   1.942   6.610   3.790
 8189TIP3    H124510   1.898   6.592   3.705
 8189TIP3    H224511   1.911   6.700   3.813
 8190TIP3   OH224512   1.379   6.462   4.175
 8190TIP3    H124513   1.427   6.451   4.260
 8190TIP3    H224514   1.332   6.377   4.170
 8191TIP3   OH224515   2.142   6.515   3.427
 8191TIP3    H124516   2.201   6.445   3.390
 8191TIP3    H224517   2.178   6.525   3.517
 8192TIP3   OH224518   2.193   6.563   3.697
 8192TIP3    H124519   2.106   6.571   3.740
 8192TIP3    H224520   2.247   6.525   3.768
 8193TIP3   OH224521   2.963   5.829   4.977
 8193TIP3    H124522   2.881   5.838   4.926
 8193TIP3    H224523   2.980   5.733   4.968
 8194TIP3   OH224524   1.557   6.244   5.003
 8194TIP3    H124525   1.611   6.222   5.082
 8194TIP3    H224526   1.487   6.176   5.007
 8195TIP3   OH224527   1.960   5.061   4.788
 8195TIP3    H124528   1.871   5.030   4.758
 8195TIP3    H224529   1.933   5.142   4.836
 8196TIP3   OH224530   2.496   5.174   4.981
 8196TIP3    H124531   2.566   5.148   5.045
 8196TIP3    H224532   2.413   5.156   5.030
 8197TIP3   OH224533   2.730   5.604   4.898
 8197TIP3    H124534   2.680   5.602   4.983
 8197TIP3    H224535   2.708   5.692   4.863
 8198TIP3   OH224536   2.396   5.734   3.457
 8198TIP3    H124537   2.357   5.710   3.370
 8198TIP3    H224538   2.479   5.776   3.429
 8199TIP3   OH224539   2.122   5.099   3.766
 8199TIP3    H124540   2.075   5.096   3.852
 8199TIP3    H224541   2.056   5.052   3.712
 8200TIP3   OH224542   1.892   5.578   4.805
 8200TIP3    H124543   1.842   5.598   4.887
 8200TIP3    H224544   1.875   5.659   4.752
 8201TIP3   OH224545   1.776   5.465   4.320
 8201TIP3    H124546   1.683   5.437   4.337
 8201TIP3    H224547   1.789   5.427   4.230
 8202TIP3   OH224548   2.266   5.550   4.050
 8202TIP3    H124549   2.216   5.620   4.004
 8202TIP3    H224550   2.321   5.515   3.976
 8203TIP3   OH224551   2.441   5.825   5.132
 8203TIP3    H124552   2.419   5.752   5.194
 8203TIP3    H224553   2.536   5.838   5.154
 8204TIP3   OH224554   2.422   5.575   4.284
 8204TIP3    H124555   2.360   5.602   4.213
 8204TIP3    H224556   2.458   5.496   4.240
 8205TIP3   OH224557   1.710   5.605   5.013
 8205TIP3    H124558   1.747   5.664   5.080
 8205TIP3    H224559   1.699   5.521   5.063
 8206TIP3   OH224560   1.304   5.127   4.596
 8206TIP3    H124561   1.380   5.159   4.648
 8206TIP3    H224562   1.344   5.096   4.513
 8207TIP3   OH224563   1.269   5.104   4.118
 8207TIP3    H124564   1.315   5.140   4.039
 8207TIP3    H224565   1.208   5.179   4.134
 8208TIP3   OH224566   2.433   5.820   4.706
 8208TIP3    H124567   2.466   5.749   4.647
 8208TIP3    H224568   2.403   5.766   4.782
 8209TIP3   OH224569   2.109   5.283   4.380
 8209TIP3    H124570   2.026   5.283   4.433
 8209TIP3    H224571   2.177   5.279   4.448
 8210TIP3   OH224572   1.537   5.341   4.388
 8210TIP3    H124573   1.443   5.347   4.358
 8210TIP3    H224574   1.563   5.250   4.364
 8211TIP3   OH224575   1.803   5.349   4.075
 8211TIP3    H124576   1.897   5.352   4.050
 8211TIP3    H224577   1.756   5.361   3.989
 8212TIP3   OH224578   2.595   5.361   4.584
 8212TIP3    H124579   2.561   5.374   4.675
 8212TIP3    H224580   2.528   5.301   4.548
 8213TIP3   OH224581   1.646   5.372   3.853
 8213TIP3    H124582   1.582   5.323   3.799
 8213TIP3    H224583   1.704   5.407   3.782
 8214TIP3   OH224584   2.768   7.051   4.802
 8214TIP3    H124585   2.766   7.073   4.707
 8214TIP3    H224586   2.849   7.097   4.831
 8215TIP3   OH224587   1.721   6.164   5.221
 8215TIP3    H124588   1.803   6.189   5.268
 8215TIP3    H224589   1.659   6.156   5.296
 8216TIP3   OH224590   2.185   5.615   4.477
 8216TIP3    H124591   2.258   5.576   4.426
 8216TIP3    H224592   2.193   5.568   4.563
 8217TIP3   OH224593   1.707   5.102   4.354
 8217TIP3    H124594   1.675   5.022   4.399
 8217TIP3    H224595   1.732   5.068   4.266
 8218TIP3   OH224596   2.162   5.512   4.767
 8218TIP3    H124597   2.072   5.548   4.781
 8218TIP3    H224598   2.219   5.574   4.816
 8219TIP3   OH224599   1.895   5.902   3.860
 8219TIP3    H124600   1.825   5.835   3.849
 8219TIP3    H224601   1.877   5.935   3.952
 8220TIP3   OH224602   2.798   6.137   4.488
 8220TIP3    H124603   2.822   6.188   4.408
 8220TIP3    H224604   2.714   6.094   4.461
 8221TIP3   OH224605   2.363   5.210   3.729
 8221TIP3    H124606   2.269   5.184   3.738
 8221TIP3    H224607   2.363   5.305   3.753
 8222TIP3   OH224608   2.295   6.217   4.859
 8222TIP3    H124609   2.331   6.199   4.946
 8222TIP3    H224610   2.261   6.308   4.867
 8223TIP3   OH224611   2.424   5.463   3.834
 8223TIP3    H124612   2.521   5.468   3.846
 8223TIP3    H224613   2.405   5.542   3.779
 8224TIP3   OH224614   1.592   5.927   4.535
 8224TIP3    H124615   1.629   5.898   4.449
 8224TIP3    H224616   1.638   5.867   4.596
 8225TIP3   OH224617   2.046   6.050   3.686
 8225TIP3    H124618   1.996   6.136   3.690
 8225TIP3    H224619   1.991   5.995   3.745
 8226TIP3   OH224620   1.471   5.847   5.153
 8226TIP3    H124621   1.491   5.828   5.247
 8226TIP3    H224622   1.406   5.777   5.132
 8227TIP3   OH224623   2.201   5.959   5.170
 8227TIP3    H124624   2.141   5.899   5.123
 8227TIP3    H224625   2.288   5.924   5.142
 8228TIP3   OH224626   2.457   6.480   4.756
 8228TIP3    H124627   2.360   6.479   4.769
 8228TIP3    H224628   2.485   6.533   4.834
 8229TIP3   OH224629   2.866   5.554   3.664
 8229TIP3    H124630   2.805   5.509   3.600
 8229TIP3    H224631   2.863   5.643   3.624
 8230TIP3   OH224632   3.087   6.412   4.743
 8230TIP3    H124633   2.989   6.404   4.735
 8230TIP3    H224634   3.114   6.380   4.653
 8231TIP3   OH224635   2.568   6.370   3.572
 8231TIP3    H124636   2.543   6.299   3.632
 8231TIP3    H224637   2.582   6.324   3.487
 8232TIP3   OH224638   2.564   6.000   4.406
 8232TIP3    H124639   2.470   5.975   4.419
 8232TIP3    H224640   2.598   5.919   4.362
 8233TIP3   OH224641   1.694   6.232   4.171
 8233TIP3    H124642   1.695   6.309   4.111
 8233TIP3    H224643   1.602   6.204   4.165
 8234TIP3   OH224644   1.257   5.532   3.863
 8234TIP3    H124645   1.304   5.615   3.887
 8234TIP3    H224646   1.182   5.534   3.927
 8235TIP3   OH224647   1.825   5.992   4.105
 8235TIP3    H124648   1.795   6.082   4.128
 8235TIP3    H224649   1.791   5.940   4.180
 8236TIP3   OH224650   1.963   6.570   4.631
 8236TIP3    H124651   2.006   6.641   4.580
 8236TIP3    H224652   2.039   6.532   4.677
 8237TIP3   OH224653   1.611   6.468   4.014
 8237TIP3    H124654   1.525   6.478   4.060
 8237TIP3    H224655   1.644   6.561   4.017
 8238TIP3   OH224656   2.348   6.206   4.590
 8238TIP3    H124657   2.338   6.202   4.688
 8238TIP3    H224658   2.426   6.150   4.576
 8239TIP3   OH224659   2.327   6.101   3.474
 8239TIP3    H124660   2.380   6.076   3.553
 8239TIP3    H224661   2.240   6.068   3.500
 8240TIP3   OH224662   2.597   6.738   4.641
 8240TIP3    H124663   2.518   6.682   4.634
 8240TIP3    H224664   2.582   6.802   4.568
 8241TIP3   OH224665   2.664   6.572   3.292
 8241TIP3    H124666   2.705   6.647   3.246
 8241TIP3    H224667   2.583   6.616   3.325
 8242TIP3   OH224668   1.682   5.350   5.156
 8242TIP3    H124669   1.585   5.351   5.168
 8242TIP3    H224670   1.710   5.292   5.228
 8243TIP3   OH224671   2.488   6.036   3.692
 8243TIP3    H124672   2.476   5.967   3.760
 8243TIP3    H224673   2.585   6.029   3.677
 8244TIP3   OH224674   1.410   6.445   4.799
 8244TIP3    H124675   1.444   6.354   4.791
 8244TIP3    H224676   1.453   6.469   4.882
 8245TIP3   OH224677   1.688   6.078   3.475
 8245TIP3    H124678   1.702   5.986   3.446
 8245TIP3    H224679   1.666   6.065   3.569
 8246TIP3   OH224680   1.631   6.084   3.749
 8246TIP3    H124681   1.711   6.054   3.795
 8246TIP3    H224682   1.639   6.181   3.756
 8247TIP3   OH224683   1.369   5.774   3.950
 8247TIP3    H124684   1.302   5.820   4.005
 8247TIP3    H224685   1.385   5.842   3.881
 8248TIP3   OH224686   2.520   5.414   4.844
 8248TIP3    H124687   2.603   5.452   4.879
 8248TIP3    H224688   2.510   5.333   4.898
 8249TIP3   OH224689   2.404   5.159   4.010
 8249TIP3    H124690   2.388   5.180   3.916
 8249TIP3    H224691   2.441   5.244   4.043
 8250TIP3   OH224692   1.902   6.279   3.695
 8250TIP3    H124693   1.815   6.306   3.730
 8250TIP3    H224694   1.918   6.350   3.631
 8251TIP3   OH224695   2.090   5.344   4.109
 8251TIP3    H124696   2.153   5.418   4.092
 8251TIP3    H224697   2.095   5.337   4.207
 8252TIP3   OH224698   2.360   5.660   4.914
 8252TIP3    H124699   2.385   5.710   4.994
 8252TIP3    H224700   2.413   5.579   4.922
 8253TIP3   OH224701   2.232   5.065   4.209
 8253TIP3    H124702   2.222   5.145   4.264
 8253TIP3    H224703   2.294   5.098   4.140
 8254TIP3   OH224704   1.648   6.357   3.763
 8254TIP3    H124705   1.618   6.427   3.700
 8254TIP3    H224706   1.632   6.400   3.849
 8255TIP3   OH224707   1.736   5.059   4.033
 8255TIP3    H124708   1.735   5.156   4.031
 8255TIP3    H224709   1.830   5.043   4.012
 8256TIP3   OH224710   2.997   5.563   4.898
 8256TIP3    H124711   2.899   5.561   4.904
 8256TIP3    H224712   3.010   5.518   4.813
 8257TIP3   OH224713   2.649   5.757   4.285
 8257TIP3    H124714   2.574   5.696   4.296
 8257TIP3    H224715   2.721   5.709   4.333
 8258TIP3   OH224716   1.365   5.981   3.752
 8258TIP3    H124717   1.439   6.045   3.761
 8258TIP3    H224718   1.406   5.921   3.686
 8259TIP3   OH224719   1.298   5.261   3.899
 8259TIP3    H124720   1.308   5.357   3.887
 8259TIP3    H224721   1.245   5.237   3.822
 8260TIP3   OH224722   2.617   6.717   4.230
 8260TIP3    H124723   2.577   6.763   4.154
 8260TIP3    H224724   2.712   6.734   4.212
 8261TIP3   OH224725   1.694   4.983   4.759
 8261TIP3    H124726   1.664   4.948   4.672
 8261TIP3    H224727   1.684   4.905   4.817
 8262TIP3   OH224728   1.235   6.205   4.138
 8262TIP3    H124729   1.165   6.232   4.199
 8262TIP3    H224730   1.203   6.244   4.054
 8263TIP3   OH224731   1.385   6.741   5.210
 8263TIP3    H124732   1.473   6.747   5.254
 8263TIP3    H224733   1.370   6.645   5.215
 8264TIP3   OH224734   1.865   6.703   5.258
 8264TIP3    H124735   1.960   6.689   5.268
 8264TIP3    H224736   1.845   6.642   5.184
 8265TIP3   OH224737   1.853   6.280   3.385
 8265TIP3    H124738   1.797   6.207   3.422
 8265TIP3    H224739   1.929   6.228   3.352
 8266TIP3   OH224740   2.507   6.614   4.994
 8266TIP3    H124741   2.501   6.543   5.062
 8266TIP3    H224742   2.586   6.664   5.022
 8267TIP3   OH224743   2.288   6.319   3.298
 8267TIP3    H124744   2.329   6.254   3.359
 8267TIP3    H224745   2.347   6.316   3.221
 8268TIP3   OH224746   1.520   6.150   5.414
 8268TIP3    H124747   1.539   6.054   5.421
 8268TIP3    H224748   1.434   6.149   5.366
 8269TIP3   OH224749   1.499   5.795   3.609
 8269TIP3    H124750   1.556   5.760   3.680
 8269TIP3    H224751   1.565   5.800   3.536
 8270TIP3   OH224752   2.125   6.234   5.188
 8270TIP3    H124753   2.090   6.253   5.099
 8270TIP3    H224754   2.159   6.142   5.178
 8271TIP3   OH224755   2.013   5.999   3.416
 8271TIP3    H124756   2.015   6.009   3.513
 8271TIP3    H224757   2.017   5.901   3.408
 8272TIP3   OH224758   2.620   6.247   4.795
 8272TIP3    H124759   2.698   6.287   4.751
 8272TIP3    H224760   2.553   6.315   4.777
 8273TIP3   OH224761   1.642   5.890   5.395
 8273TIP3    H124762   1.714   5.832   5.368
 8273TIP3    H224763   1.671   5.918   5.484
 8274TIP3   OH224764   1.704   5.704   3.826
 8274TIP3    H124765   1.682   5.654   3.906
 8274TIP3    H224766   1.745   5.634   3.770
 8275TIP3   OH224767   1.974   5.765   5.056
 8275TIP3    H124768   1.897   5.827   5.057
 8275TIP3    H224769   2.027   5.800   4.981
 8276TIP3   OH224770   1.812   5.499   3.676
 8276TIP3    H124771   1.789   5.466   3.587
 8276TIP3    H224772   1.909   5.501   3.669
 8277TIP3   OH224773   2.494   6.169   5.189
 8277TIP3    H124774   2.572   6.138   5.141
 8277TIP3    H224775   2.489   6.104   5.262
 8278TIP3   OH224776   2.627   5.826   3.335
 8278TIP3    H124777   2.608   5.782   3.250
 8278TIP3    H224778   2.594   5.916   3.313
 8279TIP3   OH224779   2.099   5.557   5.182
 8279TIP3    H124780   2.100   5.477   5.125
 8279TIP3    H224781   2.055   5.623   5.124
 8280TIP3   OH224782   2.103   5.343   4.992
 8280TIP3    H124783   2.131   5.384   4.907
 8280TIP3    H224784   2.009   5.320   4.972
 8281TIP3   OH224785   2.126   5.876   4.865
 8281TIP3    H124786   2.212   5.886   4.822
 8281TIP3    H224787   2.071   5.942   4.817
 8282TIP3   OH224788   2.709   5.843   5.242
 8282TIP3    H124789   2.755   5.759   5.255
 8282TIP3    H224790   2.779   5.899   5.206
 8283TIP3   OH224791   2.750   6.099   4.981
 8283TIP3    H124792   2.693   6.154   4.922
 8283TIP3    H224793   2.838   6.119   4.942
 8284TIP3   OH224794   1.977   5.664   5.415
 8284TIP3    H124795   1.910   5.593   5.430
 8284TIP3    H224796   2.011   5.639   5.327
 8285TIP3   OH224797   2.233   5.104   5.059
 8285TIP3    H124798   2.184   5.186   5.037
 8285TIP3    H224799   2.164   5.036   5.048
 8286TIP3   OH224800   2.359   5.608   5.275
 8286TIP3    H124801   2.346   5.592   5.370
 8286TIP3    H224802   2.270   5.584   5.242
 8287TIP3   OH224803   2.598   5.561   5.130
 8287TIP3    H124804   2.524   5.560   5.194
 8287TIP3    H224805   2.673   5.530   5.185
 8288TIP3   OH224806   2.826   5.500   5.279
 8288TIP3    H124807   2.841   5.404   5.295
 8288TIP3    H224808   2.824   5.537   5.369
 8289TIP3   OH224809   1.817   5.444   5.469
 8289TIP3    H124810   1.820   5.352   5.436
 8289TIP3    H224811   1.856   5.431   5.558
 8290TIP3   OH224812   2.328   5.115   5.317
 8290TIP3    H124813   2.394   5.044   5.311
 8290TIP3    H224814   2.288   5.109   5.228
 8291TIP3   OH224815   2.395   5.330   5.475
 8291TIP3    H124816   2.374   5.258   5.411
 8291TIP3    H224817   2.316   5.387   5.468
 8292TIP3   OH224818   1.617   6.561   3.577
 8292TIP3    H124819   1.712   6.551   3.557
 8292TIP3    H224820   1.589   6.611   3.497
 8293TIP3   OH224821   1.097   5.939   3.792
 8293TIP3    H124822   1.191   5.961   3.774
 8293TIP3    H224823   1.089   5.851   3.750
 8294TIP3   OH224824   1.010   6.552   4.207
 8294TIP3    H124825   0.945   6.491   4.166
 8294TIP3    H224826   1.054   6.492   4.270
 8295TIP3   OH224827   1.144   6.400   4.394
 8295TIP3    H124828   1.134   6.326   4.456
 8295TIP3    H224829   1.196   6.462   4.448
 8296TIP3   OH224830   2.873   6.803   4.193
 8296TIP3    H124831   2.903   6.838   4.279
 8296TIP3    H224832   2.937   6.842   4.132
 8297TIP3   OH224833   2.901   6.824   4.477
 8297TIP3    H124834   2.857   6.737   4.471
 8297TIP3    H224835   2.978   6.799   4.531
 8298TIP3   OH224836   2.947   6.501   5.048
 8298TIP3    H124837   2.876   6.511   5.114
 8298TIP3    H224838   2.991   6.588   5.052
 8299TIP3   OH224839   2.765   6.013   3.666
 8299TIP3    H124840   2.832   6.078   3.635
 8299TIP3    H224841   2.810   5.975   3.745
 8300TIP3   OH224842   2.893   5.880   3.870
 8300TIP3    H124843   2.826   5.839   3.929
 8300TIP3    H224844   2.958   5.916   3.934
 8301TIP3   OH224845   2.949   6.274   4.302
 8301TIP3    H124846   3.001   6.206   4.255
 8301TIP3    H224847   2.946   6.347   4.236
 8302TIP3   OH224848   2.777   6.574   4.496
 8302TIP3    H124849   2.704   6.615   4.547
 8302TIP3    H224850   2.728   6.527   4.425
 8303TIP3   OH224851   2.830   5.789   3.516
 8303TIP3    H124852   2.758   5.790   3.448
 8303TIP3    H224853   2.801   5.865   3.571
 8304TIP3   OH224854   2.702   5.460   3.468
 8304TIP3    H124855   2.655   5.496   3.392
 8304TIP3    H224856   2.679   5.365   3.461
 8305TIP3   OH224857   2.705   5.739   4.015
 8305TIP3    H124858   2.712   5.642   4.006
 8305TIP3    H224859   2.691   5.750   4.112
 8306TIP3   OH224860   1.330   5.814   4.762
 8306TIP3    H124861   1.329   5.778   4.671
 8306TIP3    H224862   1.427   5.814   4.780
 8307TIP3   OH224863   2.996   6.163   4.874
 8307TIP3    H124864   3.067   6.096   4.864
 8307TIP3    H224865   3.022   6.230   4.809
 8308TIP3   OH224866   3.178   5.964   4.885
 8308TIP3    H124867   3.104   5.914   4.925
 8308TIP3    H224868   3.252   5.901   4.901
 8309TIP3   OH224869   2.645   5.194   3.451
 8309TIP3    H124870   2.715   5.162   3.511
 8309TIP3    H224871   2.568   5.138   3.473
 8310TIP3   OH224872   2.704   5.455   3.909
 8310TIP3    H124873   2.744   5.366   3.924
 8310TIP3    H224874   2.762   5.487   3.837
 8311TIP3   OH224875   2.862   5.625   4.406
 8311TIP3    H124876   2.948   5.650   4.364
 8311TIP3    H224877   2.878   5.662   4.495
 8312TIP3   OH224878   2.935   5.772   4.636
 8312TIP3    H124879   2.857   5.806   4.684
 8312TIP3    H224880   2.968   5.852   4.591
 8313TIP3   OH224881   1.551   5.498   5.445
 8313TIP3    H124882   1.649   5.490   5.445
 8313TIP3    H224883   1.527   5.410   5.479
 8314TIP3   OH224884   3.381   5.363   5.191
 8314TIP3    H124885   3.444   5.299   5.151
 8314TIP3    H224886   3.354   5.416   5.114
 8315TIP3   OH224887   2.812   5.205   3.948
 8315TIP3    H124888   2.859   5.187   4.032
 8315TIP3    H224889   2.750   5.128   3.946
 8316TIP3   OH224890   1.510   5.191   4.772
 8316TIP3    H124891   1.570   5.115   4.778
 8316TIP3    H224892   1.574   5.264   4.760
 8317TIP3   OH224893   1.310   5.464   4.837
 8317TIP3    H124894   1.360   5.457   4.754
 8317TIP3    H224895   1.348   5.543   4.876
 8318TIP3   OH224896   3.253   5.501   4.994
 8318TIP3    H124897   3.167   5.543   5.014
 8318TIP3    H224898   3.223   5.427   4.938
 8319TIP3   OH224899   2.890   5.135   3.584
 8319TIP3    H124900   2.929   5.066   3.527
 8319TIP3    H224901   2.957   5.207   3.578
 8320TIP3   OH224902   1.299   4.967   4.347
 8320TIP3    H124903   1.205   4.960   4.370
 8320TIP3    H224904   1.295   5.024   4.267
 8321TIP3   OH224905   2.455   6.672   3.848
 8321TIP3    H124906   2.506   6.660   3.765
 8321TIP3    H224907   2.510   6.735   3.897
 8322TIP3   OH224908   1.521   5.051   5.154
 8322TIP3    H124909   1.468   5.040   5.235
 8322TIP3    H224910   1.453   5.085   5.092
 8323TIP3   OH224911   1.552   6.484   5.228
 8323TIP3    H124912   1.463   6.446   5.217
 8323TIP3    H224913   1.577   6.455   5.316
 8324TIP3   OH224914   1.735   6.512   4.781
 8324TIP3    H124915   1.693   6.588   4.737
 8324TIP3    H224916   1.824   6.519   4.740
 8325TIP3   OH224917   2.177   6.753   4.919
 8325TIP3    H124918   2.220   6.751   5.007
 8325TIP3    H224919   2.243   6.803   4.867
 8326TIP3   OH224920   2.356   6.906   4.779
 8326TIP3    H124921   2.426   6.855   4.734
 8326TIP3    H224922   2.411   6.961   4.839
 8327TIP3   OH224923   3.154   5.264   4.877
 8327TIP3    H124924   3.064   5.253   4.841
 8327TIP3    H224925   3.189   5.172   4.868
 8328TIP3   OH224926   1.411   6.808   4.844
 8328TIP3    H124927   1.337   6.798   4.782
 8328TIP3    H224928   1.430   6.714   4.867
 8329TIP3   OH224929   1.643   6.743   4.665
 8329TIP3    H124930   1.566   6.786   4.705
 8329TIP3    H224931   1.635   6.769   4.571
 8330TIP3   OH224932   2.071   6.768   4.464
 8330TIP3    H124933   2.008   6.788   4.393
 8330TIP3    H224934   2.086   6.857   4.503
 8331TIP3   OH224935   2.343   6.710   4.516
 8331TIP3    H124936   2.250   6.727   4.493
 8331TIP3    H224937   2.389   6.780   4.468
 8332TIP3   OH224938   2.545   6.899   4.425
 8332TIP3    H124939   2.534   6.985   4.377
 8332TIP3    H224940   2.575   6.840   4.352
 8333TIP3   OH224941   1.326   6.559   4.560
 8333TIP3    H124942   1.357   6.520   4.645
 8333TIP3    H224943   1.393   6.518   4.500
 8334TIP3   OH224944   1.516   6.432   4.412
 8334TIP3    H124945   1.533   6.345   4.456
 8334TIP3    H224946   1.607   6.466   4.403
 8335TIP3   OH224947   1.784   6.523   4.415
 8335TIP3    H124948   1.814   6.432   4.396
 8335TIP3    H224949   1.837   6.541   4.495
 8336TIP3   OH224950   2.361   5.181   4.500
 8336TIP3    H124951   2.317   5.109   4.549
 8336TIP3    H224952   2.433   5.135   4.453
 8337TIP3   OH224953   2.878   5.062   4.403
 8337TIP3    H124954   2.916   5.111   4.326
 8337TIP3    H224955   2.783   5.080   4.394
 8338TIP3   OH224956   2.976   5.158   4.166
 8338TIP3    H124957   3.049   5.106   4.127
 8338TIP3    H224958   3.010   5.249   4.151
 8339TIP3   OH224959   1.606   4.888   4.513
 8339TIP3    H124960   1.513   4.855   4.516
 8339TIP3    H224961   1.654   4.802   4.506
 8340TIP3   OH224962   1.397   4.759   4.160
 8340TIP3    H124963   1.429   4.815   4.086
 8340TIP3    H224964   1.372   4.827   4.226
 8341TIP3   OH224965   2.060   4.911   4.396
 8341TIP3    H124966   2.108   4.963   4.329
 8341TIP3    H224967   2.077   4.962   4.476
 8342TIP3   OH224968   2.593   5.067   4.377
 8342TIP3    H124969   2.599   5.031   4.287
 8342TIP3    H224970   2.584   4.985   4.430
 8343TIP3   OH224971   2.628   4.993   3.939
 8343TIP3    H124972   2.542   5.036   3.954
 8343TIP3    H224973   2.613   4.907   3.983
 8344TIP3   OH224974   1.109   6.334   3.939
 8344TIP3    H124975   1.024   6.300   3.905
 8344TIP3    H224976   1.100   6.427   3.911
 8345TIP3   OH224977   1.514   4.914   3.928
 8345TIP3    H124978   1.562   4.855   3.866
 8345TIP3    H224979   1.588   4.968   3.964
 8346TIP3   OH224980   2.019   5.095   4.023
 8346TIP3    H124981   2.080   5.048   4.081
 8346TIP3    H224982   2.043   5.188   4.046
 8347TIP3   OH224983   1.883   6.515   3.523
 8347TIP3    H124984   1.972   6.537   3.487
 8347TIP3    H224985   1.861   6.440   3.462
 8348TIP3   OH224986   2.601   6.638   3.617
 8348TIP3    H124987   2.594   6.540   3.604
 8348TIP3    H224988   2.558   6.669   3.535
 8349TIP3   OH224989   1.814   5.171   5.405
 8349TIP3    H124990   1.777   5.100   5.460
 8349TIP3    H224991   1.908   5.168   5.433
 8350TIP3   OH224992   2.065   5.167   5.523
 8350TIP3    H124993   2.150   5.139   5.485
 8350TIP3    H224994   2.051   5.097   5.591
 8351TIP3   OH224995   1.188   6.353   3.576
 8351TIP3    H124996   1.195   6.373   3.670
 8351TIP3    H224997   1.275   6.309   3.558
 8352TIP3   OH224998   2.891   5.230   5.309
 8352TIP3    H124999   2.909   5.198   5.401
 8352TIP3    H225000   2.981   5.225   5.269
 8353TIP3   OH225001   2.825   6.780   4.804
 8353TIP3    H125002   2.748   6.750   4.752
 8353TIP3    H225003   2.807   6.876   4.808
 8354TIP3   OH225004   4.087   6.157   3.577
 8354TIP3    H125005   4.058   6.246   3.549
 8354TIP3    H225006   4.019   6.103   3.532
 8355TIP3   OH225007   4.095   6.157   3.953
 8355TIP3    H125008   4.128   6.125   4.039
 8355TIP3    H225009   4.055   6.078   3.915
 8356TIP3   OH225010   3.391   6.046   4.317
 8356TIP3    H125011   3.421   5.977   4.379
 8356TIP3    H225012   3.472   6.097   4.305
 8357TIP3   OH225013   4.340   6.458   3.633
 8357TIP3    H125014   4.321   6.388   3.696
 8357TIP3    H225015   4.371   6.530   3.689
 8358TIP3   OH225016   3.366   6.458   4.038
 8358TIP3    H125017   3.358   6.361   4.039
 8358TIP3    H225018   3.463   6.467   4.029
 8359TIP3   OH225019   3.072   5.658   3.820
 8359TIP3    H125020   3.024   5.741   3.838
 8359TIP3    H225021   3.001   5.606   3.778
 8360TIP3   OH225022   3.129   5.947   4.000
 8360TIP3    H125023   3.179   5.869   4.034
 8360TIP3    H225024   3.189   5.982   3.933
 8361TIP3   OH225025   3.992   6.919   3.652
 8361TIP3    H125026   4.032   6.848   3.597
 8361TIP3    H225027   3.981   6.874   3.736
 8362TIP3   OH225028   3.891   6.380   3.999
 8362TIP3    H125029   3.931   6.304   3.954
 8362TIP3    H225030   3.974   6.427   4.024
 8363TIP3   OH225031   4.909   5.698   3.997
 8363TIP3    H125032   4.938   5.781   4.040
 8363TIP3    H225033   4.927   5.719   3.903
 8364TIP3   OH225034   4.303   5.878   4.028
 8364TIP3    H125035   4.347   5.793   4.049
 8364TIP3    H225036   4.273   5.862   3.937
 8365TIP3   OH225037   3.646   5.539   3.993
 8365TIP3    H125038   3.626   5.612   3.931
 8365TIP3    H225039   3.597   5.466   3.950
 8366TIP3   OH225040   4.340   5.631   3.616
 8366TIP3    H125041   4.412   5.617   3.681
 8366TIP3    H225042   4.391   5.668   3.541
 8367TIP3   OH225043   3.277   5.740   4.102
 8367TIP3    H125044   3.360   5.722   4.150
 8367TIP3    H225045   3.291   5.685   4.022
 8368TIP3   OH225046   3.716   5.938   3.900
 8368TIP3    H125047   3.810   5.915   3.910
 8368TIP3    H225048   3.678   5.855   3.865
 8369TIP3   OH225049   4.981   5.907   4.167
 8369TIP3    H125050   4.897   5.953   4.147
 8369TIP3    H225051   5.001   5.941   4.255
 8370TIP3   OH225052   3.640   5.523   4.429
 8370TIP3    H125053   3.580   5.560   4.361
 8370TIP3    H225054   3.587   5.540   4.510
 8371TIP3   OH225055   3.982   6.373   3.436
 8371TIP3    H125056   3.954   6.358   3.344
 8371TIP3    H225057   3.931   6.453   3.460
 8372TIP3   OH225058   3.747   6.299   4.221
 8372TIP3    H125059   3.687   6.368   4.257
 8372TIP3    H225060   3.790   6.347   4.147
 8373TIP3   OH225061   4.546   5.634   3.794
 8373TIP3    H125062   4.525   5.596   3.880
 8373TIP3    H225063   4.597   5.714   3.818
 8374TIP3   OH225064   3.512   5.637   4.212
 8374TIP3    H125065   3.574   5.710   4.236
 8374TIP3    H225066   3.561   5.597   4.137
 8375TIP3   OH225067   3.576   6.495   4.322
 8375TIP3    H125068   3.550   6.582   4.284
 8375TIP3    H225069   3.496   6.478   4.377
 8376TIP3   OH225070   2.966   6.184   3.557
 8376TIP3    H125071   2.926   6.212   3.472
 8376TIP3    H225072   2.998   6.269   3.593
 8377TIP3   OH225073   4.407   6.701   3.799
 8377TIP3    H125074   4.317   6.692   3.838
 8377TIP3    H225075   4.398   6.787   3.752
 8378TIP3   OH225076   4.700   5.596   4.160
 8378TIP3    H125077   4.613   5.626   4.129
 8378TIP3    H225078   4.760   5.631   4.091
 8379TIP3   OH225079   3.992   5.243   4.144
 8379TIP3    H125080   3.976   5.149   4.165
 8379TIP3    H225081   3.916   5.284   4.191
 8380TIP3   OH225082   4.105   6.745   3.468
 8380TIP3    H125083   4.154   6.661   3.451
 8380TIP3    H225084   4.168   6.809   3.428
 8381TIP3   OH225085   4.248   6.528   3.382
 8381TIP3    H125086   4.208   6.448   3.345
 8381TIP3    H225087   4.288   6.494   3.465
 8382TIP3   OH225088   4.633   6.610   4.142
 8382TIP3    H125089   4.621   6.532   4.082
 8382TIP3    H225090   4.615   6.684   4.081
 8383TIP3   OH225091   3.931   6.009   3.396
 8383TIP3    H125092   3.850   6.061   3.377
 8383TIP3    H225093   3.980   6.018   3.312
 8384TIP3   OH225094   3.886   5.794   3.114
 8384TIP3    H125095   3.952   5.852   3.157
 8384TIP3    H225096   3.945   5.733   3.066
 8385TIP3   OH225097   4.827   6.248   3.987
 8385TIP3    H125098   4.744   6.300   3.991
 8385TIP3    H225099   4.859   6.273   3.898
 8386TIP3   OH225100   4.263   6.036   3.399
 8386TIP3    H125101   4.216   6.089   3.466
 8386TIP3    H225102   4.356   6.052   3.423
 8387TIP3   OH225103   4.507   6.125   4.287
 8387TIP3    H125104   4.505   6.208   4.337
 8387TIP3    H225105   4.421   6.129   4.241
 8388TIP3   OH225106   3.504   6.083   3.791
 8388TIP3    H125107   3.463   6.026   3.722
 8388TIP3    H225108   3.581   6.030   3.819
 8389TIP3   OH225109   3.634   6.496   3.936
 8389TIP3    H125110   3.614   6.462   3.847
 8389TIP3    H225111   3.723   6.459   3.953
 8390TIP3   OH225112   3.638   6.056   4.144
 8390TIP3    H125113   3.671   6.030   4.055
 8390TIP3    H225114   3.683   6.142   4.160
 8391TIP3   OH225115   4.166   6.695   3.920
 8391TIP3    H125116   4.154   6.774   3.976
 8391TIP3    H225117   4.151   6.621   3.982
 8392TIP3   OH225118   3.780   6.613   4.467
 8392TIP3    H125119   3.719   6.674   4.512
 8392TIP3    H225120   3.717   6.559   4.415
 8393TIP3   OH225121   4.116   5.964   3.182
 8393TIP3    H125122   4.176   6.002   3.250
 8393TIP3    H225123   4.129   6.033   3.112
 8394TIP3   OH225124   3.536   6.167   4.572
 8394TIP3    H125125   3.540   6.256   4.613
 8394TIP3    H225126   3.441   6.147   4.582
 8395TIP3   OH225127   3.856   6.625   3.476
 8395TIP3    H125128   3.940   6.674   3.482
 8395TIP3    H225129   3.799   6.685   3.428
 8396TIP3   OH225130   3.573   6.779   4.554
 8396TIP3    H125131   3.539   6.781   4.462
 8396TIP3    H225132   3.492   6.758   4.606
 8397TIP3   OH225133   4.628   5.183   3.247
 8397TIP3    H125134   4.547   5.207   3.296
 8397TIP3    H225135   4.644   5.266   3.197
 8398TIP3   OH225136   3.371   5.928   3.593
 8398TIP3    H125137   3.304   5.972   3.537
 8398TIP3    H225138   3.334   5.840   3.603
 8399TIP3   OH225139   4.429   6.553   2.798
 8399TIP3    H125140   4.440   6.649   2.779
 8399TIP3    H225141   4.520   6.520   2.781
 8400TIP3   OH225142   3.152   6.312   4.500
 8400TIP3    H125143   3.086   6.291   4.431
 8400TIP3    H225144   3.190   6.225   4.522
 8401TIP3   OH225145   3.007   6.504   4.133
 8401TIP3    H125146   3.103   6.497   4.121
 8401TIP3    H225147   3.000   6.583   4.188
 8402TIP3   OH225148   4.869   6.956   4.192
 8402TIP3    H125149   4.868   6.859   4.204
 8402TIP3    H225150   4.783   6.979   4.234
 8403TIP3   OH225151   3.977   6.741   4.324
 8403TIP3    H125152   3.973   6.834   4.356
 8403TIP3    H225153   3.905   6.700   4.378
 8404TIP3   OH225154   3.740   6.869   3.275
 8404TIP3    H125155   3.692   6.851   3.192
 8404TIP3    H225156   3.705   6.956   3.301
 8405TIP3   OH225157   3.176   6.717   3.661
 8405TIP3    H125158   3.223   6.709   3.747
 8405TIP3    H225159   3.123   6.635   3.662
 8406TIP3   OH225160   3.940   6.768   2.911
 8406TIP3    H125161   3.999   6.697   2.878
 8406TIP3    H225162   3.974   6.779   3.003
 8407TIP3   OH225163   3.991   6.821   3.181
 8407TIP3    H125164   3.903   6.830   3.224
 8407TIP3    H225165   4.041   6.776   3.251
 8408TIP3   OH225166   4.759   6.085   4.465
 8408TIP3    H125167   4.676   6.095   4.415
 8408TIP3    H225168   4.775   5.989   4.456
 8409TIP3   OH225169   3.356   6.495   4.486
 8409TIP3    H125170   3.406   6.477   4.568
 8409TIP3    H225171   3.282   6.432   4.493
 8410TIP3   OH225172   3.755   5.318   4.274
 8410TIP3    H125173   3.667   5.288   4.245
 8410TIP3    H225174   3.730   5.399   4.322
 8411TIP3   OH225175   4.292   5.431   4.468
 8411TIP3    H125176   4.362   5.404   4.532
 8411TIP3    H225177   4.210   5.412   4.517
 8412TIP3   OH225178   4.527   5.861   4.386
 8412TIP3    H125179   4.477   5.859   4.470
 8412TIP3    H225180   4.504   5.949   4.350
 8413TIP3   OH225181   3.902   5.363   3.245
 8413TIP3    H125182   3.867   5.361   3.336
 8413TIP3    H225183   3.861   5.282   3.210
 8414TIP3   OH225184   3.688   5.834   4.292
 8414TIP3    H125185   3.638   5.855   4.373
 8414TIP3    H225186   3.672   5.915   4.239
 8415TIP3   OH225187   3.572   5.720   3.805
 8415TIP3    H125188   3.479   5.694   3.824
 8415TIP3    H225189   3.584   5.679   3.717
 8416TIP3   OH225190   4.060   5.804   3.532
 8416TIP3    H125191   4.012   5.878   3.489
 8416TIP3    H225192   4.120   5.778   3.459
 8417TIP3   OH225193   4.237   6.081   4.618
 8417TIP3    H125194   4.215   6.008   4.681
 8417TIP3    H225195   4.331   6.095   4.640
 8418TIP3   OH225196   4.218   5.833   3.770
 8418TIP3    H125197   4.158   5.864   3.700
 8418TIP3    H225198   4.252   5.753   3.725
 8419TIP3   OH225199   3.507   5.861   4.500
 8419TIP3    H125200   3.540   5.924   4.567
 8419TIP3    H225201   3.497   5.779   4.552
 8420TIP3   OH225202   3.557   5.339   3.210
 8420TIP3    H125203   3.547   5.339   3.307
 8420TIP3    H225204   3.480   5.394   3.184
 8421TIP3   OH225205   3.100   5.381   4.083
 8421TIP3    H125206   3.176   5.415   4.135
 8421TIP3    H225207   3.141   5.353   4.000
 8422TIP3   OH225208   3.067   5.363   3.600
 8422TIP3    H125209   3.113   5.400   3.521
 8422TIP3    H225210   3.006   5.437   3.619
 8423TIP3   OH225211   4.230   6.077   4.194
 8423TIP3    H125212   4.263   6.006   4.135
 8423TIP3    H225213   4.199   6.023   4.270
 8424TIP3   OH225214   3.903   5.537   3.866
 8424TIP3    H125215   3.822   5.539   3.919
 8424TIP3    H225216   3.972   5.538   3.934
 8425TIP3   OH225217   3.333   5.598   3.874
 8425TIP3    H125218   3.239   5.606   3.845
 8425TIP3    H225219   3.356   5.507   3.851
 8426TIP3   OH225220   3.600   5.592   3.564
 8426TIP3    H125221   3.693   5.608   3.542
 8426TIP3    H225222   3.553   5.615   3.480
 8427TIP3   OH225223   4.392   5.617   4.067
 8427TIP3    H125224   4.361   5.630   4.160
 8427TIP3    H225225   4.322   5.557   4.035
 8428TIP3   OH225226   3.449   5.627   3.340
 8428TIP3    H125227   3.378   5.583   3.290
 8428TIP3    H225228   3.501   5.666   3.267
 8429TIP3   OH225229   4.563   7.306   4.287
 8429TIP3    H125230   4.560   7.330   4.193
 8429TIP3    H225231   4.642   7.356   4.317
 8430TIP3   OH225232   3.519   6.417   4.708
 8430TIP3    H125233   3.599   6.446   4.756
 8430TIP3    H225234   3.454   6.415   4.782
 8431TIP3   OH225235   3.980   5.868   3.963
 8431TIP3    H125236   4.056   5.834   3.914
 8431TIP3    H225237   3.990   5.825   4.050
 8432TIP3   OH225238   3.502   5.357   3.846
 8432TIP3    H125239   3.465   5.280   3.894
 8432TIP3    H225240   3.546   5.315   3.771
 8433TIP3   OH225241   3.958   5.769   4.254
 8433TIP3    H125242   3.869   5.805   4.267
 8433TIP3    H225243   4.015   5.831   4.303
 8434TIP3   OH225244   3.691   6.153   3.353
 8434TIP3    H125245   3.618   6.088   3.341
 8434TIP3    H225246   3.672   6.187   3.444
 8435TIP3   OH225247   4.594   6.394   3.976
 8435TIP3    H125248   4.618   6.444   3.895
 8435TIP3    H225249   4.510   6.351   3.949
 8436TIP3   OH225250   4.154   5.469   3.216
 8436TIP3    H125251   4.057   5.452   3.222
 8436TIP3    H225252   4.161   5.565   3.236
 8437TIP3   OH225253   4.093   6.475   4.346
 8437TIP3    H125254   4.124   6.457   4.435
 8437TIP3    H225255   4.056   6.565   4.353
 8438TIP3   OH225256   4.219   5.725   3.308
 8438TIP3    H125257   4.314   5.734   3.330
 8438TIP3    H225258   4.202   5.807   3.257
 8439TIP3   OH225259   3.388   6.181   4.023
 8439TIP3    H125260   3.425   6.152   3.937
 8439TIP3    H225261   3.434   6.121   4.084
 8440TIP3   OH225262   3.825   6.306   3.173
 8440TIP3    H125263   3.778   6.393   3.179
 8440TIP3    H225264   3.774   6.251   3.236
 8441TIP3   OH225265   3.270   6.100   4.638
 8441TIP3    H125266   3.288   6.086   4.733
 8441TIP3    H225267   3.202   6.033   4.621
 8442TIP3   OH225268   3.997   6.216   4.656
 8442TIP3    H125269   3.936   6.156   4.610
 8442TIP3    H225270   4.084   6.180   4.628
 8443TIP3   OH225271   4.254   6.738   4.242
 8443TIP3    H125272   4.157   6.735   4.255
 8443TIP3    H225273   4.281   6.790   4.321
 8444TIP3   OH225274   4.664   5.810   3.150
 8444TIP3    H125275   4.603   5.766   3.086
 8444TIP3    H225276   4.657   5.901   3.111
 8445TIP3   OH225277   4.883   6.669   4.229
 8445TIP3    H125278   4.786   6.660   4.221
 8445TIP3    H225279   4.910   6.637   4.140
 8446TIP3   OH225280   4.366   6.623   3.060
 8446TIP3    H125281   4.341   6.549   3.117
 8446TIP3    H225282   4.381   6.579   2.974
 8447TIP3   OH225283   4.361   6.257   3.895
 8447TIP3    H125284   4.267   6.233   3.907
 8447TIP3    H225285   4.394   6.176   3.850
 8448TIP3   OH225286   3.491   6.487   3.654
 8448TIP3    H125287   3.490   6.566   3.596
 8448TIP3    H225288   3.397   6.466   3.659
 8449TIP3   OH225289   3.054   5.787   3.355
 8449TIP3    H125290   3.099   5.871   3.376
 8449TIP3    H225291   2.977   5.791   3.416
 8450TIP3   OH225292   3.619   6.248   3.595
 8450TIP3    H125293   3.589   6.338   3.614
 8450TIP3    H225294   3.584   6.198   3.671
 8451TIP3   OH225295   3.759   6.827   4.118
 8451TIP3    H125296   3.802   6.899   4.067
 8451TIP3    H225297   3.836   6.789   4.164
 8452TIP3   OH225298   3.406   6.723   3.500
 8452TIP3    H125299   3.321   6.732   3.548
 8452TIP3    H225300   3.439   6.816   3.503
 8453TIP3   OH225301   4.144   6.462   4.077
 8453TIP3    H125302   4.135   6.459   4.175
 8453TIP3    H225303   4.222   6.406   4.064
 8454TIP3   OH225304   4.395   6.994   4.128
 8454TIP3    H125305   4.315   6.937   4.122
 8454TIP3    H225306   4.378   7.057   4.055
 8455TIP3   OH225307   4.462   6.830   2.778
 8455TIP3    H125308   4.501   6.907   2.733
 8455TIP3    H225309   4.380   6.871   2.812
 8456TIP3   OH225310   3.478   5.605   4.643
 8456TIP3    H125311   3.382   5.607   4.656
 8456TIP3    H225312   3.507   5.549   4.717
 8457TIP3   OH225313   3.196   6.688   4.277
 8457TIP3    H125314   3.250   6.615   4.310
 8457TIP3    H225315   3.227   6.761   4.332
 8458TIP3   OH225316   3.478   6.339   2.961
 8458TIP3    H125317   3.508   6.250   2.935
 8458TIP3    H225318   3.462   6.326   3.057
 8459TIP3   OH225319   3.429   6.340   3.235
 8459TIP3    H125320   3.509   6.313   3.283
 8459TIP3    H225321   3.434   6.438   3.243
 8460TIP3   OH225322   3.164   6.031   3.437
 8460TIP3    H125323   3.098   6.078   3.493
 8460TIP3    H225324   3.180   6.099   3.369
 8461TIP3   OH225325   4.320   5.668   4.328
 8461TIP3    H125326   4.399   5.708   4.367
 8461TIP3    H225327   4.307   5.587   4.383
 8462TIP3   OH225328   4.202   5.416   3.495
 8462TIP3    H125329   4.185   5.440   3.402
 8462TIP3    H225330   4.239   5.500   3.531
 8463TIP3   OH225331   3.694   6.542   3.187
 8463TIP3    H125332   3.606   6.570   3.218
 8463TIP3    H225333   3.712   6.611   3.121
 8464TIP3   OH225334   3.883   5.601   3.595
 8464TIP3    H125335   3.946   5.674   3.575
 8464TIP3    H225336   3.891   5.594   3.693
 8465TIP3   OH225337   4.156   5.917   4.402
 8465TIP3    H125338   4.180   5.969   4.481
 8465TIP3    H225339   4.209   5.836   4.414
 8466TIP3   OH225340   4.028   5.323   3.695
 8466TIP3    H125341   4.017   5.401   3.752
 8466TIP3    H225342   4.091   5.358   3.628
 8467TIP3   OH225343   3.438   6.614   3.249
 8467TIP3    H125344   3.409   6.685   3.188
 8467TIP3    H225345   3.424   6.656   3.337
 8468TIP3   OH225346   3.542   5.327   3.487
 8468TIP3    H125347   3.539   5.418   3.524
 8468TIP3    H225348   3.638   5.310   3.494
 8469TIP3   OH225349   4.794   5.818   4.386
 8469TIP3    H125350   4.696   5.816   4.392
 8469TIP3    H225351   4.806   5.778   4.299
 8470TIP3   OH225352   4.445   6.013   3.775
 8470TIP3    H125353   4.369   5.953   3.783
 8470TIP3    H225354   4.516   5.965   3.821
 8471TIP3   OH225355   3.161   6.239   3.240
 8471TIP3    H125356   3.234   6.303   3.251
 8471TIP3    H225357   3.203   6.180   3.174
 8472TIP3   OH225358   3.101   5.516   3.375
 8472TIP3    H125359   3.103   5.614   3.373
 8472TIP3    H225360   3.019   5.498   3.327
 8473TIP3   OH225361   4.416   6.972   3.719
 8473TIP3    H125362   4.373   7.020   3.645
 8473TIP3    H225363   4.510   6.991   3.699
 8474TIP3   OH225364   3.491   5.239   4.245
 8474TIP3    H125365   3.460   5.204   4.159
 8474TIP3    H225366   3.478   5.162   4.304
 8475TIP3   OH225367   3.027   6.454   3.625
 8475TIP3    H125368   2.961   6.485   3.689
 8475TIP3    H225369   2.995   6.497   3.542
 8476TIP3   OH225370   3.189   7.003   4.701
 8476TIP3    H125371   3.276   7.002   4.747
 8476TIP3    H225372   3.170   6.907   4.698
 8477TIP3   OH225373   3.666   6.959   4.744
 8477TIP3    H125374   3.761   6.940   4.750
 8477TIP3    H225375   3.640   6.899   4.672
 8478TIP3   OH225376   3.649   6.535   2.872
 8478TIP3    H125377   3.591   6.465   2.911
 8478TIP3    H225378   3.727   6.481   2.849
 8479TIP3   OH225379   4.304   6.870   4.480
 8479TIP3    H125380   4.297   6.799   4.548
 8479TIP3    H225381   4.382   6.920   4.510
 8480TIP3   OH225382   4.092   6.570   2.785
 8480TIP3    H125383   4.143   6.508   2.839
 8480TIP3    H225384   4.144   6.569   2.702
 8481TIP3   OH225385   3.317   6.406   4.900
 8481TIP3    H125386   3.333   6.310   4.907
 8481TIP3    H225387   3.230   6.407   4.854
 8482TIP3   OH225388   3.295   6.052   3.097
 8482TIP3    H125389   3.353   6.022   3.169
 8482TIP3    H225390   3.361   6.057   3.024
 8483TIP3   OH225391   3.923   6.492   4.674
 8483TIP3    H125392   3.883   6.511   4.587
 8483TIP3    H225393   3.955   6.400   4.664
 8484TIP3   OH225394   3.790   6.253   2.900
 8484TIP3    H125395   3.824   6.268   2.991
 8484TIP3    H225396   3.803   6.156   2.894
 8485TIP3   OH225397   4.417   6.503   4.282
 8485TIP3    H125398   4.493   6.544   4.237
 8485TIP3    H225399   4.348   6.569   4.264
 8486TIP3   OH225400   3.437   6.142   4.883
 8486TIP3    H125401   3.514   6.090   4.856
 8486TIP3    H225402   3.466   6.174   4.971
 8487TIP3   OH225403   3.495   5.959   3.312
 8487TIP3    H125404   3.474   5.916   3.397
 8487TIP3    H225405   3.538   5.886   3.262
 8488TIP3   OH225406   3.771   6.022   4.543
 8488TIP3    H125407   3.694   6.083   4.544
 8488TIP3    H225408   3.823   6.057   4.467
 8489TIP3   OH225409   3.607   5.755   3.156
 8489TIP3    H125410   3.582   5.763   3.061
 8489TIP3    H225411   3.704   5.759   3.149
 8490TIP3   OH225412   4.290   6.426   4.677
 8490TIP3    H125413   4.367   6.394   4.628
 8490TIP3    H225414   4.285   6.361   4.749
 8491TIP3   OH225415   4.459   6.089   2.794
 8491TIP3    H125416   4.395   6.038   2.743
 8491TIP3    H225417   4.409   6.173   2.802
 8492TIP3   OH225418   3.895   5.813   4.669
 8492TIP3    H125419   3.896   5.734   4.611
 8492TIP3    H225420   3.851   5.880   4.611
 8493TIP3   OH225421   3.898   5.599   4.478
 8493TIP3    H125422   3.927   5.641   4.394
 8493TIP3    H225423   3.805   5.577   4.458
 8494TIP3   OH225424   3.922   6.133   4.351
 8494TIP3    H125425   4.008   6.145   4.308
 8494TIP3    H225426   3.866   6.199   4.304
 8495TIP3   OH225427   4.504   6.099   4.728
 8495TIP3    H125428   4.551   6.017   4.746
 8495TIP3    H225429   4.574   6.155   4.692
 8496TIP3   OH225430   4.547   6.355   4.467
 8496TIP3    H125431   4.490   6.410   4.409
 8496TIP3    H225432   4.635   6.375   4.428
 8497TIP3   OH225433   3.773   5.921   4.902
 8497TIP3    H125434   3.706   5.851   4.917
 8497TIP3    H225435   3.807   5.895   4.814
 8498TIP3   OH225436   4.030   5.360   4.545
 8498TIP3    H125437   3.980   5.442   4.523
 8498TIP3    H225438   3.960   5.292   4.535
 8499TIP3   OH225439   4.156   5.864   4.761
 8499TIP3    H125440   4.144   5.848   4.857
 8499TIP3    H225441   4.066   5.840   4.730
 8500TIP3   OH225442   4.394   5.815   4.616
 8500TIP3    H125443   4.320   5.816   4.680
 8500TIP3    H225444   4.469   5.785   4.671
 8501TIP3   OH225445   4.624   5.756   4.764
 8501TIP3    H125446   4.637   5.661   4.781
 8501TIP3    H225447   4.619   5.794   4.854
 8502TIP3   OH225448   3.612   5.700   4.956
 8502TIP3    H125449   3.618   5.608   4.923
 8502TIP3    H225450   3.651   5.689   5.046
 8503TIP3   OH225451   4.123   5.372   4.804
 8503TIP3    H125452   4.189   5.300   4.799
 8503TIP3    H225453   4.084   5.366   4.714
 8504TIP3   OH225454   4.191   5.587   4.961
 8504TIP3    H125455   4.170   5.515   4.898
 8504TIP3    H225456   4.112   5.644   4.955
 8505TIP3   OH225457   3.414   6.820   3.062
 8505TIP3    H125458   3.509   6.807   3.042
 8505TIP3    H225459   3.387   6.869   2.983
 8506TIP3   OH225460   2.891   6.198   3.276
 8506TIP3    H125461   2.986   6.219   3.261
 8506TIP3    H225462   2.886   6.109   3.235
 8507TIP3   OH225463   2.806   6.811   3.697
 8507TIP3    H125464   2.740   6.751   3.656
 8507TIP3    H225465   2.850   6.750   3.759
 8508TIP3   OH225466   2.942   6.653   3.879
 8508TIP3    H125467   2.931   6.584   3.945
 8508TIP3    H225468   2.995   6.717   3.930
 8509TIP3   OH225469   4.670   7.062   3.679
 8509TIP3    H125470   4.697   7.095   3.766
 8509TIP3    H225471   4.737   7.100   3.620
 8510TIP3   OH225472   4.696   7.080   3.963
 8510TIP3    H125473   4.652   6.993   3.958
 8510TIP3    H225474   4.775   7.056   4.013
 8511TIP3   OH225475   4.742   6.756   4.534
 8511TIP3    H125476   4.670   6.764   4.601
 8511TIP3    H225477   4.787   6.842   4.543
 8512TIP3   OH225478   4.591   6.266   3.142
 8512TIP3    H125479   4.659   6.333   3.126
 8512TIP3    H225480   4.618   6.229   3.229
 8513TIP3   OH225481   4.696   6.134   3.360
 8513TIP3    H125482   4.627   6.093   3.416
 8513TIP3    H225483   4.755   6.174   3.426
 8514TIP3   OH225484   4.745   6.531   3.789
 8514TIP3    H125485   4.797   6.463   3.742
 8514TIP3    H225486   4.741   6.603   3.723
 8515TIP3   OH225487   4.573   6.830   3.983
 8515TIP3    H125488   4.500   6.871   4.033
 8515TIP3    H225489   4.525   6.783   3.912
 8516TIP3   OH225490   4.626   6.039   3.000
 8516TIP3    H125491   4.560   6.047   2.927
 8516TIP3    H225492   4.599   6.117   3.053
 8517TIP3   OH225493   4.506   5.711   2.953
 8517TIP3    H125494   4.454   5.760   2.889
 8517TIP3    H225495   4.476   5.619   2.936
 8518TIP3   OH225496   4.517   5.996   3.510
 8518TIP3    H125497   4.509   5.901   3.498
 8518TIP3    H225498   4.495   6.008   3.605
 8519TIP3   OH225499   3.126   6.067   4.252
 8519TIP3    H125500   3.124   6.034   4.159
 8519TIP3    H225501   3.224   6.069   4.267
 8520TIP3   OH225502   4.793   6.420   4.361
 8520TIP3    H125503   4.863   6.352   4.350
 8520TIP3    H225504   4.818   6.486   4.295
 8521TIP3   OH225505   4.974   6.220   4.371
 8521TIP3    H125506   4.900   6.170   4.412
 8521TIP3    H225507   5.048   6.157   4.388
 8522TIP3   OH225508   4.443   5.443   2.932
 8522TIP3    H125509   4.512   5.419   2.998
 8522TIP3    H225510   4.365   5.393   2.961
 8523TIP3   OH225511   4.498   5.712   3.399
 8523TIP3    H125512   4.540   5.624   3.410
 8523TIP3    H225513   4.553   5.748   3.327
 8524TIP3   OH225514   4.658   5.879   3.893
 8524TIP3    H125515   4.743   5.905   3.850
 8524TIP3    H225516   4.673   5.919   3.981
 8525TIP3   OH225517   4.730   6.027   4.122
 8525TIP3    H125518   4.653   6.062   4.171
 8525TIP3    H225519   4.763   6.108   4.077
 8526TIP3   OH225520   3.346   5.754   4.925
 8526TIP3    H125521   3.444   5.748   4.929
 8526TIP3    H225522   3.323   5.667   4.963
 8527TIP3   OH225523   5.181   5.622   4.679
 8527TIP3    H125524   5.242   5.557   4.636
 8527TIP3    H225525   5.150   5.674   4.602
 8528TIP3   OH225526   4.610   5.461   3.432
 8528TIP3    H125527   4.656   5.445   3.517
 8528TIP3    H225528   4.547   5.386   3.432
 8529TIP3   OH225529   3.307   5.447   4.257
 8529TIP3    H125530   3.369   5.371   4.264
 8529TIP3    H225531   3.370   5.521   4.247
 8530TIP3   OH225532   3.108   5.719   4.326
 8530TIP3    H125533   3.157   5.714   4.242
 8530TIP3    H225534   3.138   5.803   4.362
 8531TIP3   OH225535   5.049   5.756   4.483
 8531TIP3    H125536   4.964   5.800   4.505
 8531TIP3    H225537   5.016   5.684   4.426
 8532TIP3   OH225538   4.686   5.392   3.072
 8532TIP3    H125539   4.726   5.324   3.014
 8532TIP3    H225540   4.750   5.466   3.066
 8533TIP3   OH225541   3.094   5.224   3.829
 8533TIP3    H125542   3.001   5.217   3.857
 8533TIP3    H225543   3.089   5.282   3.751
 8534TIP3   OH225544   4.252   6.930   3.334
 8534TIP3    H125545   4.303   6.914   3.252
 8534TIP3    H225546   4.309   6.991   3.382
 8535TIP3   OH225547   3.315   5.303   4.643
 8535TIP3    H125548   3.263   5.299   4.725
 8535TIP3    H225549   3.248   5.340   4.581
 8536TIP3   OH225550   3.352   6.736   4.719
 8536TIP3    H125551   3.260   6.707   4.702
 8536TIP3    H225552   3.365   6.711   4.811
 8537TIP3   OH225553   3.533   6.767   4.268
 8537TIP3    H125554   3.486   6.843   4.228
 8537TIP3    H225555   3.619   6.780   4.223
 8538TIP3   OH225556   3.973   7.008   4.406
 8538TIP3    H125557   4.016   7.007   4.494
 8538TIP3    H225558   4.039   7.059   4.354
 8539TIP3   OH225559   4.152   7.162   4.266
 8539TIP3    H125560   4.221   7.112   4.221
 8539TIP3    H225561   4.207   7.218   4.326
 8540TIP3   OH225562   4.950   5.521   4.363
 8540TIP3    H125563   4.859   5.512   4.330
 8540TIP3    H225564   4.982   5.428   4.354
 8541TIP3   OH225565   3.207   7.020   4.291
 8541TIP3    H125566   3.118   7.053   4.267
 8541TIP3    H225567   3.218   7.063   4.377
 8542TIP3   OH225568   3.444   7.001   4.150
 8542TIP3    H125569   3.357   7.013   4.193
 8542TIP3    H225570   3.426   7.032   4.060
 8543TIP3   OH225571   3.869   7.026   3.949
 8543TIP3    H125572   3.800   7.044   3.883
 8543TIP3    H225573   3.881   7.114   3.989
 8544TIP3   OH225574   4.139   6.967   4.003
 8544TIP3    H125575   4.046   6.984   3.981
 8544TIP3    H225576   4.184   7.038   3.955
 8545TIP3   OH225577   4.343   7.156   3.913
 8545TIP3    H125578   4.331   7.240   3.864
 8545TIP3    H225579   4.372   7.096   3.840
 8546TIP3   OH225580   3.117   6.812   4.035
 8546TIP3    H125581   3.145   6.786   4.126
 8546TIP3    H225582   3.190   6.770   3.984
 8547TIP3   OH225583   3.314   6.687   3.896
 8547TIP3    H125584   3.330   6.602   3.944
 8547TIP3    H225585   3.405   6.722   3.890
 8548TIP3   OH225586   3.581   6.779   3.899
 8548TIP3    H125587   3.612   6.687   3.886
 8548TIP3    H225588   3.629   6.800   3.981
 8549TIP3   OH225589   4.157   5.437   3.986
 8549TIP3    H125590   4.112   5.366   4.036
 8549TIP3    H225591   4.230   5.390   3.942
 8550TIP3   OH225592   4.675   5.315   3.885
 8550TIP3    H125593   4.711   5.369   3.811
 8550TIP3    H225594   4.580   5.338   3.882
 8551TIP3   OH225595   4.772   5.413   3.650
 8551TIP3    H125596   4.847   5.364   3.611
 8551TIP3    H225597   4.805   5.505   3.637
 8552TIP3   OH225598   3.401   5.144   3.998
 8552TIP3    H125599   3.309   5.112   4.002
 8552TIP3    H225600   3.449   5.058   3.993
 8553TIP3   OH225601   3.193   5.016   3.649
 8553TIP3    H125602   3.221   5.073   3.575
 8553TIP3    H225603   3.165   5.082   3.715
 8554TIP3   OH225604   3.852   5.174   3.881
 8554TIP3    H125605   3.905   5.224   3.818
 8554TIP3    H225606   3.874   5.218   3.964
 8555TIP3   OH225607   4.391   5.324   3.865
 8555TIP3    H125608   4.389   5.287   3.776
 8555TIP3    H225609   4.379   5.243   3.921
 8556TIP3   OH225610   4.424   5.249   3.427
 8556TIP3    H125611   4.339   5.295   3.443
 8556TIP3    H225612   4.407   5.164   3.471
 8557TIP3   OH225613   2.907   6.590   3.426
 8557TIP3    H125614   2.821   6.557   3.393
 8557TIP3    H225615   2.898   6.684   3.402
 8558TIP3   OH225616   3.310   5.173   3.410
 8558TIP3    H125617   3.357   5.110   3.352
 8558TIP3    H225618   3.383   5.227   3.445
 8559TIP3   OH225619   3.819   5.350   3.509
 8559TIP3    H125620   3.880   5.305   3.569
 8559TIP3    H225621   3.840   5.443   3.533
 8560TIP3   OH225622   3.680   6.772   3.006
 8560TIP3    H125623   3.769   6.792   2.972
 8560TIP3    H225624   3.658   6.696   2.948
 8561TIP3   OH225625   4.399   6.890   3.103
 8561TIP3    H125626   4.392   6.792   3.093
 8561TIP3    H225627   4.353   6.920   3.022
 8562TIP3   OH225628   3.611   5.424   4.890
 8562TIP3    H125629   3.575   5.354   4.947
 8562TIP3    H225630   3.705   5.424   4.918
 8563TIP3   OH225631   3.861   5.422   5.009
 8563TIP3    H125632   3.947   5.398   4.971
 8563TIP3    H225633   3.849   5.352   5.076
 8564TIP3   OH225634   2.983   6.610   3.062
 8564TIP3    H125635   2.983   6.632   3.157
 8564TIP3    H225636   3.071   6.568   3.050
 8565TIP3   OH225637   4.687   5.485   4.797
 8565TIP3    H125638   4.704   5.455   4.889
 8565TIP3    H225639   4.777   5.479   4.758
 8566TIP3   OH225640   4.621   7.036   4.293
 8566TIP3    H125641   4.545   7.005   4.241
 8566TIP3    H225642   4.602   7.132   4.295
 8567TIP3   OH225643   5.892   6.409   3.051
 8567TIP3    H125644   5.863   6.501   3.033
 8567TIP3    H225645   5.813   6.360   3.021
 8568TIP3   OH225646   5.894   6.408   3.438
 8568TIP3    H125647   5.926   6.389   3.528
 8568TIP3    H225648   5.847   6.326   3.416
 8569TIP3   OH225649   5.188   6.303   3.802
 8569TIP3    H125650   5.216   6.233   3.864
 8569TIP3    H225651   5.267   6.359   3.802
 8570TIP3   OH225652   6.137   6.712   3.121
 8570TIP3    H125653   6.119   6.647   3.190
 8570TIP3    H225654   6.165   6.790   3.173
 8571TIP3   OH225655   5.161   6.715   3.523
 8571TIP3    H125656   5.154   6.617   3.525
 8571TIP3    H225657   5.258   6.725   3.521
 8572TIP3   OH225658   4.869   5.915   3.307
 8572TIP3    H125659   4.821   5.997   3.328
 8572TIP3    H225660   4.798   5.866   3.263
 8573TIP3   OH225661   4.928   6.207   3.491
 8573TIP3    H125662   4.978   6.128   3.522
 8573TIP3    H225663   4.984   6.239   3.419
 8574TIP3   OH225664   5.783   7.170   3.136
 8574TIP3    H125665   5.828   7.099   3.086
 8574TIP3    H225666   5.778   7.133   3.224
 8575TIP3   OH225667   5.688   6.637   3.484
 8575TIP3    H125668   5.730   6.561   3.440
 8575TIP3    H225669   5.770   6.684   3.511
 8576TIP3   OH225670   6.703   5.957   3.485
 8576TIP3    H125671   6.732   6.039   3.531
 8576TIP3    H225672   6.720   5.981   3.392
 8577TIP3   OH225673   6.101   6.135   3.515
 8577TIP3    H125674   6.144   6.051   3.537
 8577TIP3    H225675   6.070   6.117   3.424
 8578TIP3   OH225676   5.445   5.794   3.479
 8578TIP3    H125677   5.422   5.869   3.419
 8578TIP3    H225678   5.393   5.723   3.437
 8579TIP3   OH225679   6.138   5.884   3.103
 8579TIP3    H125680   6.209   5.873   3.170
 8579TIP3    H225681   6.189   5.923   3.030
 8580TIP3   OH225682   5.072   5.996   3.589
 8580TIP3    H125683   5.155   5.979   3.638
 8580TIP3    H225684   5.087   5.941   3.510
 8581TIP3   OH225685   5.514   6.195   3.380
 8581TIP3    H125686   5.607   6.169   3.394
 8581TIP3    H225687   5.474   6.111   3.349
 8582TIP3   OH225688   6.774   6.165   3.653
 8582TIP3    H125689   6.690   6.212   3.637
 8582TIP3    H225690   6.796   6.198   3.742
 8583TIP3   OH225691   5.436   5.777   3.915
 8583TIP3    H125692   5.377   5.818   3.849
 8583TIP3    H225693   5.384   5.796   3.997
 8584TIP3   OH225694   5.783   6.632   2.920
 8584TIP3    H125695   5.738   6.617   2.836
 8584TIP3    H225696   5.738   6.714   2.950
 8585TIP3   OH225697   5.543   6.554   3.711
 8585TIP3    H125698   5.482   6.621   3.748
 8585TIP3    H225699   5.586   6.604   3.639
 8586TIP3   OH225700   6.340   5.889   3.286
 8586TIP3    H125701   6.311   5.864   3.376
 8586TIP3    H225702   6.393   5.969   3.305
 8587TIP3   OH225703   5.307   5.893   3.699
 8587TIP3    H125704   5.366   5.968   3.725
 8587TIP3    H225705   5.360   5.856   3.625
 8588TIP3   OH225706   5.366   6.749   3.805
 8588TIP3    H125707   5.344   6.838   3.771
 8588TIP3    H225708   5.288   6.734   3.863
 8589TIP3   OH225709   4.779   6.448   3.044
 8589TIP3    H125710   4.721   6.471   2.969
 8589TIP3    H225711   4.805   6.536   3.077
 8590TIP3   OH225712   6.203   6.956   3.281
 8590TIP3    H125713   6.114   6.947   3.323
 8590TIP3    H225714   6.194   7.043   3.238
 8591TIP3   OH225715   6.497   5.847   3.644
 8591TIP3    H125716   6.412   5.885   3.619
 8591TIP3    H225717   6.558   5.885   3.577
 8592TIP3   OH225718   5.795   5.525   3.631
 8592TIP3    H125719   5.782   5.431   3.650
 8592TIP3    H225720   5.715   5.562   3.675
 8593TIP3   OH225721   5.905   6.999   2.955
 8593TIP3    H125722   5.956   6.917   2.936
 8593TIP3    H225723   5.966   7.065   2.917
 8594TIP3   OH225724   6.050   6.783   2.869
 8594TIP3    H125725   6.001   6.706   2.838
 8594TIP3    H225726   6.088   6.750   2.953
 8595TIP3   OH225727   6.430   6.867   3.628
 8595TIP3    H125728   6.416   6.789   3.570
 8595TIP3    H225729   6.410   6.941   3.567
 8596TIP3   OH225730   5.720   6.259   2.887
 8596TIP3    H125731   5.640   6.313   2.869
 8596TIP3    H225732   5.765   6.261   2.802
 8597TIP3   OH225733   5.680   6.048   2.599
 8597TIP3    H125734   5.745   6.100   2.649
 8597TIP3    H225735   5.740   5.986   2.552
 8598TIP3   OH225736   6.625   6.505   3.473
 8598TIP3    H125737   6.541   6.555   3.479
 8598TIP3    H225738   6.655   6.532   3.384
 8599TIP3   OH225739   6.070   6.343   2.856
 8599TIP3    H125740   6.015   6.368   2.934
 8599TIP3    H225741   6.155   6.321   2.901
 8600TIP3   OH225742   6.303   6.379   3.771
 8600TIP3    H125743   6.309   6.458   3.830
 8600TIP3    H225744   6.217   6.395   3.729
 8601TIP3   OH225745   5.301   6.340   3.274
 8601TIP3    H125746   5.261   6.282   3.206
 8601TIP3    H225747   5.378   6.287   3.304
 8602TIP3   OH225748   5.432   6.754   3.422
 8602TIP3    H125749   5.412   6.716   3.335
 8602TIP3    H225750   5.521   6.718   3.441
 8603TIP3   OH225751   5.439   6.312   3.628
 8603TIP3    H125752   5.472   6.292   3.538
 8603TIP3    H225753   5.481   6.398   3.649
 8604TIP3   OH225754   5.965   6.950   3.407
 8604TIP3    H125755   5.950   7.031   3.459
 8604TIP3    H225756   5.946   6.878   3.471
 8605TIP3   OH225757   5.572   6.881   3.932
 8605TIP3    H125758   5.516   6.933   3.993
 8605TIP3    H225759   5.507   6.819   3.895
 8606TIP3   OH225760   5.909   6.201   2.684
 8606TIP3    H125761   5.967   6.263   2.734
 8606TIP3    H225762   5.935   6.222   2.591
 8607TIP3   OH225763   5.328   6.424   4.059
 8607TIP3    H125764   5.336   6.513   4.098
 8607TIP3    H225765   5.233   6.405   4.073
 8608TIP3   OH225766   5.655   6.878   2.958
 8608TIP3    H125767   5.737   6.931   2.969
 8608TIP3    H225768   5.594   6.942   2.920
 8609TIP3   OH225769   5.367   7.037   4.040
 8609TIP3    H125770   5.335   7.038   3.948
 8609TIP3    H225771   5.286   7.016   4.091
 8610TIP3   OH225772   6.427   5.441   2.732
 8610TIP3    H125773   6.343   5.464   2.777
 8610TIP3    H225774   6.443   5.523   2.681
 8611TIP3   OH225775   5.170   6.182   3.074
 8611TIP3    H125776   5.102   6.229   3.021
 8611TIP3    H225777   5.124   6.100   3.093
 8612TIP3   OH225778   6.224   6.809   2.280
 8612TIP3    H125779   6.233   6.905   2.267
 8612TIP3    H225780   6.317   6.780   2.269
 8613TIP3   OH225781   4.948   6.570   3.987
 8613TIP3    H125782   4.881   6.548   3.918
 8613TIP3    H225783   4.985   6.482   4.010
 8614TIP3   OH225784   4.804   6.762   3.618
 8614TIP3    H125785   4.900   6.753   3.608
 8614TIP3    H225786   4.798   6.839   3.675
 8615TIP3   OH225787   6.668   7.215   3.677
 8615TIP3    H125788   6.666   7.118   3.693
 8615TIP3    H225789   6.584   7.241   3.722
 8616TIP3   OH225790   5.776   7.001   3.805
 8616TIP3    H125791   5.771   7.092   3.842
 8616TIP3    H225792   5.702   6.958   3.856
 8617TIP3   OH225793   5.536   7.125   2.762
 8617TIP3    H125794   5.489   7.111   2.679
 8617TIP3    H225795   5.504   7.213   2.790
 8618TIP3   OH225796   4.973   6.974   3.148
 8618TIP3    H125797   5.019   6.966   3.234
 8618TIP3    H225798   4.924   6.890   3.146
 8619TIP3   OH225799   5.734   7.028   2.400
 8619TIP3    H125800   5.794   6.959   2.365
 8619TIP3    H225801   5.769   7.040   2.491
 8620TIP3   OH225802   5.787   7.076   2.669
 8620TIP3    H125803   5.699   7.086   2.712
 8620TIP3    H225804   5.839   7.042   2.744
 8621TIP3   OH225805   6.564   6.342   3.951
 8621TIP3    H125806   6.474   6.361   3.920
 8621TIP3    H225807   6.571   6.245   3.939
 8622TIP3   OH225808   5.152   6.753   3.975
 8622TIP3    H125809   5.203   6.734   4.056
 8622TIP3    H225810   5.078   6.688   3.981
 8623TIP3   OH225811   5.553   5.574   3.759
 8623TIP3    H125812   5.463   5.545   3.733
 8623TIP3    H225813   5.528   5.656   3.807
 8624TIP3   OH225814   6.090   5.682   3.955
 8624TIP3    H125815   6.160   5.663   4.021
 8624TIP3    H225816   6.007   5.671   4.006
 8625TIP3   OH225817   6.326   6.120   3.868
 8625TIP3    H125818   6.276   6.114   3.953
 8625TIP3    H225819   6.302   6.210   3.837
 8626TIP3   OH225820   5.986   6.242   2.428
 8626TIP3    H125821   5.951   6.222   2.339
 8626TIP3    H225822   6.067   6.291   2.405
 8627TIP3   OH225823   5.699   5.620   2.733
 8627TIP3    H125824   5.662   5.616   2.824
 8627TIP3    H225825   5.654   5.543   2.694
 8628TIP3   OH225826   5.483   6.088   3.774
 8628TIP3    H125827   5.447   6.117   3.860
 8628TIP3    H225828   5.469   6.170   3.722
 8629TIP3   OH225829   5.369   5.974   3.292
 8629TIP3    H125830   5.276   5.951   3.311
 8629TIP3    H225831   5.379   5.933   3.203
 8630TIP3   OH225832   5.858   6.060   3.020
 8630TIP3    H125833   5.807   6.132   2.978
 8630TIP3    H225834   5.913   6.029   2.945
 8631TIP3   OH225835   6.014   6.087   3.259
 8631TIP3    H125836   5.953   6.120   3.190
 8631TIP3    H225837   6.046   6.007   3.212
 8632TIP3   OH225838   5.294   6.117   3.986
 8632TIP3    H125839   5.346   6.180   4.039
 8632TIP3    H225840   5.291   6.039   4.043
 8633TIP3   OH225841   5.356   5.597   2.698
 8633TIP3    H125842   5.343   5.598   2.795
 8633TIP3    H225843   5.279   5.650   2.669
 8634TIP3   OH225844   4.897   5.636   3.570
 8634TIP3    H125845   4.971   5.671   3.624
 8634TIP3    H225846   4.939   5.613   3.486
 8635TIP3   OH225847   4.864   5.622   3.086
 8635TIP3    H125848   4.908   5.660   3.007
 8635TIP3    H225849   4.802   5.695   3.106
 8636TIP3   OH225850   6.015   6.332   3.680
 8636TIP3    H125851   6.054   6.262   3.623
 8636TIP3    H225852   5.995   6.280   3.761
 8637TIP3   OH225853   5.697   5.783   3.351
 8637TIP3    H125854   5.614   5.792   3.403
 8637TIP3    H225855   5.764   5.800   3.419
 8638TIP3   OH225856   5.129   5.856   3.359
 8638TIP3    H125857   5.035   5.867   3.332
 8638TIP3    H225858   5.148   5.763   3.337
 8639TIP3   OH225859   5.398   5.847   3.050
 8639TIP3    H125860   5.489   5.868   3.026
 8639TIP3    H225861   5.347   5.870   2.969
 8640TIP3   OH225862   6.188   5.872   3.547
 8640TIP3    H125863   6.166   5.885   3.642
 8640TIP3    H225864   6.112   5.817   3.519
 8641TIP3   OH225865   5.247   5.880   2.829
 8641TIP3    H125866   5.173   5.839   2.781
 8641TIP3    H225867   5.297   5.919   2.754
 8642TIP3   OH225868   6.361   7.562   3.776
 8642TIP3    H125869   6.357   7.588   3.682
 8642TIP3    H225870   6.439   7.612   3.807
 8643TIP3   OH225871   5.314   6.675   4.195
 8643TIP3    H125872   5.397   6.699   4.241
 8643TIP3    H225873   5.253   6.672   4.271
 8644TIP3   OH225874   5.776   6.122   3.448
 8644TIP3    H125875   5.857   6.092   3.405
 8644TIP3    H225876   5.785   6.086   3.538
 8645TIP3   OH225877   5.301   5.611   3.334
 8645TIP3    H125878   5.262   5.535   3.382
 8645TIP3    H225879   5.333   5.569   3.253
 8646TIP3   OH225880   5.755   6.028   3.743
 8646TIP3    H125881   5.665   6.064   3.754
 8646TIP3    H225882   5.811   6.092   3.791
 8647TIP3   OH225883   5.493   6.412   2.836
 8647TIP3    H125884   5.420   6.348   2.823
 8647TIP3    H225885   5.472   6.447   2.926
 8648TIP3   OH225886   6.392   6.649   3.462
 8648TIP3    H125887   6.414   6.702   3.382
 8648TIP3    H225888   6.306   6.608   3.437
 8649TIP3   OH225889   5.951   5.721   2.705
 8649TIP3    H125890   5.854   5.704   2.710
 8649TIP3    H225891   5.958   5.817   2.725
 8650TIP3   OH225892   5.887   6.731   3.832
 8650TIP3    H125893   5.917   6.708   3.921
 8650TIP3    H225894   5.850   6.820   3.844
 8651TIP3   OH225895   6.018   5.973   2.802
 8651TIP3    H125896   6.114   5.983   2.818
 8651TIP3    H225897   5.997   6.054   2.752
 8652TIP3   OH225898   5.185   6.439   3.510
 8652TIP3    H125899   5.223   6.408   3.425
 8652TIP3    H225900   5.227   6.379   3.574
 8653TIP3   OH225901   5.636   6.563   2.658
 8653TIP3    H125902   5.588   6.649   2.661
 8653TIP3    H225903   5.582   6.508   2.719
 8654TIP3   OH225904   5.063   6.359   4.127
 8654TIP3    H125905   5.084   6.343   4.221
 8654TIP3    H225906   4.998   6.290   4.109
 8655TIP3   OH225907   5.737   6.468   4.123
 8655TIP3    H125908   5.784   6.404   4.069
 8655TIP3    H225909   5.806   6.501   4.184
 8656TIP3   OH225910   6.050   6.994   3.731
 8656TIP3    H125911   5.953   6.992   3.743
 8656TIP3    H225912   6.076   7.044   3.811
 8657TIP3   OH225913   6.459   6.067   2.637
 8657TIP3    H125914   6.398   6.023   2.574
 8657TIP3    H225915   6.456   6.157   2.598
 8658TIP3   OH225916   6.681   6.925   3.717
 8658TIP3    H125917   6.583   6.919   3.710
 8658TIP3    H225918   6.705   6.895   3.626
 8659TIP3   OH225919   6.163   6.884   2.547
 8659TIP3    H125920   6.133   6.817   2.609
 8659TIP3    H225921   6.174   6.835   2.463
 8660TIP3   OH225922   6.157   6.515   3.377
 8660TIP3    H125923   6.064   6.491   3.393
 8660TIP3    H225924   6.189   6.433   3.333
 8661TIP3   OH225925   5.286   6.741   3.134
 8661TIP3    H125926   5.283   6.823   3.081
 8661TIP3    H225927   5.193   6.724   3.149
 8662TIP3   OH225928   4.850   6.044   2.842
 8662TIP3    H125929   4.891   6.129   2.864
 8662TIP3    H225930   4.770   6.046   2.900
 8663TIP3   OH225931   5.419   6.504   3.078
 8663TIP3    H125932   5.385   6.594   3.096
 8663TIP3    H225933   5.383   6.454   3.154
 8664TIP3   OH225934   5.555   7.083   3.604
 8664TIP3    H125935   5.599   7.155   3.555
 8664TIP3    H225936   5.630   7.046   3.654
 8665TIP3   OH225937   5.203   6.981   2.987
 8665TIP3    H125938   5.118   6.990   3.035
 8665TIP3    H225939   5.236   7.073   2.991
 8666TIP3   OH225940   5.940   6.717   3.566
 8666TIP3    H125941   5.926   6.717   3.663
 8666TIP3    H225942   6.024   6.670   3.560
 8667TIP3   OH225943   5.919   6.612   2.447
 8667TIP3    H125944   5.972   6.586   2.526
 8667TIP3    H225945   5.830   6.586   2.476
 8668TIP3   OH225946   6.191   7.248   3.613
 8668TIP3    H125947   6.111   7.193   3.608
 8668TIP3    H225948   6.173   7.313   3.541
 8669TIP3   OH225949   6.257   7.084   2.266
 8669TIP3    H125950   6.295   7.159   2.217
 8669TIP3    H225951   6.176   7.128   2.301
 8670TIP3   OH225952   5.276   5.858   4.131
 8670TIP3    H125953   5.180   5.865   4.143
 8670TIP3    H225954   5.303   5.805   4.207
 8671TIP3   OH225955   6.080   6.540   2.659
 8671TIP3    H125956   6.069   6.477   2.733
 8671TIP3    H225957   6.177   6.539   2.649
 8672TIP3   OH225958   4.991   6.946   3.763
 8672TIP3    H125959   5.046   6.874   3.799
 8672TIP3    H225960   5.023   7.021   3.815
 8673TIP3   OH225961   5.283   6.591   2.447
 8673TIP3    H125962   5.295   6.498   2.421
 8673TIP3    H225963   5.262   6.582   2.542
 8674TIP3   OH225964   5.227   6.597   2.718
 8674TIP3    H125965   5.299   6.571   2.778
 8674TIP3    H225966   5.230   6.695   2.726
 8675TIP3   OH225967   4.965   6.289   2.921
 8675TIP3    H125968   4.900   6.335   2.979
 8675TIP3    H225969   4.975   6.356   2.852
 8676TIP3   OH225970   6.126   5.915   3.808
 8676TIP3    H125971   6.191   5.965   3.859
 8676TIP3    H225972   6.108   5.839   3.867
 8677TIP3   OH225973   6.003   5.670   2.982
 8677TIP3    H125974   5.984   5.694   2.889
 8677TIP3    H225975   6.040   5.754   3.017
 8678TIP3   OH225976   5.494   6.793   2.666
 8678TIP3    H125977   5.408   6.817   2.703
 8678TIP3    H225978   5.511   6.870   2.611
 8679TIP3   OH225979   5.685   5.855   3.081
 8679TIP3    H125980   5.746   5.930   3.065
 8679TIP3    H225981   5.688   5.847   3.179
 8680TIP3   OH225982   5.961   6.173   3.900
 8680TIP3    H125983   5.953   6.203   3.992
 8680TIP3    H225984   6.013   6.092   3.912
 8681TIP3   OH225985   5.834   5.577   3.181
 8681TIP3    H125986   5.819   5.652   3.241
 8681TIP3    H225987   5.891   5.618   3.113
 8682TIP3   OH225988   5.240   6.869   2.737
 8682TIP3    H125989   5.209   6.939   2.675
 8682TIP3    H225990   5.224   6.911   2.824
 8683TIP3   OH225991   5.340   5.582   2.975
 8683TIP3    H125992   5.334   5.674   3.010
 8683TIP3    H225993   5.437   5.569   2.983
 8684TIP3   OH225994   6.590   6.071   3.872
 8684TIP3    H125995   6.492   6.071   3.879
 8684TIP3    H225996   6.600   6.037   3.782
 8685TIP3   OH225997   6.243   6.268   3.257
 8685TIP3    H125998   6.165   6.211   3.274
 8685TIP3    H225999   6.313   6.222   3.307
 8686TIP3   OH226000   4.957   6.495   2.727
 8686TIP3    H126001   5.027   6.562   2.737
 8686TIP3    H226002   5.000   6.438   2.659
 8687TIP3   OH226003   4.897   5.774   2.859
 8687TIP3    H126004   4.900   5.872   2.860
 8687TIP3    H226005   4.810   5.758   2.821
 8688TIP3   OH226006   6.212   7.226   3.204
 8688TIP3    H126007   6.168   7.272   3.129
 8688TIP3    H226008   6.306   7.245   3.183
 8689TIP3   OH226009   5.291   5.493   3.730
 8689TIP3    H126010   5.257   5.460   3.644
 8689TIP3    H226011   5.276   5.417   3.789
 8690TIP3   OH226012   4.826   6.719   3.113
 8690TIP3    H126013   4.758   6.745   3.177
 8690TIP3    H226014   4.791   6.759   3.030
 8691TIP3   OH226015   4.985   7.253   4.196
 8691TIP3    H126016   5.074   7.252   4.239
 8691TIP3    H226017   4.970   7.158   4.182
 8692TIP3   OH226018   5.457   7.216   4.229
 8692TIP3    H126019   5.553   7.204   4.240
 8692TIP3    H226020   5.438   7.153   4.157
 8693TIP3   OH226021   5.444   6.794   2.355
 8693TIP3    H126022   5.389   6.722   2.395
 8693TIP3    H226023   5.521   6.742   2.325
 8694TIP3   OH226024   6.098   7.119   3.975
 8694TIP3    H126025   6.096   7.042   4.037
 8694TIP3    H226026   6.177   7.168   4.003
 8695TIP3   OH226027   5.881   6.833   2.271
 8695TIP3    H126028   5.923   6.769   2.332
 8695TIP3    H226029   5.939   6.830   2.193
 8696TIP3   OH226030   5.113   6.662   4.388
 8696TIP3    H126031   5.130   6.567   4.394
 8696TIP3    H226032   5.026   6.664   4.341
 8697TIP3   OH226033   5.093   6.310   2.581
 8697TIP3    H126034   5.148   6.280   2.655
 8697TIP3    H226035   5.160   6.315   2.510
 8698TIP3   OH226036   5.708   6.774   4.162
 8698TIP3    H126037   5.686   6.736   4.076
 8698TIP3    H226038   5.778   6.713   4.195
 8699TIP3   OH226039   5.607   6.511   2.389
 8699TIP3    H126040   5.607   6.523   2.486
 8699TIP3    H226041   5.605   6.413   2.382
 8700TIP3   OH226042   6.212   6.757   3.765
 8700TIP3    H126043   6.288   6.802   3.725
 8700TIP3    H226044   6.143   6.825   3.754
 8701TIP3   OH226045   5.233   6.398   4.370
 8701TIP3    H126046   5.312   6.353   4.338
 8701TIP3    H226047   5.262   6.430   4.458
 8702TIP3   OH226048   5.298   6.217   2.801
 8702TIP3    H126049   5.268   6.179   2.885
 8702TIP3    H226050   5.334   6.139   2.754
 8703TIP3   OH226051   5.551   6.256   4.007
 8703TIP3    H126052   5.498   6.334   4.034
 8703TIP3    H226053   5.617   6.300   3.950
 8704TIP3   OH226054   5.401   6.009   2.642
 8704TIP3    H126055   5.374   6.018   2.548
 8704TIP3    H226056   5.498   6.014   2.634
 8705TIP3   OH226057   6.221   6.338   2.309
 8705TIP3    H126058   6.200   6.295   2.224
 8705TIP3    H226059   6.188   6.429   2.289
 8706TIP3   OH226060   5.681   6.069   4.157
 8706TIP3    H126061   5.689   5.990   4.100
 8706TIP3    H226062   5.637   6.133   4.096
 8707TIP3   OH226063   5.696   5.851   3.961
 8707TIP3    H126064   5.722   5.899   3.880
 8707TIP3    H226065   5.601   5.833   3.944
 8708TIP3   OH226066   5.722   6.376   3.828
 8708TIP3    H126067   5.807   6.404   3.792
 8708TIP3    H226068   5.662   6.446   3.795
 8709TIP3   OH226069   6.347   6.333   4.243
 8709TIP3    H126070   6.409   6.274   4.200
 8709TIP3    H226071   6.358   6.418   4.199
 8710TIP3   OH226072   6.351   6.594   3.937
 8710TIP3    H126073   6.287   6.654   3.892
 8710TIP3    H226074   6.436   6.630   3.903
 8711TIP3   OH226075   5.569   6.176   4.390
 8711TIP3    H126076   5.501   6.108   4.404
 8711TIP3    H226077   5.602   6.153   4.301
 8712TIP3   OH226078   5.824   5.614   4.031
 8712TIP3    H126079   5.778   5.698   4.009
 8712TIP3    H226080   5.751   5.549   4.023
 8713TIP3   OH226081   5.956   6.115   4.216
 8713TIP3    H126082   5.972   6.140   4.309
 8713TIP3    H226083   5.861   6.093   4.218
 8714TIP3   OH226084   6.191   6.058   4.090
 8714TIP3    H126085   6.113   6.080   4.146
 8714TIP3    H226086   6.261   6.046   4.157
 8715TIP3   OH226087   6.430   6.018   4.253
 8715TIP3    H126088   6.434   5.922   4.272
 8715TIP3    H226089   6.417   6.057   4.341
 8716TIP3   OH226090   5.407   5.956   4.444
 8716TIP3    H126091   5.415   5.865   4.409
 8716TIP3    H226092   5.446   5.945   4.533
 8717TIP3   OH226093   5.917   5.625   4.290
 8717TIP3    H126094   5.986   5.557   4.284
 8717TIP3    H226095   5.879   5.620   4.200
 8718TIP3   OH226096   5.981   5.839   4.453
 8718TIP3    H126097   5.959   5.771   4.385
 8718TIP3    H226098   5.907   5.903   4.443
 8719TIP3   OH226099   5.209   7.071   2.549
 8719TIP3    H126100   5.304   7.063   2.530
 8719TIP3    H226101   5.182   7.123   2.471
 8720TIP3   OH226102   4.686   6.458   2.756
 8720TIP3    H126103   4.782   6.476   2.748
 8720TIP3    H226104   4.680   6.368   2.718
 8721TIP3   OH226105   4.602   7.065   3.180
 8721TIP3    H126106   4.537   7.002   3.142
 8721TIP3    H226107   4.647   7.007   3.245
 8722TIP3   OH226108   4.736   6.914   3.367
 8722TIP3    H126109   4.725   6.842   3.432
 8722TIP3    H226110   4.790   6.976   3.419
 8723TIP3   OH226111   6.469   7.309   3.167
 8723TIP3    H126112   6.490   7.344   3.256
 8723TIP3    H226113   6.525   7.364   3.110
 8724TIP3   OH226114   6.494   7.335   3.447
 8724TIP3    H126115   6.449   7.248   3.444
 8724TIP3    H226116   6.567   7.313   3.507
 8725TIP3   OH226117   6.541   7.013   4.021
 8725TIP3    H126118   6.468   7.021   4.087
 8725TIP3    H226119   6.582   7.102   4.027
 8726TIP3   OH226120   6.359   6.524   2.639
 8726TIP3    H126121   6.424   6.591   2.610
 8726TIP3    H226122   6.404   6.488   2.718
 8727TIP3   OH226123   6.488   6.391   2.843
 8727TIP3    H126124   6.419   6.351   2.901
 8727TIP3    H226125   6.549   6.431   2.908
 8728TIP3   OH226126   6.543   6.789   3.276
 8728TIP3    H126127   6.594   6.723   3.225
 8728TIP3    H226128   6.536   6.863   3.213
 8729TIP3   OH226129   6.368   7.086   3.469
 8729TIP3    H126130   6.297   7.129   3.521
 8729TIP3    H226131   6.317   7.041   3.398
 8730TIP3   OH226132   6.423   6.301   2.489
 8730TIP3    H126133   6.351   6.303   2.421
 8730TIP3    H226134   6.395   6.377   2.544
 8731TIP3   OH226135   6.296   5.973   2.442
 8731TIP3    H126136   6.249   6.013   2.368
 8731TIP3    H226137   6.271   5.879   2.432
 8732TIP3   OH226138   6.299   6.253   2.989
 8732TIP3    H126139   6.305   6.157   2.982
 8732TIP3    H226140   6.283   6.267   3.085
 8733TIP3   OH226141   4.923   6.324   3.740
 8733TIP3    H126142   4.920   6.291   3.648
 8733TIP3    H226143   5.021   6.325   3.755
 8734TIP3   OH226144   6.595   6.680   3.843
 8734TIP3    H126145   6.665   6.612   3.833
 8734TIP3    H226146   6.624   6.750   3.783
 8735TIP3   OH226147   6.775   6.478   3.849
 8735TIP3    H126148   6.701   6.432   3.895
 8735TIP3    H226149   6.847   6.414   3.869
 8736TIP3   OH226150   6.237   5.707   2.426
 8736TIP3    H126151   6.308   5.675   2.484
 8736TIP3    H226152   6.161   5.649   2.447
 8737TIP3   OH226153   6.295   5.970   2.883
 8737TIP3    H126154   6.337   5.881   2.896
 8737TIP3    H226155   6.352   6.004   2.812
 8738TIP3   OH226156   6.454   6.135   3.379
 8738TIP3    H126157   6.540   6.160   3.338
 8738TIP3    H226158   6.466   6.175   3.467
 8739TIP3   OH226159   6.523   6.283   3.607
 8739TIP3    H126160   6.449   6.315   3.662
 8739TIP3    H226161   6.555   6.366   3.567
 8740TIP3   OH226162   5.141   6.007   4.408
 8740TIP3    H126163   5.238   6.003   4.414
 8740TIP3    H226164   5.117   5.922   4.449
 8741TIP3   OH226165   6.980   5.878   4.166
 8741TIP3    H126166   7.039   5.812   4.123
 8741TIP3    H226167   6.948   5.929   4.089
 8742TIP3   OH226168   6.409   5.722   2.917
 8742TIP3    H126169   6.454   5.704   3.002
 8742TIP3    H226170   6.348   5.645   2.912
 8743TIP3   OH226171   5.105   5.702   3.740
 8743TIP3    H126172   5.168   5.628   3.750
 8743TIP3    H226173   5.165   5.778   3.733
 8744TIP3   OH226174   4.904   5.974   3.814
 8744TIP3    H126175   4.953   5.973   3.730
 8744TIP3    H226176   4.931   6.059   3.851
 8745TIP3   OH226177   6.846   6.014   3.973
 8745TIP3    H126178   6.764   6.058   4.002
 8745TIP3    H226179   6.809   5.946   3.915
 8746TIP3   OH226180   6.483   5.648   2.557
 8746TIP3    H126181   6.521   5.580   2.499
 8746TIP3    H226182   6.548   5.721   2.551
 8747TIP3   OH226183   4.890   5.476   3.312
 8747TIP3    H126184   4.798   5.474   3.343
 8747TIP3    H226185   4.884   5.538   3.236
 8748TIP3   OH226186   6.048   7.183   2.820
 8748TIP3    H126187   6.103   7.177   2.740
 8748TIP3    H226188   6.093   7.253   2.871
 8749TIP3   OH226189   5.110   5.553   4.126
 8749TIP3    H126190   5.060   5.553   4.210
 8749TIP3    H226191   5.045   5.597   4.067
 8750TIP3   OH226192   5.147   6.995   4.204
 8750TIP3    H126193   5.056   6.961   4.190
 8750TIP3    H226194   5.167   6.964   4.294
 8751TIP3   OH226195   5.328   7.022   3.753
 8751TIP3    H126196   5.283   7.100   3.714
 8751TIP3    H226197   5.415   7.033   3.711
 8752TIP3   OH226198   5.770   7.266   3.894
 8752TIP3    H126199   5.813   7.264   3.982
 8752TIP3    H226200   5.836   7.317   3.842
 8753TIP3   OH226201   5.950   7.417   3.753
 8753TIP3    H126202   6.021   7.368   3.710
 8753TIP3    H226203   6.002   7.475   3.813
 8754TIP3   OH226204   6.748   5.777   3.850
 8754TIP3    H126205   6.657   5.770   3.817
 8754TIP3    H226206   6.779   5.684   3.841
 8755TIP3   OH226207   5.003   7.277   3.781
 8755TIP3    H126208   4.912   7.307   3.759
 8755TIP3    H226209   5.021   7.333   3.859
 8756TIP3   OH226210   5.240   7.256   3.637
 8756TIP3    H126211   5.152   7.268   3.680
 8756TIP3    H226212   5.222   7.288   3.547
 8757TIP3   OH226213   5.666   7.283   3.435
 8757TIP3    H126214   5.596   7.302   3.369
 8757TIP3    H226215   5.678   7.370   3.476
 8758TIP3   OH226216   5.935   7.221   3.485
 8758TIP3    H126217   5.841   7.240   3.466
 8758TIP3    H226218   5.979   7.297   3.443
 8759TIP3   OH226219   6.140   7.412   3.399
 8759TIP3    H126220   6.127   7.497   3.353
 8759TIP3    H226221   6.166   7.353   3.325
 8760TIP3   OH226222   4.914   7.069   3.522
 8760TIP3    H126223   4.941   7.042   3.613
 8760TIP3    H226224   4.987   7.027   3.471
 8761TIP3   OH226225   5.110   6.943   3.382
 8761TIP3    H126226   5.125   6.859   3.431
 8761TIP3    H226227   5.202   6.979   3.378
 8762TIP3   OH226228   5.377   7.034   3.387
 8762TIP3    H126229   5.408   6.942   3.378
 8762TIP3    H226230   5.425   7.058   3.469
 8763TIP3   OH226231   5.956   5.701   3.470
 8763TIP3    H126232   5.908   5.634   3.521
 8763TIP3    H226233   6.031   5.650   3.432
 8764TIP3   OH226234   6.467   5.558   3.363
 8764TIP3    H126235   6.509   5.616   3.295
 8764TIP3    H226236   6.381   5.601   3.374
 8765TIP3   OH226237   6.568   5.672   3.136
 8765TIP3    H126238   6.644   5.621   3.099
 8765TIP3    H226239   6.602   5.764   3.123
 8766TIP3   OH226240   5.200   5.399   3.483
 8766TIP3    H126241   5.107   5.368   3.487
 8766TIP3    H226242   5.246   5.313   3.480
 8767TIP3   OH226243   4.990   5.272   3.136
 8767TIP3    H126244   5.015   5.330   3.062
 8767TIP3    H226245   4.959   5.338   3.202
 8768TIP3   OH226246   5.658   5.436   3.373
 8768TIP3    H126247   5.707   5.488   3.307
 8768TIP3    H226248   5.654   5.497   3.448
 8769TIP3   OH226249   6.176   5.571   3.361
 8769TIP3    H126250   6.194   5.544   3.270
 8769TIP3    H226251   6.164   5.486   3.407
 8770TIP3   OH226252   6.223   5.513   2.911
 8770TIP3    H126253   6.137   5.557   2.925
 8770TIP3    H226254   6.230   5.457   2.990
 8771TIP3   OH226255   4.704   6.845   2.910
 8771TIP3    H126256   4.619   6.810   2.877
 8771TIP3    H226257   4.692   6.939   2.889
 8772TIP3   OH226258   5.105   5.428   2.897
 8772TIP3    H126259   5.153   5.368   2.838
 8772TIP3    H226260   5.177   5.483   2.933
 8773TIP3   OH226261   5.617   5.605   2.999
 8773TIP3    H126262   5.679   5.564   3.062
 8773TIP3    H226263   5.635   5.699   3.020
 8774TIP3   OH226264   5.475   7.027   2.496
 8774TIP3    H126265   5.564   7.051   2.460
 8774TIP3    H226266   5.454   6.953   2.436
 8775TIP3   OH226267   6.198   7.152   2.589
 8775TIP3    H126268   6.189   7.054   2.579
 8775TIP3    H226269   6.150   7.183   2.509
 8776TIP3   OH226270   5.407   5.677   4.373
 8776TIP3    H126271   5.370   5.610   4.433
 8776TIP3    H226272   5.500   5.679   4.404
 8777TIP3   OH226273   5.655   5.678   4.495
 8777TIP3    H126274   5.743   5.660   4.459
 8777TIP3    H226275   5.645   5.607   4.562
 8778TIP3   OH226276   4.780   6.868   2.550
 8778TIP3    H126277   4.781   6.883   2.646
 8778TIP3    H226278   4.867   6.824   2.535
 8779TIP3   OH226279   6.482   5.740   4.283
 8779TIP3    H126280   6.500   5.712   4.375
 8779TIP3    H226281   6.571   5.739   4.243
 8780TIP3   OH226282   6.421   7.293   3.773
 8780TIP3    H126283   6.341   7.263   3.725
 8780TIP3    H226284   6.400   7.388   3.782
 8781TIP3   OH226285   7.678   6.628   2.564
 8781TIP3    H126286   7.659   6.723   2.555
 8781TIP3    H226287   7.612   6.592   2.498
 8782TIP3   OH226288   7.672   6.559   2.872
 8782TIP3    H126289   7.734   6.585   2.945
 8782TIP3    H226290   7.590   6.597   2.902
 8783TIP3   OH226291   6.997   6.561   3.278
 8783TIP3    H126292   7.018   6.492   3.343
 8783TIP3    H226293   7.051   6.634   3.311
 8784TIP3   OH226294   7.907   6.946   2.619
 8784TIP3    H126295   7.915   6.884   2.694
 8784TIP3    H226296   7.918   7.031   2.663
 8785TIP3   OH226297   6.958   6.972   3.010
 8785TIP3    H126298   6.951   6.874   3.012
 8785TIP3    H226299   7.054   6.983   3.008
 8786TIP3   OH226300   6.666   6.173   2.794
 8786TIP3    H126301   6.618   6.255   2.814
 8786TIP3    H226302   6.595   6.121   2.752
 8787TIP3   OH226303   6.722   6.463   2.974
 8787TIP3    H126304   6.772   6.385   3.007
 8787TIP3    H226305   6.780   6.497   2.905
 8788TIP3   OH226306   7.597   7.401   2.623
 8788TIP3    H126307   7.662   7.329   2.626
 8788TIP3    H226308   7.557   7.392   2.711
 8789TIP3   OH226309   7.484   6.896   2.973
 8789TIP3    H126310   7.524   6.856   2.895
 8789TIP3    H226311   7.563   6.940   3.010
 8790TIP3   OH226312   8.486   6.226   2.970
 8790TIP3    H126313   8.526   6.293   3.027
 8790TIP3    H226314   8.524   6.247   2.884
 8791TIP3   OH226315   7.908   6.385   2.949
 8791TIP3    H126316   7.960   6.328   3.011
 8791TIP3    H226317   7.842   6.417   3.000
 8792TIP3   OH226318   7.243   6.052   2.959
 8792TIP3    H126319   7.211   6.124   2.901
 8792TIP3    H226320   7.192   5.976   2.922
 8793TIP3   OH226321   7.912   6.187   2.603
 8793TIP3    H126322   7.980   6.170   2.672
 8793TIP3    H226323   7.968   6.208   2.527
 8794TIP3   OH226324   6.870   6.256   3.075
 8794TIP3    H126325   6.952   6.235   3.124
 8794TIP3    H226326   6.882   6.198   2.997
 8795TIP3   OH226327   7.325   6.438   2.843
 8795TIP3    H126328   7.345   6.416   2.935
 8795TIP3    H226329   7.271   6.361   2.815
 8796TIP3   OH226330   7.232   6.032   3.401
 8796TIP3    H126331   7.169   6.071   3.337
 8796TIP3    H226332   7.182   6.047   3.484
 8797TIP3   OH226333   7.574   6.869   2.414
 8797TIP3    H126334   7.523   6.858   2.332
 8797TIP3    H226335   7.540   6.955   2.445
 8798TIP3   OH226336   7.317   6.797   3.206
 8798TIP3    H126337   7.263   6.872   3.240
 8798TIP3    H226338   7.386   6.844   3.155
 8799TIP3   OH226339   8.137   6.146   2.779
 8799TIP3    H126340   8.113   6.121   2.870
 8799TIP3    H226341   8.183   6.230   2.793
 8800TIP3   OH226342   7.105   6.150   3.182
 8800TIP3    H126343   7.166   6.221   3.211
 8800TIP3    H226344   7.159   6.109   3.111
 8801TIP3   OH226345   7.166   7.011   3.296
 8801TIP3    H126346   7.143   7.099   3.260
 8801TIP3    H226347   7.087   6.995   3.352
 8802TIP3   OH226348   6.560   6.696   2.531
 8802TIP3    H126349   6.517   6.724   2.448
 8802TIP3    H226350   6.590   6.782   2.567
 8803TIP3   OH226351   8.295   6.101   3.128
 8803TIP3    H126352   8.211   6.148   3.116
 8803TIP3    H226353   8.352   6.140   3.059
 8804TIP3   OH226354   7.579   5.732   3.100
 8804TIP3    H126355   7.568   5.644   3.142
 8804TIP3    H226356   7.513   5.784   3.151
 8805TIP3   OH226357   7.816   7.017   2.368
 8805TIP3    H126358   7.746   6.951   2.351
 8805TIP3    H226359   7.844   6.991   2.458
 8806TIP3   OH226360   7.519   6.514   2.383
 8806TIP3    H126361   7.439   6.563   2.354
 8806TIP3    H226362   7.560   6.491   2.298
 8807TIP3   OH226363   7.478   6.299   2.087
 8807TIP3    H126364   7.545   6.355   2.131
 8807TIP3    H226365   7.536   6.237   2.040
 8808TIP3   OH226366   8.457   6.740   2.995
 8808TIP3    H126367   8.364   6.768   3.004
 8808TIP3    H226368   8.478   6.783   2.911
 8809TIP3   OH226369   7.860   6.587   2.351
 8809TIP3    H126370   7.813   6.614   2.432
 8809TIP3    H226371   7.949   6.563   2.388
 8810TIP3   OH226372   8.101   6.634   3.267
 8810TIP3    H126373   8.093   6.716   3.319
 8810TIP3    H226374   8.016   6.639   3.216
 8811TIP3   OH226375   7.101   6.589   2.764
 8811TIP3    H126376   7.054   6.539   2.695
 8811TIP3    H226377   7.183   6.537   2.774
 8812TIP3   OH226378   7.226   7.013   2.909
 8812TIP3    H126379   7.211   6.974   2.822
 8812TIP3    H226380   7.313   6.976   2.935
 8813TIP3   OH226381   7.261   6.558   3.098
 8813TIP3    H126382   7.254   6.590   3.007
 8813TIP3    H226383   7.279   6.643   3.145
 8814TIP3   OH226384   7.731   7.186   2.863
 8814TIP3    H126385   7.752   7.269   2.910
 8814TIP3    H226386   7.740   7.119   2.933
 8815TIP3   OH226387   7.371   7.124   3.444
 8815TIP3    H126388   7.309   7.186   3.489
 8815TIP3    H226389   7.306   7.073   3.391
 8816TIP3   OH226390   7.698   6.451   2.173
 8816TIP3    H126391   7.760   6.507   2.224
 8816TIP3    H226392   7.729   6.471   2.080
 8817TIP3   OH226393   7.124   6.678   3.541
 8817TIP3    H126394   7.132   6.766   3.582
 8817TIP3    H226395   7.031   6.658   3.564
 8818TIP3   OH226396   7.460   7.146   2.443
 8818TIP3    H126397   7.480   7.225   2.495
 8818TIP3    H226398   7.389   7.179   2.386
 8819TIP3   OH226399   7.165   7.291   3.528
 8819TIP3    H126400   7.129   7.295   3.437
 8819TIP3    H226401   7.085   7.270   3.581
 8820TIP3   OH226402   8.216   5.701   2.213
 8820TIP3    H126403   8.138   5.711   2.272
 8820TIP3    H226404   8.236   5.792   2.189
 8821TIP3   OH226405   6.964   6.441   2.565
 8821TIP3    H126406   6.898   6.488   2.509
 8821TIP3    H226407   6.919   6.357   2.579
 8822TIP3   OH226408   6.745   6.824   3.474
 8822TIP3    H126409   6.675   6.805   3.408
 8822TIP3    H226410   6.779   6.735   3.496
 8823TIP3   OH226411   6.599   7.018   3.106
 8823TIP3    H126412   6.695   7.020   3.101
 8823TIP3    H226413   6.581   7.098   3.158
 8824TIP3   OH226414   7.557   7.261   3.296
 8824TIP3    H126415   7.559   7.354   3.326
 8824TIP3    H226416   7.487   7.222   3.354
 8825TIP3   OH226417   7.291   7.393   2.261
 8825TIP3    H126418   7.278   7.358   2.171
 8825TIP3    H226419   7.368   7.451   2.252
 8826TIP3   OH226420   6.768   7.233   2.635
 8826TIP3    H126421   6.817   7.225   2.720
 8826TIP3    H226422   6.710   7.156   2.639
 8827TIP3   OH226423   8.373   6.616   3.437
 8827TIP3    H126424   8.291   6.622   3.388
 8827TIP3    H226425   8.398   6.522   3.420
 8828TIP3   OH226426   6.949   7.007   3.458
 8828TIP3    H126427   6.997   6.993   3.542
 8828TIP3    H226428   6.873   6.945   3.468
 8829TIP3   OH226429   7.351   5.834   3.237
 8829TIP3    H126430   7.260   5.804   3.216
 8829TIP3    H226431   7.328   5.912   3.293
 8830TIP3   OH226432   7.885   5.946   3.441
 8830TIP3    H126433   7.959   5.921   3.500
 8830TIP3    H226434   7.807   5.926   3.496
 8831TIP3   OH226435   8.115   6.372   3.352
 8831TIP3    H126436   8.072   6.368   3.440
 8831TIP3    H226437   8.099   6.464   3.325
 8832TIP3   OH226438   7.783   6.504   1.921
 8832TIP3    H126439   7.740   6.479   1.837
 8832TIP3    H226440   7.855   6.561   1.890
 8833TIP3   OH226441   7.491   5.876   2.215
 8833TIP3    H126442   7.450   5.871   2.304
 8833TIP3    H226443   7.452   5.796   2.175
 8834TIP3   OH226444   7.279   6.346   3.264
 8834TIP3    H126445   7.226   6.367   3.344
 8834TIP3    H226446   7.266   6.426   3.209
 8835TIP3   OH226447   7.160   6.233   2.776
 8835TIP3    H126448   7.067   6.208   2.796
 8835TIP3    H226449   7.169   6.194   2.686
 8836TIP3   OH226450   7.829   6.603   3.596
 8836TIP3    H126451   7.808   6.523   3.649
 8836TIP3    H226452   7.924   6.612   3.616
 8837TIP3   OH226453   7.104   6.375   3.474
 8837TIP3    H126454   7.116   6.441   3.544
 8837TIP3    H226455   7.092   6.292   3.526
 8838TIP3   OH226456   7.152   5.855   2.185
 8838TIP3    H126457   7.134   5.852   2.280
 8838TIP3    H226458   7.075   5.906   2.153
 8839TIP3   OH226459   6.692   5.895   3.053
 8839TIP3    H126460   6.766   5.927   3.109
 8839TIP3    H226461   6.736   5.865   2.973
 8840TIP3   OH226462   6.660   5.879   2.574
 8840TIP3    H126463   6.704   5.916   2.494
 8840TIP3    H226464   6.598   5.951   2.594
 8841TIP3   OH226465   7.501   6.045   2.859
 8841TIP3    H126466   7.405   6.045   2.881
 8841TIP3    H226467   7.534   6.085   2.941
 8842TIP3   OH226468   6.925   6.112   2.845
 8842TIP3    H126469   6.831   6.125   2.819
 8842TIP3    H226470   6.940   6.018   2.825
 8843TIP3   OH226471   7.190   6.108   2.534
 8843TIP3    H126472   7.279   6.120   2.496
 8843TIP3    H226473   7.132   6.127   2.457
 8844TIP3   OH226474   7.988   6.110   3.036
 8844TIP3    H126475   7.979   6.131   3.132
 8844TIP3    H226476   7.901   6.073   3.022
 8845TIP3   OH226477   7.040   6.137   2.315
 8845TIP3    H126478   6.969   6.093   2.266
 8845TIP3    H226479   7.092   6.175   2.241
 8846TIP3   OH226480   7.113   6.927   3.680
 8846TIP3    H126481   7.192   6.958   3.729
 8846TIP3    H226482   7.047   6.926   3.752
 8847TIP3   OH226483   7.103   5.862   2.821
 8847TIP3    H126484   7.059   5.791   2.873
 8847TIP3    H226485   7.117   5.818   2.736
 8848TIP3   OH226486   7.545   6.260   3.230
 8848TIP3    H126487   7.460   6.307   3.241
 8848TIP3    H226488   7.608   6.319   3.279
 8849TIP3   OH226489   7.294   6.667   2.324
 8849TIP3    H126490   7.221   6.604   2.310
 8849TIP3    H226491   7.272   6.701   2.414
 8850TIP3   OH226492   8.195   6.808   2.917
 8850TIP3    H126493   8.186   6.906   2.915
 8850TIP3    H226494   8.109   6.782   2.951
 8851TIP3   OH226495   7.748   5.965   2.204
 8851TIP3    H126496   7.650   5.956   2.197
 8851TIP3    H226497   7.761   6.061   2.214
 8852TIP3   OH226498   7.687   6.999   3.322
 8852TIP3    H126499   7.703   6.960   3.409
 8852TIP3    H226500   7.642   7.082   3.342
 8853TIP3   OH226501   7.814   6.220   2.286
 8853TIP3    H126502   7.907   6.239   2.300
 8853TIP3    H226503   7.780   6.302   2.247
 8854TIP3   OH226504   6.984   6.694   2.999
 8854TIP3    H126505   7.020   6.656   2.917
 8854TIP3    H226506   7.009   6.630   3.067
 8855TIP3   OH226507   7.433   6.818   2.141
 8855TIP3    H126508   7.384   6.904   2.147
 8855TIP3    H226509   7.381   6.762   2.203
 8856TIP3   OH226510   6.865   6.607   3.609
 8856TIP3    H126511   6.879   6.596   3.706
 8856TIP3    H226512   6.791   6.546   3.595
 8857TIP3   OH226513   7.585   6.729   3.629
 8857TIP3    H126514   7.524   6.660   3.597
 8857TIP3    H226515   7.673   6.691   3.605
 8858TIP3   OH226516   7.834   7.240   3.233
 8858TIP3    H126517   7.736   7.236   3.226
 8858TIP3    H226518   7.843   7.287   3.319
 8859TIP3   OH226519   7.916   6.763   2.820
 8859TIP3    H126520   7.887   6.750   2.913
 8859TIP3    H226521   7.975   6.687   2.808
 8860TIP3   OH226522   7.083   6.995   2.616
 8860TIP3    H126523   7.078   7.079   2.565
 8860TIP3    H226524   6.990   6.982   2.639
 8861TIP3   OH226525   6.649   6.300   2.331
 8861TIP3    H126526   6.691   6.387   2.351
 8861TIP3    H226527   6.570   6.305   2.390
 8862TIP3   OH226528   7.218   6.760   2.568
 8862TIP3    H126529   7.181   6.850   2.580
 8862TIP3    H226530   7.176   6.712   2.641
 8863TIP3   OH226531   7.350   7.329   3.096
 8863TIP3    H126532   7.389   7.395   3.034
 8863TIP3    H226533   7.429   7.300   3.143
 8864TIP3   OH226534   7.003   7.231   2.477
 8864TIP3    H126535   6.917   7.244   2.520
 8864TIP3    H226536   7.038   7.323   2.479
 8865TIP3   OH226537   7.737   6.967   3.058
 8865TIP3    H126538   7.717   6.987   3.152
 8865TIP3    H226539   7.783   6.881   3.070
 8866TIP3   OH226540   7.639   6.860   1.923
 8866TIP3    H126541   7.707   6.846   1.989
 8866TIP3    H226542   7.560   6.828   1.970
 8867TIP3   OH226543   7.072   6.116   3.616
 8867TIP3    H126544   6.976   6.120   3.634
 8867TIP3    H226545   7.103   6.063   3.692
 8868TIP3   OH226546   7.887   6.777   2.157
 8868TIP3    H126547   7.848   6.723   2.228
 8868TIP3    H226548   7.974   6.736   2.152
 8869TIP3   OH226549   6.792   7.200   3.248
 8869TIP3    H126550   6.845   7.130   3.289
 8869TIP3    H226551   6.811   7.275   3.306
 8870TIP3   OH226552   7.074   6.848   1.934
 8870TIP3    H126553   7.092   6.756   1.907
 8870TIP3    H226554   7.055   6.837   2.029
 8871TIP3   OH226555   7.024   6.852   2.206
 8871TIP3    H126556   7.094   6.831   2.268
 8871TIP3    H226557   7.022   6.951   2.211
 8872TIP3   OH226558   6.759   6.547   2.412
 8872TIP3    H126559   6.692   6.592   2.467
 8872TIP3    H226560   6.770   6.615   2.341
 8873TIP3   OH226561   7.927   6.169   3.288
 8873TIP3    H126562   7.988   6.224   3.340
 8873TIP3    H226563   7.907   6.096   3.351
 8874TIP3   OH226564   7.775   5.937   2.483
 8874TIP3    H126565   7.758   5.939   2.387
 8874TIP3    H226566   7.817   6.025   2.495
 8875TIP3   OH226567   7.291   7.047   2.166
 8875TIP3    H126568   7.200   7.066   2.197
 8875TIP3    H226569   7.302   7.123   2.106
 8876TIP3   OH226570   7.490   6.092   2.572
 8876TIP3    H126571   7.544   6.161   2.532
 8876TIP3    H226572   7.489   6.117   2.666
 8877TIP3   OH226573   7.713   6.410   3.387
 8877TIP3    H126574   7.740   6.499   3.413
 8877TIP3    H226575   7.793   6.360   3.407
 8878TIP3   OH226576   7.680   5.858   2.734
 8878TIP3    H126577   7.628   5.939   2.754
 8878TIP3    H226578   7.722   5.887   2.649
 8879TIP3   OH226579   7.033   7.122   2.225
 8879TIP3    H126580   7.002   7.192   2.163
 8879TIP3    H226581   7.021   7.168   2.311
 8880TIP3   OH226582   7.125   5.839   2.463
 8880TIP3    H126583   7.125   5.931   2.496
 8880TIP3    H226584   7.222   5.823   2.462
 8881TIP3   OH226585   8.387   6.355   3.342
 8881TIP3    H126586   8.292   6.346   3.360
 8881TIP3    H226587   8.396   6.302   3.262
 8882TIP3   OH226588   8.033   6.516   2.750
 8882TIP3    H126589   7.989   6.470   2.827
 8882TIP3    H226590   8.125   6.484   2.771
 8883TIP3   OH226591   6.751   6.750   2.215
 8883TIP3    H126592   6.815   6.823   2.223
 8883TIP3    H226593   6.797   6.696   2.147
 8884TIP3   OH226594   6.695   6.030   2.349
 8884TIP3    H126595   6.695   6.128   2.348
 8884TIP3    H226596   6.615   6.011   2.299
 8885TIP3   OH226597   7.088   5.749   3.218
 8885TIP3    H126598   7.053   5.712   3.134
 8885TIP3    H226599   7.077   5.673   3.280
 8886TIP3   OH226600   6.617   6.961   2.598
 8886TIP3    H126601   6.556   6.996   2.665
 8886TIP3    H226602   6.584   7.008   2.517
 8887TIP3   OH226603   6.781   7.516   3.672
 8887TIP3    H126604   6.867   7.517   3.720
 8887TIP3    H226605   6.761   7.422   3.673
 8888TIP3   OH226606   7.258   7.471   3.720
 8888TIP3    H126607   7.353   7.454   3.724
 8888TIP3    H226608   7.232   7.411   3.647
 8889TIP3   OH226609   7.240   7.046   1.844
 8889TIP3    H126610   7.182   6.975   1.880
 8889TIP3    H226611   7.313   6.993   1.806
 8890TIP3   OH226612   7.893   7.374   3.463
 8890TIP3    H126613   7.887   7.305   3.533
 8890TIP3    H226614   7.976   7.419   3.486
 8891TIP3   OH226615   6.912   6.921   3.872
 8891TIP3    H126616   6.924   6.825   3.884
 8891TIP3    H226617   6.823   6.924   3.829
 8892TIP3   OH226618   6.888   6.566   2.067
 8892TIP3    H126619   6.946   6.539   2.141
 8892TIP3    H226620   6.954   6.572   1.995
 8893TIP3   OH226621   7.518   7.005   3.648
 8893TIP3    H126622   7.474   7.026   3.563
 8893TIP3    H226623   7.546   6.912   3.637
 8894TIP3   OH226624   7.369   6.756   1.876
 8894TIP3    H126625   7.374   6.769   1.973
 8894TIP3    H226626   7.388   6.660   1.870
 8895TIP3   OH226627   8.017   7.017   3.246
 8895TIP3    H126628   8.034   7.108   3.218
 8895TIP3    H226629   7.920   7.019   3.248
 8896TIP3   OH226630   7.034   6.654   3.855
 8896TIP3    H126631   7.109   6.596   3.838
 8896TIP3    H226632   7.058   6.689   3.944
 8897TIP3   OH226633   7.098   6.474   2.289
 8897TIP3    H126634   7.064   6.433   2.370
 8897TIP3    H226635   7.132   6.397   2.239
 8898TIP3   OH226636   7.375   6.558   3.510
 8898TIP3    H126637   7.290   6.602   3.529
 8898TIP3    H226638   7.388   6.580   3.417
 8899TIP3   OH226639   7.197   6.266   2.130
 8899TIP3    H126640   7.171   6.274   2.036
 8899TIP3    H226641   7.295   6.268   2.121
 8900TIP3   OH226642   7.889   6.937   3.650
 8900TIP3    H126643   7.958   6.897   3.594
 8900TIP3    H226644   7.880   6.871   3.721
 8901TIP3   OH226645   7.486   6.330   3.644
 8901TIP3    H126646   7.492   6.249   3.589
 8901TIP3    H226647   7.454   6.396   3.579
 8902TIP3   OH226648   7.489   6.110   3.458
 8902TIP3    H126649   7.519   6.152   3.375
 8902TIP3    H226650   7.396   6.088   3.436
 8903TIP3   OH226651   8.093   6.613   3.703
 8903TIP3    H126652   8.135   6.546   3.761
 8903TIP3    H226653   8.169   6.659   3.665
 8904TIP3   OH226654   8.113   6.871   3.456
 8904TIP3    H126655   8.066   6.925   3.389
 8904TIP3    H226656   8.203   6.875   3.415
 8905TIP3   OH226657   7.363   6.435   3.874
 8905TIP3    H126658   7.296   6.366   3.892
 8905TIP3    H226659   7.400   6.404   3.788
 8906TIP3   OH226660   7.622   5.866   3.506
 8906TIP3    H126661   7.572   5.950   3.494
 8906TIP3    H226662   7.549   5.800   3.508
 8907TIP3   OH226663   7.753   6.378   3.734
 8907TIP3    H126664   7.740   6.363   3.829
 8907TIP3    H226665   7.664   6.353   3.701
 8908TIP3   OH226666   7.984   6.322   3.582
 8908TIP3    H126667   7.911   6.329   3.646
 8908TIP3    H226668   8.059   6.297   3.639
 8909TIP3   OH226669   8.230   6.268   3.728
 8909TIP3    H126670   8.230   6.173   3.754
 8909TIP3    H226671   8.210   6.315   3.812
 8910TIP3   OH226672   7.205   6.214   3.930
 8910TIP3    H126673   7.210   6.122   3.898
 8910TIP3    H226674   7.243   6.203   4.020
 8911TIP3   OH226675   7.717   5.901   3.767
 8911TIP3    H126676   7.744   5.811   3.799
 8911TIP3    H226677   7.687   5.878   3.677
 8912TIP3   OH226678   7.784   6.103   3.937
 8912TIP3    H126679   7.770   6.034   3.868
 8912TIP3    H226680   7.704   6.158   3.928
 8913TIP3   OH226681   6.996   7.325   2.041
 8913TIP3    H126682   7.092   7.314   2.030
 8913TIP3    H226683   6.976   7.374   1.959
 8914TIP3   OH226684   6.482   6.710   2.250
 8914TIP3    H126685   6.577   6.731   2.236
 8914TIP3    H226686   6.476   6.621   2.208
 8915TIP3   OH226687   6.404   7.320   2.664
 8915TIP3    H126688   6.336   7.262   2.626
 8915TIP3    H226689   6.446   7.260   2.730
 8916TIP3   OH226690   6.538   7.166   2.851
 8916TIP3    H126691   6.521   7.099   2.919
 8916TIP3    H226692   6.587   7.231   2.903
 8917TIP3   OH226693   8.063   6.244   1.945
 8917TIP3    H126694   8.045   6.267   1.853
 8917TIP3    H226695   8.047   6.147   1.944
 8918TIP3   OH226696   8.087   6.503   2.477
 8918TIP3    H126697   8.101   6.408   2.460
 8918TIP3    H226698   8.078   6.506   2.574
 8919TIP3   OH226699   6.724   6.578   3.226
 8919TIP3    H126700   6.717   6.547   3.133
 8919TIP3    H226701   6.822   6.580   3.237
 8920TIP3   OH226702   8.340   6.906   3.314
 8920TIP3    H126703   8.427   6.868   3.337
 8920TIP3    H226704   8.364   6.969   3.244
 8921TIP3   OH226705   8.021   5.971   1.945
 8921TIP3    H126706   8.088   5.904   1.962
 8921TIP3    H226707   7.943   5.918   1.923
 8922TIP3   OH226708   8.092   6.230   2.385
 8922TIP3    H126709   8.123   6.137   2.402
 8922TIP3    H226710   8.136   6.247   2.300
 8923TIP3   OH226711   8.261   6.400   2.846
 8923TIP3    H126712   8.350   6.428   2.826
 8923TIP3    H226713   8.255   6.429   2.940
 8924TIP3   OH226714   8.289   6.523   3.084
 8924TIP3    H126715   8.225   6.560   3.147
 8924TIP3    H226716   8.359   6.591   3.084
 8925TIP3   OH226717   6.939   6.263   3.889
 8925TIP3    H126718   7.037   6.259   3.900
 8925TIP3    H226719   6.914   6.179   3.934
 8926TIP3   OH226720   8.179   5.974   2.427
 8926TIP3    H126721   8.243   5.946   2.496
 8926TIP3    H226722   8.124   5.894   2.419
 8927TIP3   OH226723   6.901   5.957   3.221
 8927TIP3    H126724   6.963   5.883   3.236
 8927TIP3    H226725   6.963   6.032   3.218
 8928TIP3   OH226726   6.700   6.229   3.300
 8928TIP3    H126727   6.751   6.235   3.217
 8928TIP3    H226728   6.720   6.314   3.341
 8929TIP3   OH226729   6.688   5.734   2.800
 8929TIP3    H126730   6.596   5.731   2.830
 8929TIP3    H226731   6.681   5.794   2.723
 8930TIP3   OH226732   6.905   5.814   3.614
 8930TIP3    H126733   6.857   5.811   3.698
 8930TIP3    H226734   6.838   5.854   3.555
 8931TIP3   OH226735   6.946   7.243   3.691
 8931TIP3    H126736   6.852   7.221   3.677
 8931TIP3    H226737   6.955   7.226   3.786
 8932TIP3   OH226738   7.125   7.279   3.242
 8932TIP3    H126739   7.075   7.353   3.201
 8932TIP3    H226740   7.210   7.292   3.196
 8933TIP3   OH226741   7.582   7.531   3.374
 8933TIP3    H126742   7.613   7.527   3.467
 8933TIP3    H226743   7.654   7.584   3.334
 8934TIP3   OH226744   8.530   6.009   3.354
 8934TIP3    H126745   8.447   6.035   3.312
 8934TIP3    H226746   8.570   5.951   3.288
 8935TIP3   OH226747   6.797   7.533   3.267
 8935TIP3    H126748   6.707   7.566   3.244
 8935TIP3    H226749   6.810   7.578   3.352
 8936TIP3   OH226750   7.028   7.507   3.121
 8936TIP3    H126751   6.941   7.519   3.166
 8936TIP3    H226752   7.008   7.539   3.031
 8937TIP3   OH226753   7.449   7.511   2.923
 8937TIP3    H126754   7.415   7.563   2.849
 8937TIP3    H226755   7.477   7.581   2.985
 8938TIP3   OH226756   6.713   7.326   3.007
 8938TIP3    H126757   6.737   7.299   3.098
 8938TIP3    H226758   6.785   7.282   2.957
 8939TIP3   OH226759   6.907   7.199   2.867
 8939TIP3    H126760   6.922   7.116   2.918
 8939TIP3    H226761   6.998   7.235   2.865
 8940TIP3   OH226762   7.172   7.291   2.876
 8940TIP3    H126763   7.202   7.198   2.870
 8940TIP3    H226764   7.222   7.317   2.956
 8941TIP3   OH226765   8.288   5.833   2.855
 8941TIP3    H126766   8.330   5.879   2.779
 8941TIP3    H226767   8.196   5.860   2.845
 8942TIP3   OH226768   8.386   5.924   2.616
 8942TIP3    H126769   8.452   5.866   2.577
 8942TIP3    H226770   8.425   6.012   2.606
 8943TIP3   OH226771   6.995   5.655   2.969
 8943TIP3    H126772   6.902   5.624   2.974
 8943TIP3    H226773   7.042   5.569   2.968
 8944TIP3   OH226774   6.787   5.529   2.623
 8944TIP3    H126775   6.812   5.586   2.548
 8944TIP3    H226776   6.757   5.595   2.689
 8945TIP3   OH226777   7.466   5.690   2.851
 8945TIP3    H126778   7.464   5.780   2.815
 8945TIP3    H226779   7.443   5.706   2.945
 8946TIP3   OH226780   8.015   5.754   2.398
 8946TIP3    H126781   7.924   5.786   2.395
 8946TIP3    H226782   8.005   5.671   2.448
 8947TIP3   OH226783   6.500   7.102   2.399
 8947TIP3    H126784   6.414   7.071   2.366
 8947TIP3    H226785   6.491   7.197   2.377
 8948TIP3   OH226786   6.899   5.683   2.385
 8948TIP3    H126787   6.947   5.621   2.325
 8948TIP3    H226788   6.973   5.738   2.419
 8949TIP3   OH226789   7.399   5.855   2.476
 8949TIP3    H126790   7.440   5.789   2.532
 8949TIP3    H226791   7.437   5.939   2.509
 8950TIP3   OH226792   7.266   7.273   2.003
 8950TIP3    H126793   7.332   7.331   1.958
 8950TIP3    H226794   7.253   7.203   1.934
 8951TIP3   OH226795   7.202   5.940   3.860
 8951TIP3    H126796   7.165   5.870   3.917
 8951TIP3    H226797   7.296   5.938   3.890
 8952TIP3   OH226798   7.450   5.937   3.982
 8952TIP3    H126799   7.535   5.914   3.943
 8952TIP3    H226800   7.441   5.868   4.051
 8953TIP3   OH226801   6.573   7.120   2.037
 8953TIP3    H126802   6.576   7.148   2.130
 8953TIP3    H226803   6.661   7.079   2.024
 8954TIP3   OH226804   8.273   5.994   3.771
 8954TIP3    H126805   8.291   5.967   3.863
 8954TIP3    H226806   8.361   5.987   3.729
 8955TIP3   OH226807   0.969   7.000   4.661
 8955TIP3    H126808   0.980   7.092   4.690
 8955TIP3    H226809   0.983   7.010   4.565
 8956TIP3   OH226810   0.380   6.899   4.267
 8956TIP3    H126811   0.439   6.914   4.344
 8956TIP3    H226812   0.423   6.955   4.201
 8957TIP3   OH226813   1.012   7.218   4.844
 8957TIP3    H126814   0.945   7.277   4.805
 8957TIP3    H226815   0.965   7.192   4.924
 8958TIP3   OH226816   0.574   6.950   4.456
 8958TIP3    H126817   0.598   6.865   4.495
 8958TIP3    H226818   0.644   7.011   4.486
 8959TIP3   OH226819   0.755   6.921   4.833
 8959TIP3    H126820   0.669   6.945   4.795
 8959TIP3    H226821   0.816   6.939   4.758
 8960TIP3   OH226822   0.672   7.926   4.809
 8960TIP3    H126823   0.653   7.840   4.767
 8960TIP3    H226824   0.705   7.980   4.734
 8961TIP3   OH226825   0.878   7.553   4.654
 8961TIP3    H126826   0.795   7.604   4.660
 8961TIP3    H226827   0.906   7.577   4.563
 8962TIP3   OH226828   0.679   6.486   3.907
 8962TIP3    H126829   0.598   6.508   3.957
 8962TIP3    H226830   0.692   6.568   3.856
 8963TIP3   OH226831   0.823   7.385   5.131
 8963TIP3    H126832   0.740   7.416   5.094
 8963TIP3    H226833   0.822   7.290   5.107
 8964TIP3   OH226834   0.646   7.699   4.649
 8964TIP3    H126835   0.678   7.748   4.570
 8964TIP3    H226836   0.557   7.671   4.623
 8965TIP3   OH226837   0.712   7.111   3.809
 8965TIP3    H126838   0.646   7.070   3.749
 8965TIP3    H226839   0.708   7.202   3.772
 8966TIP3   OH226840   0.923   7.955   4.904
 8966TIP3    H126841   0.826   7.962   4.887
 8966TIP3    H226842   0.954   7.936   4.812
 8967TIP3   OH226843   0.820   7.117   5.026
 8967TIP3    H126844   0.748   7.090   5.084
 8967TIP3    H226845   0.809   7.052   4.954
 8968TIP3   OH226846   0.482   7.292   4.436
 8968TIP3    H126847   0.426   7.214   4.445
 8968TIP3    H226848   0.566   7.261   4.476
 8969TIP3   OH226849   0.482   7.383   3.477
 8969TIP3    H126850   0.434   7.336   3.406
 8969TIP3    H226851   0.469   7.475   3.453
 8970TIP3   OH226852   0.750   7.020   5.477
 8970TIP3    H126853   0.716   6.960   5.410
 8970TIP3    H226854   0.665   7.061   5.506
 8971TIP3   OH226855   0.610   7.562   3.817
 8971TIP3    H126856   0.682   7.622   3.791
 8971TIP3    H226857   0.647   7.522   3.898
 8972TIP3   OH226858   0.739   7.438   4.021
 8972TIP3    H126859   0.675   7.389   4.079
 8972TIP3    H226860   0.804   7.472   4.086
 8973TIP3   OH226861   0.777   7.826   4.451
 8973TIP3    H126862   0.838   7.765   4.404
 8973TIP3    H226863   0.780   7.906   4.396
 8974TIP3   OH226864   0.674   7.344   3.665
 8974TIP3    H126865   0.602   7.344   3.597
 8974TIP3    H226866   0.643   7.419   3.721
 8975TIP3   OH226867   0.538   7.023   3.618
 8975TIP3    H126868   0.490   7.061   3.544
 8975TIP3    H226869   0.522   6.928   3.605
 8976TIP3   OH226870   0.574   7.289   4.173
 8976TIP3    H126871   0.555   7.197   4.147
 8976TIP3    H226872   0.537   7.293   4.263
 8977TIP3   OH226873   0.831   7.713   5.029
 8977TIP3    H126874   0.901   7.649   5.010
 8977TIP3    H226875   0.846   7.783   4.964
 8978TIP3   OH226876   1.028   7.522   5.021
 8978TIP3    H126877   0.960   7.469   5.066
 8978TIP3    H226878   1.106   7.505   5.077
 8979TIP3   OH226879   0.499   6.755   3.605
 8979TIP3    H126880   0.577   6.729   3.658
 8979TIP3    H226881   0.431   6.692   3.637
 8980TIP3   OH226882   0.554   7.019   4.079
 8980TIP3    H126883   0.592   6.929   4.088
 8980TIP3    H226884   0.588   7.044   3.992
 8981TIP3   OH226885   0.709   7.185   4.558
 8981TIP3    H126886   0.794   7.211   4.516
 8981TIP3    H226887   0.721   7.230   4.645
 8982TIP3   OH226888   0.762   7.335   4.782
 8982TIP3    H126889   0.680   7.362   4.829
 8982TIP3    H226890   0.795   7.421   4.748
 8983TIP3   OH226891   1.207   6.903   5.339
 8983TIP3    H126892   1.274   6.841   5.304
 8983TIP3    H226893   1.213   6.977   5.279
 8984TIP3   OH226894   0.660   6.760   4.094
 8984TIP3    H126895   0.702   6.747   4.181
 8984TIP3    H226896   0.594   6.688   4.095
 8985TIP3   OH226897   0.737   6.694   3.733
 8985TIP3    H126898   0.775   6.624   3.676
 8985TIP3    H226899   0.805   6.765   3.728
 8986TIP3   OH226900   0.995   6.804   5.029
 8986TIP3    H126901   0.902   6.792   5.002
 8986TIP3    H226902   1.027   6.711   5.025
 8987TIP3   OH226903   0.742   6.623   4.556
 8987TIP3    H126904   0.777   6.666   4.475
 8987TIP3    H226905   0.646   6.638   4.545
 8988TIP3   OH226906   0.818   6.718   4.316
 8988TIP3    H126907   0.888   6.664   4.275
 8988TIP3    H226908   0.853   6.808   4.298
 8989TIP3   OH226909   0.482   6.656   4.516
 8989TIP3    H126910   0.408   6.660   4.453
 8989TIP3    H226911   0.460   6.576   4.569
 8990TIP3   OH226912   0.477   6.543   4.087
 8990TIP3    H126913   0.388   6.571   4.061
 8990TIP3    H226914   0.457   6.461   4.136
 8991TIP3   OH226915   0.744   6.744   5.470
 8991TIP3    H126916   0.743   6.819   5.530
 8991TIP3    H226917   0.824   6.761   5.417
 8992TIP3   OH226918   1.934   7.696   3.728
 8992TIP3    H126919   1.895   7.782   3.704
 8992TIP3    H226920   1.867   7.638   3.689
 8993TIP3   OH226921   1.934   7.713   4.103
 8993TIP3    H126922   1.970   7.684   4.189
 8993TIP3    H226923   1.899   7.631   4.066
 8994TIP3   OH226924   1.232   7.611   4.465
 8994TIP3    H126925   1.269   7.543   4.523
 8994TIP3    H226926   1.311   7.661   4.440
 8995TIP3   OH226927   2.152   8.013   3.792
 8995TIP3    H126928   2.153   7.937   3.852
 8995TIP3    H226929   2.214   8.073   3.835
 8996TIP3   OH226930   1.273   7.952   4.280
 8996TIP3    H126931   1.238   7.869   4.245
 8996TIP3    H226932   1.347   7.969   4.218
 8997TIP3   OH226933   0.913   7.216   3.973
 8997TIP3    H126934   0.864   7.299   3.988
 8997TIP3    H226935   0.842   7.163   3.931
 8998TIP3   OH226936   0.968   7.506   4.157
 8998TIP3    H126937   1.018   7.426   4.185
 8998TIP3    H226938   1.029   7.547   4.094
 8999TIP3   OH226939   1.748   7.925   4.148
 8999TIP3    H126940   1.798   7.848   4.113
 8999TIP3    H226941   1.826   7.981   4.171
 9000TIP3   OH226942   2.745   7.254   4.144
 9000TIP3    H126943   2.776   7.340   4.179
 9000TIP3    H226944   2.790   7.255   4.057
 9001TIP3   OH226945   2.138   7.435   4.181
 9001TIP3    H126946   2.190   7.354   4.200
 9001TIP3    H226947   2.115   7.420   4.087
 9002TIP3   OH226948   1.484   7.096   4.146
 9002TIP3    H126949   1.468   7.169   4.081
 9002TIP3    H226950   1.439   7.023   4.099
 9003TIP3   OH226951   2.180   7.192   3.763
 9003TIP3    H126952   2.252   7.175   3.829
 9003TIP3    H226953   2.234   7.226   3.688
 9004TIP3   OH226954   1.116   7.296   4.254
 9004TIP3    H126955   1.202   7.279   4.298
 9004TIP3    H226956   1.128   7.243   4.172
 9005TIP3   OH226957   1.555   7.495   4.054
 9005TIP3    H126958   1.651   7.473   4.060
 9005TIP3    H226959   1.518   7.412   4.017
 9006TIP3   OH226960   2.826   7.461   4.320
 9006TIP3    H126961   2.746   7.509   4.292
 9006TIP3    H226962   2.840   7.499   4.408
 9007TIP3   OH226963   1.477   7.077   4.576
 9007TIP3    H126964   1.433   7.125   4.503
 9007TIP3    H226965   1.402   7.063   4.635
 9008TIP3   OH226966   1.809   7.901   3.591
 9008TIP3    H126967   1.778   7.897   3.500
 9008TIP3    H226968   1.847   7.991   3.598
 9009TIP3   OH226969   1.587   7.862   4.371
 9009TIP3    H126970   1.521   7.929   4.395
 9009TIP3    H226971   1.627   7.902   4.291
 9010TIP3   OH226972   2.384   7.189   3.940
 9010TIP3    H126973   2.389   7.153   4.029
 9010TIP3    H226974   2.445   7.265   3.946
 9011TIP3   OH226975   1.355   7.195   4.363
 9011TIP3    H126976   1.415   7.271   4.381
 9011TIP3    H226977   1.401   7.157   4.284
 9012TIP3   OH226978   1.408   8.085   4.477
 9012TIP3    H126979   1.363   8.053   4.396
 9012TIP3    H226980   1.332   8.076   4.540
 9013TIP3   OH226981   0.816   7.712   3.715
 9013TIP3    H126982   0.774   7.710   3.626
 9013TIP3    H226983   0.825   7.808   3.724
 9014TIP3   OH226984   2.542   7.154   4.310
 9014TIP3    H126985   2.456   7.185   4.277
 9014TIP3    H226986   2.604   7.189   4.242
 9015TIP3   OH226987   1.834   6.794   4.291
 9015TIP3    H126988   1.822   6.699   4.311
 9015TIP3    H226989   1.757   6.831   4.340
 9016TIP3   OH226990   2.182   8.028   3.508
 9016TIP3    H126991   2.163   7.947   3.458
 9016TIP3    H226992   2.197   7.996   3.598
 9017TIP3   OH226993   2.466   8.167   4.293
 9017TIP3    H126994   2.455   8.088   4.236
 9017TIP3    H226995   2.499   8.234   4.229
 9018TIP3   OH226996   1.770   7.558   3.556
 9018TIP3    H126997   1.689   7.610   3.536
 9018TIP3    H226998   1.814   7.555   3.469
 9019TIP3   OH226999   1.725   7.348   3.264
 9019TIP3    H127000   1.792   7.401   3.312
 9019TIP3    H227001   1.783   7.285   3.217
 9020TIP3   OH227002   2.672   7.814   4.150
 9020TIP3    H127003   2.587   7.862   4.146
 9020TIP3    H227004   2.700   7.820   4.056
 9021TIP3   OH227005   2.114   7.636   3.527
 9021TIP3    H127006   2.063   7.657   3.608
 9021TIP3    H227007   2.198   7.604   3.567
 9022TIP3   OH227008   2.348   7.682   4.438
 9022TIP3    H127009   2.346   7.766   4.487
 9022TIP3    H227010   2.263   7.687   4.390
 9023TIP3   OH227011   1.351   7.643   3.932
 9023TIP3    H127012   1.308   7.583   3.867
 9023TIP3    H227013   1.426   7.588   3.964
 9024TIP3   OH227014   1.488   8.013   4.136
 9024TIP3    H127015   1.451   8.009   4.046
 9024TIP3    H227016   1.584   8.005   4.120
 9025TIP3   OH227017   1.474   7.619   4.292
 9025TIP3    H127018   1.510   7.590   4.205
 9025TIP3    H227019   1.522   7.703   4.307
 9026TIP3   OH227020   1.662   8.076   4.615
 9026TIP3    H127021   1.621   8.162   4.636
 9026TIP3    H227022   1.593   8.038   4.558
 9027TIP3   OH227023   1.947   7.505   3.349
 9027TIP3    H127024   2.010   7.561   3.399
 9027TIP3    H227025   1.978   7.520   3.256
 9028TIP3   OH227026   1.378   7.719   4.726
 9028TIP3    H127027   1.385   7.810   4.763
 9028TIP3    H227028   1.282   7.703   4.734
 9029TIP3   OH227029   2.470   6.744   3.395
 9029TIP3    H127030   2.389   6.765   3.446
 9029TIP3    H227031   2.486   6.828   3.348
 9030TIP3   OH227032   1.213   7.485   3.747
 9030TIP3    H127033   1.148   7.528   3.687
 9030TIP3    H227034   1.175   7.396   3.755
 9031TIP3   OH227035   1.007   7.870   4.659
 9031TIP3    H127036   0.941   7.856   4.589
 9031TIP3    H227037   1.042   7.781   4.675
 9032TIP3   OH227038   2.600   7.642   4.615
 9032TIP3    H127039   2.521   7.653   4.560
 9032TIP3    H227040   2.618   7.547   4.604
 9033TIP3   OH227041   1.205   8.064   4.656
 9033TIP3    H127042   1.255   8.024   4.729
 9033TIP3    H227043   1.128   8.003   4.648
 9034TIP3   OH227044   1.599   6.869   4.425
 9034TIP3    H127045   1.511   6.842   4.393
 9034TIP3    H227046   1.577   6.957   4.459
 9035TIP3   OH227047   2.136   6.990   4.618
 9035TIP3    H127048   2.206   6.961   4.679
 9035TIP3    H227049   2.054   6.969   4.667
 9036TIP3   OH227050   2.365   7.416   4.533
 9036TIP3    H127051   2.317   7.417   4.619
 9036TIP3    H227052   2.348   7.506   4.498
 9037TIP3   OH227053   2.030   7.530   3.093
 9037TIP3    H127054   1.998   7.511   3.003
 9037TIP3    H227055   2.097   7.598   3.074
 9038TIP3   OH227056   1.740   6.925   3.395
 9038TIP3    H127057   1.706   6.920   3.487
 9038TIP3    H227058   1.703   6.842   3.360
 9039TIP3   OH227059   1.528   7.394   4.437
 9039TIP3    H127060   1.483   7.416   4.521
 9039TIP3    H227061   1.513   7.476   4.385
 9040TIP3   OH227062   1.413   7.277   3.957
 9040TIP3    H127063   1.320   7.251   3.974
 9040TIP3    H227064   1.426   7.238   3.868
 9041TIP3   OH227065   1.905   7.358   3.685
 9041TIP3    H127066   1.854   7.428   3.639
 9041TIP3    H227067   1.964   7.326   3.614
 9042TIP3   OH227068   2.083   7.637   4.767
 9042TIP3    H127069   2.061   7.564   4.829
 9042TIP3    H227070   2.177   7.651   4.789
 9043TIP3   OH227071   2.059   7.389   3.921
 9043TIP3    H127072   1.999   7.416   3.848
 9043TIP3    H227073   2.098   7.310   3.878
 9044TIP3   OH227074   1.347   7.431   4.645
 9044TIP3    H127075   1.378   7.504   4.702
 9044TIP3    H227076   1.279   7.389   4.699
 9045TIP3   OH227077   1.397   6.898   3.360
 9045TIP3    H127078   1.388   6.896   3.457
 9045TIP3    H227079   1.320   6.951   3.335
 9046TIP3   OH227080   0.945   6.938   4.238
 9046TIP3    H127081   1.023   6.975   4.283
 9046TIP3    H227082   0.977   6.914   4.149
 9047TIP3   OH227083   0.910   6.920   3.750
 9047TIP3    H127084   0.955   6.958   3.672
 9047TIP3    H227085   0.848   6.993   3.769
 9048TIP3   OH227086   2.065   7.635   4.344
 9048TIP3    H127087   2.100   7.563   4.285
 9048TIP3    H227088   2.038   7.581   4.421
 9049TIP3   OH227089   1.745   7.101   4.016
 9049TIP3    H127090   1.666   7.098   4.074
 9049TIP3    H227091   1.818   7.091   4.079
 9050TIP3   OH227092   1.173   7.154   4.026
 9050TIP3    H127093   1.080   7.164   3.996
 9050TIP3    H227094   1.196   7.064   3.998
 9051TIP3   OH227095   1.440   7.151   3.716
 9051TIP3    H127096   1.534   7.165   3.695
 9051TIP3    H227097   1.394   7.173   3.631
 9052TIP3   OH227098   2.236   7.178   4.227
 9052TIP3    H127099   2.194   7.189   4.315
 9052TIP3    H227100   2.175   7.117   4.184
 9053TIP3   OH227101   1.289   7.186   3.491
 9053TIP3    H127102   1.218   7.141   3.442
 9053TIP3    H227103   1.341   7.224   3.417
 9054TIP3   OH227104   1.368   7.967   4.860
 9054TIP3    H127105   1.445   7.997   4.912
 9054TIP3    H227106   1.301   7.959   4.931
 9055TIP3   OH227107   1.824   7.428   4.109
 9055TIP3    H127108   1.897   7.395   4.055
 9055TIP3    H227109   1.839   7.381   4.193
 9056TIP3   OH227110   1.345   6.914   3.995
 9056TIP3    H127111   1.309   6.835   4.041
 9056TIP3    H227112   1.391   6.875   3.920
 9057TIP3   OH227113   1.799   7.320   4.414
 9057TIP3    H127114   1.712   7.363   4.417
 9057TIP3    H227115   1.859   7.385   4.455
 9058TIP3   OH227116   1.538   7.699   3.504
 9058TIP3    H127117   1.460   7.641   3.491
 9058TIP3    H227118   1.514   7.743   3.590
 9059TIP3   OH227119   2.433   7.949   4.129
 9059TIP3    H127120   2.463   7.996   4.048
 9059TIP3    H227121   2.351   7.905   4.099
 9060TIP3   OH227122   1.994   7.025   3.365
 9060TIP3    H127123   1.897   7.008   3.373
 9060TIP3    H227124   2.003   7.119   3.390
 9061TIP3   OH227125   1.945   8.054   4.497
 9061TIP3    H127126   1.981   8.003   4.571
 9061TIP3    H227127   1.864   8.091   4.534
 9062TIP3   OH227128   2.064   7.274   3.468
 9062TIP3    H127129   2.161   7.275   3.483
 9062TIP3    H227130   2.051   7.355   3.415
 9063TIP3   OH227131   1.218   7.703   4.166
 9063TIP3    H127132   1.260   7.692   4.078
 9063TIP3    H227133   1.277   7.652   4.223
 9064TIP3   OH227134   1.647   7.888   3.340
 9064TIP3    H127135   1.604   7.957   3.395
 9064TIP3    H227136   1.613   7.808   3.387
 9065TIP3   OH227137   1.115   7.644   4.785
 9065TIP3    H127138   1.120   7.627   4.881
 9065TIP3    H227139   1.037   7.591   4.761
 9066TIP3   OH227140   1.843   7.761   4.812
 9066TIP3    H127141   1.784   7.713   4.753
 9066TIP3    H227142   1.931   7.727   4.782
 9067TIP3   OH227143   2.508   7.360   3.283
 9067TIP3    H127144   2.438   7.327   3.223
 9067TIP3    H227145   2.508   7.454   3.260
 9068TIP3   OH227146   2.724   8.207   4.383
 9068TIP3    H127147   2.627   8.218   4.373
 9068TIP3    H227148   2.749   8.189   4.289
 9069TIP3   OH227149   2.199   7.821   4.036
 9069TIP3    H127150   2.107   7.793   4.054
 9069TIP3    H227151   2.235   7.737   3.999
 9070TIP3   OH227152   0.897   7.343   3.505
 9070TIP3    H127153   0.941   7.429   3.525
 9070TIP3    H227154   0.819   7.348   3.565
 9071TIP3   OH227155   1.464   7.816   3.743
 9071TIP3    H127156   1.426   7.899   3.774
 9071TIP3    H227157   1.437   7.755   3.815
 9072TIP3   OH227158   1.991   8.020   4.225
 9072TIP3    H127159   1.982   8.028   4.322
 9072TIP3    H227160   2.074   7.973   4.214
 9073TIP3   OH227161   1.997   7.849   3.082
 9073TIP3    H127162   2.029   7.837   3.174
 9073TIP3    H227163   1.916   7.902   3.096
 9074TIP3   OH227164   2.121   7.823   3.330
 9074TIP3    H127165   2.117   7.751   3.397
 9074TIP3    H227166   2.217   7.823   3.309
 9075TIP3   OH227167   1.309   7.842   3.160
 9075TIP3    H127168   1.348   7.756   3.134
 9075TIP3    H227169   1.349   7.856   3.246
 9076TIP3   OH227170   1.017   7.586   3.582
 9076TIP3    H127171   0.950   7.623   3.643
 9076TIP3    H227172   1.020   7.658   3.515
 9077TIP3   OH227173   2.151   7.234   4.487
 9077TIP3    H127174   2.239   7.269   4.511
 9077TIP3    H227175   2.147   7.151   4.539
 9078TIP3   OH227176   2.039   6.978   3.647
 9078TIP3    H127177   2.028   6.999   3.553
 9078TIP3    H227178   2.081   7.060   3.682
 9079TIP3   OH227179   1.721   7.161   3.746
 9079TIP3    H127180   1.788   7.230   3.727
 9079TIP3    H227181   1.731   7.151   3.843
 9080TIP3   OH227182   1.995   7.473   4.551
 9080TIP3    H127183   2.026   7.521   4.631
 9080TIP3    H227184   2.050   7.392   4.553
 9081TIP3   OH227185   1.869   6.880   3.844
 9081TIP3    H127186   1.868   6.955   3.905
 9081TIP3    H227187   1.931   6.914   3.775
 9082TIP3   OH227188   1.382   6.885   3.637
 9082TIP3    H127189   1.381   6.976   3.674
 9082TIP3    H227190   1.478   6.866   3.644
 9083TIP3   OH227191   2.635   7.378   4.537
 9083TIP3    H127192   2.537   7.373   4.539
 9083TIP3    H227193   2.652   7.341   4.449
 9084TIP3   OH227194   2.286   7.578   3.929
 9084TIP3    H127195   2.215   7.511   3.929
 9084TIP3    H227196   2.360   7.529   3.973
 9085TIP3   OH227197   1.007   7.802   3.396
 9085TIP3    H127198   1.034   7.894   3.382
 9085TIP3    H227199   1.062   7.754   3.330
 9086TIP3   OH227200   0.943   7.074   3.526
 9086TIP3    H127201   0.945   7.172   3.526
 9086TIP3    H227202   0.861   7.056   3.480
 9087TIP3   OH227203   1.329   6.795   4.399
 9087TIP3    H127204   1.302   6.765   4.310
 9087TIP3    H227205   1.320   6.713   4.451
 9088TIP3   OH227206   1.161   7.936   5.034
 9088TIP3    H127207   1.176   7.840   5.048
 9088TIP3    H227208   1.070   7.936   4.997
 9089TIP3   OH227209   1.131   7.603   3.251
 9089TIP3    H127210   1.182   7.568   3.326
 9089TIP3    H227211   1.203   7.607   3.184
 9090TIP3   OH227212   1.782   8.024   4.854
 9090TIP3    H127213   1.748   8.038   4.763
 9090TIP3    H227214   1.818   7.933   4.846
 9091TIP3   OH227215   1.582   7.783   3.064
 9091TIP3    H127216   1.620   7.801   3.150
 9091TIP3    H227217   1.615   7.692   3.047
 9092TIP3   OH227218   2.256   8.052   4.431
 9092TIP3    H127219   2.328   8.102   4.386
 9092TIP3    H227220   2.182   8.113   4.418
 9093TIP3   OH227221   1.285   7.682   5.041
 9093TIP3    H127222   1.372   7.662   5.006
 9093TIP3    H227223   1.308   7.720   5.129
 9094TIP3   OH227224   1.334   7.514   3.461
 9094TIP3    H127225   1.310   7.469   3.543
 9094TIP3    H227226   1.377   7.443   3.410
 9095TIP3   OH227227   1.613   7.577   4.691
 9095TIP3    H127228   1.539   7.641   4.695
 9095TIP3    H227229   1.666   7.615   4.617
 9096TIP3   OH227230   1.447   7.313   3.307
 9096TIP3    H127231   1.423   7.314   3.212
 9096TIP3    H227232   1.545   7.315   3.300
 9097TIP3   OH227233   2.136   7.976   4.825
 9097TIP3    H127234   2.216   7.953   4.777
 9097TIP3    H227235   2.135   7.911   4.897
 9098TIP3   OH227236   2.260   7.651   2.967
 9098TIP3    H127237   2.238   7.597   2.888
 9098TIP3    H227238   2.238   7.740   2.933
 9099TIP3   OH227239   1.727   7.367   4.821
 9099TIP3    H127240   1.737   7.291   4.761
 9099TIP3    H227241   1.690   7.436   4.762
 9100TIP3   OH227242   1.738   7.155   4.631
 9100TIP3    H127243   1.772   7.200   4.550
 9100TIP3    H227244   1.645   7.138   4.606
 9101TIP3   OH227245   1.762   7.696   4.503
 9101TIP3    H127246   1.846   7.699   4.456
 9101TIP3    H227247   1.708   7.762   4.455
 9102TIP3   OH227248   2.347   7.659   4.880
 9102TIP3    H127249   2.395   7.575   4.886
 9102TIP3    H227250   2.415   7.718   4.845
 9103TIP3   OH227251   2.387   7.911   4.619
 9103TIP3    H127252   2.331   7.965   4.558
 9103TIP3    H227253   2.476   7.930   4.581
 9104TIP3   OH227254   1.620   7.484   5.054
 9104TIP3    H127255   1.540   7.432   5.065
 9104TIP3    H227256   1.654   7.454   4.966
 9105TIP3   OH227257   1.873   6.919   4.697
 9105TIP3    H127258   1.823   7.000   4.673
 9105TIP3    H227259   1.807   6.849   4.682
 9106TIP3   OH227260   1.996   7.422   4.912
 9106TIP3    H127261   1.990   7.408   5.008
 9106TIP3    H227262   1.905   7.396   4.885
 9107TIP3   OH227263   2.238   7.379   4.769
 9107TIP3    H127264   2.164   7.375   4.831
 9107TIP3    H227265   2.313   7.346   4.823
 9108TIP3   OH227266   2.462   7.314   4.917
 9108TIP3    H127267   2.478   7.218   4.932
 9108TIP3    H227268   2.461   7.350   5.008
 9109TIP3   OH227269   1.963   6.929   4.955
 9109TIP3    H127270   2.031   6.859   4.951
 9109TIP3    H227271   1.927   6.924   4.864
 9110TIP3   OH227272   2.032   7.143   5.113
 9110TIP3    H127273   2.011   7.071   5.050
 9110TIP3    H227274   1.953   7.200   5.105
 9111TIP3   OH227275   0.748   7.705   3.439
 9111TIP3    H127276   0.828   7.749   3.404
 9111TIP3    H227277   0.734   7.634   3.374
 9112TIP3   OH227278   2.612   8.338   4.658
 9112TIP3    H127279   2.539   8.319   4.720
 9112TIP3    H227280   2.661   8.406   4.705
 9113TIP3   OH227281   2.391   7.824   3.308
 9113TIP3    H127282   2.465   7.878   3.275
 9113TIP3    H227283   2.431   7.788   3.391
 9114TIP3   OH227284   2.515   7.713   3.516
 9114TIP3    H127285   2.474   7.640   3.565
 9114TIP3    H227286   2.602   7.722   3.561
 9115TIP3   OH227287   2.570   8.081   3.935
 9115TIP3    H127288   2.632   8.017   3.894
 9115TIP3    H227289   2.578   8.158   3.879
 9116TIP3   OH227290   2.465   7.609   3.147
 9116TIP3    H127291   2.391   7.613   3.082
 9116TIP3    H227292   2.437   7.679   3.209
 9117TIP3   OH227293   2.325   7.277   3.099
 9117TIP3    H127294   2.279   7.307   3.019
 9117TIP3    H227295   2.308   7.181   3.095
 9118TIP3   OH227296   2.340   7.542   3.657
 9118TIP3    H127297   2.392   7.461   3.655
 9118TIP3    H227298   2.336   7.562   3.753
 9119TIP3   OH227299   0.967   7.628   4.404
 9119TIP3    H127300   0.963   7.593   4.312
 9119TIP3    H227301   1.064   7.632   4.417
 9120TIP3   OH227302   2.631   7.974   4.514
 9120TIP3    H127303   2.703   7.908   4.502
 9120TIP3    H227304   2.657   8.043   4.450
 9121TIP3   OH227305   2.817   7.779   4.526
 9121TIP3    H127306   2.742   7.729   4.564
 9121TIP3    H227307   2.890   7.716   4.543
 9122TIP3   OH227308   2.283   7.007   3.083
 9122TIP3    H127309   2.359   6.982   3.139
 9122TIP3    H227310   2.212   6.950   3.114
 9123TIP3   OH227311   2.337   7.260   3.539
 9123TIP3    H127312   2.380   7.172   3.553
 9123TIP3    H227313   2.408   7.304   3.490
 9124TIP3   OH227314   2.495   7.444   4.046
 9124TIP3    H127315   2.580   7.464   4.000
 9124TIP3    H227316   2.519   7.479   4.134
 9125TIP3   OH227317   2.577   7.587   4.277
 9125TIP3    H127318   2.497   7.623   4.320
 9125TIP3    H227319   2.612   7.666   4.230
 9126TIP3   OH227320   3.020   7.179   4.829
 9126TIP3    H127321   3.082   7.114   4.788
 9126TIP3    H227322   2.991   7.231   4.751
 9127TIP3   OH227323   2.447   7.016   3.590
 9127TIP3    H127324   2.498   7.004   3.673
 9127TIP3    H227325   2.389   6.937   3.591
 9128TIP3   OH227326   1.152   7.007   4.418
 9128TIP3    H127327   1.210   6.929   4.413
 9128TIP3    H227328   1.213   7.079   4.397
 9129TIP3   OH227329   0.958   7.276   4.485
 9129TIP3    H127330   1.000   7.267   4.397
 9129TIP3    H227331   0.973   7.369   4.504
 9130TIP3   OH227332   2.889   7.315   4.632
 9130TIP3    H127333   2.802   7.357   4.645
 9130TIP3    H227334   2.863   7.240   4.574
 9131TIP3   OH227335   2.523   6.953   3.214
 9131TIP3    H127336   2.569   6.883   3.165
 9131TIP3    H227337   2.592   7.022   3.224
 9132TIP3   OH227338   0.935   6.787   3.984
 9132TIP3    H127339   0.841   6.776   4.008
 9132TIP3    H227340   0.929   6.842   3.903
 9133TIP3   OH227341   1.162   6.912   4.842
 9133TIP3    H127342   1.092   6.873   4.899
 9133TIP3    H227343   1.107   6.936   4.764
 9134TIP3   OH227344   2.790   7.078   4.515
 9134TIP3    H127345   2.701   7.068   4.477
 9134TIP3    H227346   2.825   6.986   4.505
 9135TIP3   OH227347   1.990   6.992   4.129
 9135TIP3    H127348   1.954   6.918   4.181
 9135TIP3    H227349   2.069   6.952   4.088
 9136TIP3   OH227350   2.519   6.876   4.030
 9136TIP3    H127351   2.558   6.933   3.959
 9136TIP3    H227352   2.425   6.900   4.026
 9137TIP3   OH227353   2.626   6.997   3.801
 9137TIP3    H127354   2.697   6.943   3.760
 9137TIP3    H227355   2.659   7.087   3.788
 9138TIP3   OH227356   1.244   6.703   4.153
 9138TIP3    H127357   1.151   6.672   4.152
 9138TIP3    H227358   1.291   6.616   4.146
 9139TIP3   OH227359   1.035   6.574   3.801
 9139TIP3    H127360   1.064   6.628   3.726
 9139TIP3    H227361   1.006   6.642   3.865
 9140TIP3   OH227362   1.690   6.736   4.033
 9140TIP3    H127363   1.743   6.780   3.965
 9140TIP3    H227364   1.728   6.773   4.114
 9141TIP3   OH227365   2.226   6.882   4.017
 9141TIP3    H127366   2.237   6.844   3.928
 9141TIP3    H227367   2.218   6.801   4.072
 9142TIP3   OH227368   2.265   6.804   3.578
 9142TIP3    H127369   2.179   6.847   3.591
 9142TIP3    H227370   2.250   6.718   3.622
 9143TIP3   OH227371   1.151   6.729   3.561
 9143TIP3    H127372   1.198   6.667   3.502
 9143TIP3    H227373   1.225   6.783   3.595
 9144TIP3   OH227374   1.658   6.910   3.660
 9144TIP3    H127375   1.721   6.862   3.717
 9144TIP3    H227376   1.681   7.002   3.684
 9145TIP3   OH227377   1.676   6.987   5.155
 9145TIP3    H127378   1.762   6.966   5.115
 9145TIP3    H227379   1.667   6.916   5.221
 9146TIP3   OH227380   2.529   7.044   4.946
 9146TIP3    H127381   2.547   7.012   5.037
 9146TIP3    H227382   2.618   7.039   4.905
 9147TIP3   OH227383   3.738   7.957   3.210
 9147TIP3    H127384   3.695   8.039   3.181
 9147TIP3    H227385   3.669   7.892   3.186
 9148TIP3   OH227386   3.731   7.965   3.589
 9148TIP3    H127387   3.769   7.943   3.677
 9148TIP3    H227388   3.690   7.880   3.565
 9149TIP3   OH227389   3.026   7.865   3.955
 9149TIP3    H127390   3.055   7.792   4.012
 9149TIP3    H227391   3.110   7.911   3.939
 9150TIP3   OH227392   3.974   8.271   3.244
 9150TIP3    H127393   3.961   8.193   3.301
 9150TIP3    H227394   4.035   8.323   3.299
 9151TIP3   OH227395   3.059   8.221   3.753
 9151TIP3    H127396   3.034   8.129   3.728
 9151TIP3    H227397   3.143   8.230   3.703
 9152TIP3   OH227398   2.762   7.767   3.633
 9152TIP3    H127399   2.812   7.690   3.668
 9152TIP3    H227400   2.826   7.803   3.570
 9153TIP3   OH227401   3.547   8.184   3.623
 9153TIP3    H127402   3.595   8.103   3.596
 9153TIP3    H227403   3.625   8.236   3.653
 9154TIP3   OH227404   4.544   7.513   3.633
 9154TIP3    H127405   4.574   7.595   3.676
 9154TIP3    H227406   4.571   7.528   3.541
 9155TIP3   OH227407   3.944   7.696   3.664
 9155TIP3    H127408   3.986   7.610   3.686
 9155TIP3    H227409   3.910   7.676   3.574
 9156TIP3   OH227410   3.287   7.356   3.627
 9156TIP3    H127411   3.258   7.428   3.566
 9156TIP3    H227412   3.238   7.280   3.586
 9157TIP3   OH227413   3.977   7.446   3.250
 9157TIP3    H127414   4.046   7.430   3.318
 9157TIP3    H227415   4.033   7.479   3.177
 9158TIP3   OH227416   2.923   7.581   3.746
 9158TIP3    H127417   3.002   7.532   3.776
 9158TIP3    H227418   2.863   7.508   3.720
 9159TIP3   OH227419   3.351   7.751   3.535
 9159TIP3    H127420   3.445   7.726   3.548
 9159TIP3    H227421   3.311   7.667   3.505
 9160TIP3   OH227422   4.617   7.720   3.805
 9160TIP3    H127423   4.532   7.766   3.791
 9160TIP3    H227424   4.648   7.761   3.889
 9161TIP3   OH227425   3.277   7.338   4.067
 9161TIP3    H127426   3.214   7.368   3.998
 9161TIP3    H227427   3.223   7.356   4.147
 9162TIP3   OH227428   3.630   8.160   3.054
 9162TIP3    H127429   3.559   8.125   2.998
 9162TIP3    H227430   3.596   8.248   3.073
 9163TIP3   OH227431   3.382   8.121   3.859
 9163TIP3    H127432   3.315   8.182   3.892
 9163TIP3    H227433   3.413   8.167   3.779
 9164TIP3   OH227434   4.180   7.452   3.428
 9164TIP3    H127435   4.172   7.401   3.510
 9164TIP3    H227436   4.235   7.528   3.456
 9165TIP3   OH227437   3.149   7.447   3.847
 9165TIP3    H127438   3.209   7.521   3.871
 9165TIP3    H227439   3.198   7.408   3.771
 9166TIP3   OH227440   3.207   8.331   3.967
 9166TIP3    H127441   3.163   8.324   3.879
 9166TIP3    H227442   3.128   8.325   4.024
 9167TIP3   OH227443   2.604   7.962   3.201
 9167TIP3    H127444   2.568   7.976   3.110
 9167TIP3    H227445   2.619   8.054   3.227
 9168TIP3   OH227446   4.337   7.410   3.798
 9168TIP3    H127447   4.251   7.440   3.765
 9168TIP3    H227448   4.399   7.444   3.729
 9169TIP3   OH227449   3.631   7.054   3.782
 9169TIP3    H127450   3.615   6.959   3.799
 9169TIP3    H227451   3.554   7.093   3.829
 9170TIP3   OH227452   4.261   8.423   3.781
 9170TIP3    H127453   4.252   8.345   3.723
 9170TIP3    H227454   4.294   8.491   3.717
 9171TIP3   OH227455   3.567   7.815   3.042
 9171TIP3    H127456   3.481   7.861   3.025
 9171TIP3    H227457   3.605   7.809   2.953
 9172TIP3   OH227458   3.522   7.605   2.749
 9172TIP3    H127459   3.590   7.655   2.797
 9172TIP3    H227460   3.578   7.540   2.702
 9173TIP3   OH227461   4.465   8.060   3.623
 9173TIP3    H127462   4.383   8.113   3.629
 9173TIP3    H227463   4.497   8.086   3.534
 9174TIP3   OH227464   3.911   7.894   3.009
 9174TIP3    H127465   3.856   7.910   3.089
 9174TIP3    H227466   3.995   7.865   3.051
 9175TIP3   OH227467   4.144   7.939   3.924
 9175TIP3    H127468   4.143   8.022   3.975
 9175TIP3    H227469   4.057   7.944   3.880
 9176TIP3   OH227470   3.150   7.897   3.414
 9176TIP3    H127471   3.106   7.836   3.350
 9176TIP3    H227472   3.222   7.841   3.450
 9177TIP3   OH227473   3.284   8.263   3.617
 9177TIP3    H127474   3.243   8.259   3.529
 9177TIP3    H227475   3.379   8.254   3.599
 9178TIP3   OH227476   3.277   7.873   3.782
 9178TIP3    H127477   3.307   7.847   3.692
 9178TIP3    H227478   3.321   7.959   3.795
 9179TIP3   OH227479   3.462   8.333   4.098
 9179TIP3    H127480   3.421   8.419   4.119
 9179TIP3    H227481   3.390   8.293   4.046
 9180TIP3   OH227482   3.745   7.760   2.834
 9180TIP3    H127483   3.808   7.816   2.884
 9180TIP3    H227484   3.776   7.774   2.740
 9181TIP3   OH227485   3.175   7.982   4.208
 9181TIP3    H127486   3.177   8.070   4.251
 9181TIP3    H227487   3.080   7.959   4.217
 9182TIP3   OH227488   4.266   6.999   2.883
 9182TIP3    H127489   4.185   7.020   2.934
 9182TIP3    H227490   4.279   7.082   2.834
 9183TIP3   OH227491   3.015   7.740   3.225
 9183TIP3    H127492   2.942   7.778   3.171
 9183TIP3    H227493   2.977   7.655   3.251
 9184TIP3   OH227494   2.806   8.126   4.137
 9184TIP3    H127495   2.740   8.104   4.069
 9184TIP3    H227496   2.840   8.037   4.162
 9185TIP3   OH227497   4.395   7.897   4.103
 9185TIP3    H127498   4.315   7.907   4.050
 9185TIP3    H227499   4.414   7.802   4.093
 9186TIP3   OH227500   2.990   8.332   4.144
 9186TIP3    H127501   3.048   8.291   4.212
 9186TIP3    H227502   2.922   8.262   4.132
 9187TIP3   OH227503   3.395   7.133   3.912
 9187TIP3    H127504   3.307   7.101   3.881
 9187TIP3    H227505   3.367   7.213   3.960
 9188TIP3   OH227506   3.929   7.247   4.105
 9188TIP3    H127507   3.998   7.218   4.168
 9188TIP3    H227508   3.846   7.227   4.153
 9189TIP3   OH227509   4.163   7.674   4.021
 9189TIP3    H127510   4.114   7.673   4.106
 9189TIP3    H227511   4.143   7.763   3.986
 9190TIP3   OH227512   3.830   7.791   2.581
 9190TIP3    H127513   3.794   7.768   2.493
 9190TIP3    H227514   3.902   7.851   2.555
 9191TIP3   OH227515   3.539   7.181   2.882
 9191TIP3    H127516   3.505   7.177   2.973
 9191TIP3    H227517   3.500   7.098   2.847
 9192TIP3   OH227518   3.327   7.649   3.928
 9192TIP3    H127519   3.273   7.666   4.008
 9192TIP3    H227520   3.309   7.730   3.875
 9193TIP3   OH227521   3.200   7.535   3.442
 9193TIP3    H127522   3.107   7.507   3.459
 9193TIP3    H227523   3.214   7.492   3.355
 9194TIP3   OH227524   3.704   7.620   3.174
 9194TIP3    H127525   3.650   7.686   3.126
 9194TIP3    H227526   3.758   7.582   3.102
 9195TIP3   OH227527   3.878   7.894   4.255
 9195TIP3    H127528   3.855   7.822   4.317
 9195TIP3    H227529   3.972   7.906   4.276
 9196TIP3   OH227530   3.858   7.645   3.408
 9196TIP3    H127531   3.794   7.668   3.337
 9196TIP3    H227532   3.896   7.565   3.366
 9197TIP3   OH227533   3.147   7.676   4.134
 9197TIP3    H127534   3.172   7.737   4.204
 9197TIP3    H227535   3.132   7.593   4.184
 9198TIP3   OH227536   3.194   7.155   2.846
 9198TIP3    H127537   3.186   7.152   2.944
 9198TIP3    H227538   3.116   7.209   2.823
 9199TIP3   OH227539   2.711   7.178   3.236
 9199TIP3    H127540   2.758   7.221   3.162
 9199TIP3    H227541   2.649   7.250   3.261
 9200TIP3   OH227542   3.866   7.893   3.828
 9200TIP3    H127543   3.900   7.822   3.770
 9200TIP3    H227544   3.836   7.839   3.905
 9201TIP3   OH227545   3.541   7.359   3.502
 9201TIP3    H127546   3.458   7.357   3.554
 9201TIP3    H227547   3.608   7.348   3.572
 9202TIP3   OH227548   2.963   7.400   3.488
 9202TIP3    H127549   2.875   7.387   3.530
 9202TIP3    H227550   2.997   7.309   3.485
 9203TIP3   OH227551   3.237   7.407   3.202
 9203TIP3    H127552   3.331   7.422   3.179
 9203TIP3    H227553   3.189   7.428   3.119
 9204TIP3   OH227554   4.026   7.434   3.707
 9204TIP3    H127555   3.993   7.446   3.799
 9204TIP3    H227556   3.961   7.371   3.672
 9205TIP3   OH227557   3.085   7.444   2.979
 9205TIP3    H127558   3.010   7.399   2.936
 9205TIP3    H227559   3.134   7.477   2.902
 9206TIP3   OH227560   3.159   8.231   4.344
 9206TIP3    H127561   3.238   8.257   4.396
 9206TIP3    H227562   3.094   8.218   4.417
 9207TIP3   OH227563   3.619   7.688   3.603
 9207TIP3    H127564   3.689   7.642   3.555
 9207TIP3    H227565   3.620   7.643   3.690
 9208TIP3   OH227566   3.144   7.169   3.487
 9208TIP3    H127567   3.103   7.095   3.536
 9208TIP3    H227568   3.185   7.123   3.413
 9209TIP3   OH227569   3.595   7.587   3.884
 9209TIP3    H127570   3.504   7.618   3.903
 9209TIP3    H227571   3.651   7.646   3.939
 9210TIP3   OH227572   3.334   7.958   2.998
 9210TIP3    H127573   3.258   7.897   2.982
 9210TIP3    H227574   3.305   8.002   3.081
 9211TIP3   OH227575   4.232   8.206   3.613
 9211TIP3    H127576   4.258   8.253   3.531
 9211TIP3    H227577   4.149   8.163   3.587
 9212TIP3   OH227578   3.788   7.283   2.848
 9212TIP3    H127579   3.693   7.261   2.860
 9212TIP3    H227580   3.795   7.376   2.878
 9213TIP3   OH227581   3.740   8.316   3.981
 9213TIP3    H127582   3.773   8.258   4.051
 9213TIP3    H227583   3.656   8.346   4.019
 9214TIP3   OH227584   3.858   7.531   2.956
 9214TIP3    H127585   3.955   7.533   2.971
 9214TIP3    H227586   3.843   7.610   2.901
 9215TIP3   OH227587   3.019   7.968   3.651
 9215TIP3    H127588   3.063   7.946   3.566
 9215TIP3    H227589   3.056   7.902   3.711
 9216TIP3   OH227590   3.441   8.137   2.823
 9216TIP3    H127591   3.406   8.210   2.878
 9216TIP3    H227592   3.402   8.061   2.871
 9217TIP3   OH227593   2.911   7.907   4.277
 9217TIP3    H127594   2.920   7.886   4.372
 9217TIP3    H227595   2.838   7.848   4.251
 9218TIP3   OH227596   3.636   8.019   4.300
 9218TIP3    H127597   3.572   7.966   4.250
 9218TIP3    H227598   3.721   7.983   4.266
 9219TIP3   OH227599   4.296   7.625   2.789
 9219TIP3    H127600   4.235   7.580   2.726
 9219TIP3    H227601   4.295   7.714   2.746
 9220TIP3   OH227602   4.519   8.462   3.872
 9220TIP3    H127603   4.423   8.474   3.862
 9220TIP3    H227604   4.544   8.446   3.778
 9221TIP3   OH227605   3.997   8.075   3.518
 9221TIP3    H127606   3.906   8.049   3.539
 9221TIP3    H227607   4.031   7.991   3.482
 9222TIP3   OH227608   2.691   7.601   2.992
 9222TIP3    H127609   2.736   7.685   3.013
 9222TIP3    H227610   2.613   7.606   3.052
 9223TIP3   OH227611   3.260   8.083   3.235
 9223TIP3    H127612   3.207   8.152   3.278
 9223TIP3    H227613   3.239   8.011   3.298
 9224TIP3   OH227614   3.787   8.275   3.711
 9224TIP3    H127615   3.775   8.289   3.808
 9224TIP3    H227616   3.873   8.230   3.708
 9225TIP3   OH227617   3.809   8.116   2.593
 9225TIP3    H127618   3.823   8.110   2.688
 9225TIP3    H227619   3.721   8.159   2.587
 9226TIP3   OH227620   3.114   7.421   4.281
 9226TIP3    H127621   3.016   7.420   4.287
 9226TIP3    H227622   3.138   7.360   4.352
 9227TIP3   OH227623   3.933   8.118   2.864
 9227TIP3    H127624   3.920   8.027   2.903
 9227TIP3    H227625   4.023   8.105   2.824
 9228TIP3   OH227626   3.120   8.102   2.643
 9228TIP3    H127627   3.146   8.011   2.622
 9228TIP3    H227628   3.124   8.104   2.739
 9229TIP3   OH227629   2.811   7.842   3.069
 9229TIP3    H127630   2.743   7.876   3.131
 9229TIP3    H227631   2.814   7.916   3.005
 9230TIP3   OH227632   3.953   7.486   3.968
 9230TIP3    H127633   4.037   7.522   4.002
 9230TIP3    H227634   3.943   7.404   4.021
 9231TIP3   OH227635   3.835   7.233   3.134
 9231TIP3    H127636   3.824   7.255   3.040
 9231TIP3    H227637   3.876   7.315   3.170
 9232TIP3   OH227638   3.522   7.417   3.233
 9232TIP3    H127639   3.588   7.489   3.220
 9232TIP3    H227640   3.526   7.406   3.331
 9233TIP3   OH227641   3.794   7.733   4.036
 9233TIP3    H127642   3.820   7.782   4.117
 9233TIP3    H227643   3.846   7.651   4.044
 9234TIP3   OH227644   3.664   7.137   3.334
 9234TIP3    H127645   3.660   7.214   3.393
 9234TIP3    H227646   3.726   7.171   3.265
 9235TIP3   OH227647   3.180   7.141   3.122
 9235TIP3    H127648   3.175   7.229   3.164
 9235TIP3    H227649   3.276   7.124   3.131
 9236TIP3   OH227650   4.432   7.633   4.028
 9236TIP3    H127651   4.334   7.628   4.028
 9236TIP3    H227652   4.451   7.595   3.941
 9237TIP3   OH227653   4.082   7.829   3.408
 9237TIP3    H127654   4.008   7.768   3.422
 9237TIP3    H227655   4.155   7.783   3.456
 9238TIP3   OH227656   2.800   8.058   2.885
 9238TIP3    H127657   2.825   8.151   2.871
 9238TIP3    H227658   2.854   8.011   2.818
 9239TIP3   OH227659   2.744   7.332   3.004
 9239TIP3    H127660   2.741   7.430   3.008
 9239TIP3    H227661   2.652   7.310   2.985
 9240TIP3   OH227662   3.132   7.050   3.879
 9240TIP3    H127663   3.100   7.019   3.792
 9240TIP3    H227664   3.118   6.972   3.936
 9241TIP3   OH227665   2.955   8.199   4.524
 9241TIP3    H127666   2.977   8.103   4.530
 9241TIP3    H227667   2.866   8.195   4.482
 9242TIP3   OH227668   2.929   7.864   2.736
 9242TIP3    H127669   2.975   7.825   2.813
 9242TIP3    H227670   3.002   7.861   2.670
 9243TIP3   OH227671   3.576   8.283   4.340
 9243TIP3    H127672   3.544   8.297   4.249
 9243TIP3    H227673   3.611   8.192   4.332
 9244TIP3   OH227674   3.402   8.046   2.548
 9244TIP3    H127675   3.410   8.053   2.644
 9244TIP3    H227676   3.423   7.952   2.533
 9245TIP3   OH227677   4.051   8.305   3.915
 9245TIP3    H127678   4.121   8.359   3.872
 9245TIP3    H227679   3.976   8.366   3.910
 9246TIP3   OH227680   3.079   7.951   4.523
 9246TIP3    H127681   3.155   7.899   4.494
 9246TIP3    H227682   3.108   7.983   4.611
 9247TIP3   OH227683   3.134   7.772   2.950
 9247TIP3    H127684   3.103   7.732   3.034
 9247TIP3    H227685   3.171   7.695   2.903
 9248TIP3   OH227686   3.412   7.840   4.184
 9248TIP3    H127687   3.332   7.896   4.183
 9248TIP3    H227688   3.461   7.874   4.105
 9249TIP3   OH227689   3.242   7.569   2.792
 9249TIP3    H127690   3.217   7.571   2.698
 9249TIP3    H227691   3.340   7.571   2.786
 9250TIP3   OH227692   3.934   8.232   4.313
 9250TIP3    H127693   4.013   8.207   4.264
 9250TIP3    H227694   3.930   8.165   4.383
 9251TIP3   OH227695   4.058   7.905   2.457
 9251TIP3    H127696   4.039   7.853   2.377
 9251TIP3    H227697   4.036   7.995   2.423
 9252TIP3   OH227698   3.533   7.628   4.306
 9252TIP3    H127699   3.533   7.549   4.248
 9252TIP3    H227700   3.489   7.695   4.249
 9253TIP3   OH227701   3.535   7.416   4.114
 9253TIP3    H127702   3.563   7.454   4.029
 9253TIP3    H227703   3.441   7.392   4.096
 9254TIP3   OH227704   3.558   7.954   3.989
 9254TIP3    H127705   3.640   7.956   3.939
 9254TIP3    H227706   3.502   8.019   3.942
 9255TIP3   OH227707   4.144   7.915   4.368
 9255TIP3    H127708   4.191   7.830   4.373
 9255TIP3    H227709   4.213   7.973   4.332
 9256TIP3   OH227710   4.183   8.167   4.105
 9256TIP3    H127711   4.127   8.221   4.044
 9256TIP3    H227712   4.272   8.186   4.068
 9257TIP3   OH227713   3.412   7.735   4.541
 9257TIP3    H127714   3.345   7.665   4.555
 9257TIP3    H227715   3.444   7.712   4.451
 9258TIP3   OH227716   3.667   7.177   4.184
 9258TIP3    H127717   3.616   7.257   4.160
 9258TIP3    H227718   3.599   7.107   4.172
 9259TIP3   OH227719   3.792   7.679   4.398
 9259TIP3    H127720   3.776   7.663   4.493
 9259TIP3    H227721   3.703   7.655   4.364
 9260TIP3   OH227722   4.032   7.634   4.254
 9260TIP3    H127723   3.958   7.631   4.317
 9260TIP3    H227724   4.107   7.602   4.309
 9261TIP3   OH227725   4.257   7.571   4.404
 9261TIP3    H127726   4.273   7.476   4.418
 9261TIP3    H227727   4.258   7.607   4.495
 9262TIP3   OH227728   3.250   7.515   4.593
 9262TIP3    H127729   3.252   7.424   4.558
 9262TIP3    H227730   3.288   7.501   4.683
 9263TIP3   OH227731   3.760   7.186   4.442
 9263TIP3    H127732   3.826   7.114   4.436
 9263TIP3    H227733   3.720   7.181   4.353
 9264TIP3   OH227734   3.828   7.401   4.599
 9264TIP3    H127735   3.807   7.329   4.535
 9264TIP3    H227736   3.749   7.458   4.592
 9265TIP3   OH227737   2.536   7.967   2.923
 9265TIP3    H127738   2.619   8.007   2.891
 9265TIP3    H227739   2.524   7.891   2.862
 9266TIP3   OH227740   4.406   8.596   4.143
 9266TIP3    H127741   4.334   8.576   4.207
 9266TIP3    H227742   4.460   8.659   4.192
 9267TIP3   OH227743   4.192   8.086   2.798
 9267TIP3    H127744   4.267   8.136   2.759
 9267TIP3    H227745   4.239   8.042   2.873
 9268TIP3   OH227746   4.321   7.954   2.996
 9268TIP3    H127747   4.263   7.907   3.060
 9268TIP3    H227748   4.396   7.984   3.053
 9269TIP3   OH227749   4.354   8.334   3.408
 9269TIP3    H127750   4.426   8.277   3.374
 9269TIP3    H227751   4.379   8.422   3.375
 9270TIP3   OH227752   4.261   7.862   2.639
 9270TIP3    H127753   4.190   7.865   2.570
 9270TIP3    H227754   4.233   7.937   2.694
 9271TIP3   OH227755   4.131   7.533   2.594
 9271TIP3    H127756   4.088   7.565   2.513
 9271TIP3    H227757   4.110   7.437   2.589
 9272TIP3   OH227758   4.135   7.806   3.139
 9272TIP3    H127759   4.147   7.710   3.130
 9272TIP3    H227760   4.123   7.816   3.237
 9273TIP3   OH227761   2.761   7.888   3.886
 9273TIP3    H127762   2.757   7.850   3.796
 9273TIP3    H227763   2.858   7.886   3.903
 9274TIP3   OH227764   4.427   8.230   4.000
 9274TIP3    H127765   4.500   8.164   3.991
 9274TIP3    H227766   4.456   8.300   3.939
 9275TIP3   OH227767   4.612   8.035   4.014
 9275TIP3    H127768   4.538   7.983   4.053
 9275TIP3    H227769   4.686   7.971   4.025
 9276TIP3   OH227770   4.077   7.268   2.579
 9276TIP3    H127771   4.153   7.235   2.632
 9276TIP3    H227772   4.006   7.206   2.600
 9277TIP3   OH227773   4.137   7.526   3.030
 9277TIP3    H127774   4.176   7.437   3.047
 9277TIP3    H227775   4.196   7.556   2.958
 9278TIP3   OH227776   4.295   7.699   3.529
 9278TIP3    H127777   4.381   7.723   3.487
 9278TIP3    H227778   4.311   7.733   3.619
 9279TIP3   OH227779   4.367   7.842   3.761
 9279TIP3    H127780   4.290   7.877   3.809
 9279TIP3    H227781   4.401   7.922   3.716
 9280TIP3   OH227782   2.984   7.569   4.568
 9280TIP3    H127783   3.081   7.561   4.566
 9280TIP3    H227784   2.960   7.481   4.603
 9281TIP3   OH227785   4.818   7.429   4.324
 9281TIP3    H127786   4.883   7.366   4.284
 9281TIP3    H227787   4.790   7.481   4.246
 9282TIP3   OH227788   4.242   7.277   3.073
 9282TIP3    H127789   4.292   7.260   3.156
 9282TIP3    H227790   4.183   7.199   3.071
 9283TIP3   OH227791   2.956   7.257   3.958
 9283TIP3    H127792   3.010   7.183   3.928
 9283TIP3    H227793   2.996   7.330   3.908
 9284TIP3   OH227794   2.741   7.532   3.968
 9284TIP3    H127795   2.733   7.482   3.884
 9284TIP3    H227796   2.807   7.598   3.942
 9285TIP3   OH227797   4.686   7.565   4.129
 9285TIP3    H127798   4.601   7.610   4.144
 9285TIP3    H227799   4.657   7.495   4.067
 9286TIP3   OH227800   4.321   7.208   2.704
 9286TIP3    H127801   4.362   7.136   2.652
 9286TIP3    H227802   4.391   7.277   2.703
 9287TIP3   OH227803   2.722   7.010   3.448
 9287TIP3    H127804   2.642   7.034   3.498
 9287TIP3    H227805   2.729   7.086   3.386
 9288TIP3   OH227806   2.953   7.119   4.281
 9288TIP3    H127807   2.895   7.117   4.359
 9288TIP3    H227808   2.893   7.158   4.214
 9289TIP3   OH227809   4.586   7.333   4.001
 9289TIP3    H127810   4.496   7.323   3.964
 9289TIP3    H227811   4.621   7.241   3.991
 9290TIP3   OH227812   3.790   7.248   3.620
 9290TIP3    H127813   3.749   7.177   3.672
 9290TIP3    H227814   3.865   7.203   3.577
 9291TIP3   OH227815   4.313   7.133   3.526
 9291TIP3    H127816   4.349   7.183   3.449
 9291TIP3    H227817   4.217   7.149   3.517
 9292TIP3   OH227818   4.408   7.231   3.288
 9292TIP3    H127819   4.482   7.178   3.250
 9292TIP3    H227820   4.444   7.321   3.274
 9293TIP3   OH227821   3.042   6.958   3.633
 9293TIP3    H127822   2.948   6.930   3.635
 9293TIP3    H227823   3.087   6.871   3.629
 9294TIP3   OH227824   2.826   6.823   3.279
 9294TIP3    H127825   2.856   6.885   3.211
 9294TIP3    H227826   2.791   6.884   3.347
 9295TIP3   OH227827   3.487   6.989   3.517
 9295TIP3    H127828   3.544   7.037   3.455
 9295TIP3    H227829   3.510   7.030   3.601
 9296TIP3   OH227830   4.028   7.138   3.499
 9296TIP3    H127831   4.033   7.094   3.413
 9296TIP3    H227832   4.018   7.060   3.559
 9297TIP3   OH227833   4.061   7.063   3.064
 9297TIP3    H127834   3.974   7.103   3.080
 9297TIP3    H227835   4.049   6.976   3.109
 9298TIP3   OH227836   2.947   6.989   3.042
 9298TIP3    H127837   2.997   6.925   2.987
 9298TIP3    H227838   3.019   7.042   3.081
 9299TIP3   OH227839   3.457   7.167   3.145
 9299TIP3    H127840   3.514   7.118   3.206
 9299TIP3    H227841   3.479   7.259   3.172
 9300TIP3   OH227842   3.247   7.240   4.531
 9300TIP3    H127843   3.213   7.168   4.586
 9300TIP3    H227844   3.342   7.240   4.557
 9301TIP3   OH227845   3.499   7.239   4.647
 9301TIP3    H127846   3.583   7.212   4.606
 9301TIP3    H227847   3.487   7.167   4.713
 9302TIP3   OH227848   4.325   7.302   4.433
 9302TIP3    H127849   4.343   7.270   4.524
 9302TIP3    H227850   4.414   7.296   4.392
 9303TIP3   OH227851   5.528   8.211   2.700
 9303TIP3    H127852   5.487   8.296   2.676
 9303TIP3    H227853   5.458   8.151   2.668
 9304TIP3   OH227854   5.526   8.224   3.076
 9304TIP3    H127855   5.563   8.199   3.163
 9304TIP3    H227856   5.491   8.140   3.044
 9305TIP3   OH227857   4.821   8.115   3.445
 9305TIP3    H127858   4.853   8.048   3.508
 9305TIP3    H227859   4.899   8.172   3.439
 9306TIP3   OH227860   5.745   8.525   2.765
 9306TIP3    H127861   5.745   8.449   2.826
 9306TIP3    H227862   5.806   8.586   2.810
 9307TIP3   OH227863   4.855   8.468   3.242
 9307TIP3    H127864   4.827   8.380   3.210
 9307TIP3    H227865   4.938   8.481   3.191
 9308TIP3   OH227866   4.505   7.726   2.943
 9308TIP3    H127867   4.463   7.812   2.960
 9308TIP3    H227868   4.431   7.677   2.903
 9309TIP3   OH227869   4.559   8.017   3.120
 9309TIP3    H127870   4.608   7.938   3.155
 9309TIP3    H227871   4.632   8.070   3.086
 9310TIP3   OH227872   5.343   8.441   3.115
 9310TIP3    H127873   5.391   8.361   3.085
 9310TIP3    H227874   5.420   8.495   3.141
 9311TIP3   OH227875   6.338   7.768   3.122
 9311TIP3    H127876   6.364   7.854   3.160
 9311TIP3    H227877   6.330   7.790   3.028
 9312TIP3   OH227878   5.733   7.953   3.153
 9312TIP3    H127879   5.786   7.873   3.169
 9312TIP3    H227880   5.714   7.942   3.058
 9313TIP3   OH227881   5.077   7.611   3.119
 9313TIP3    H127882   5.060   7.683   3.055
 9313TIP3    H227883   5.028   7.538   3.074
 9314TIP3   OH227884   5.772   7.701   2.739
 9314TIP3    H127885   5.842   7.685   2.807
 9314TIP3    H227886   5.826   7.744   2.671
 9315TIP3   OH227887   4.709   7.813   3.225
 9315TIP3    H127888   4.792   7.795   3.274
 9315TIP3    H227889   4.725   7.758   3.145
 9316TIP3   OH227890   5.150   8.010   3.023
 9316TIP3    H127891   5.245   7.986   3.034
 9316TIP3    H227892   5.113   7.925   2.990
 9317TIP3   OH227893   6.421   7.977   3.292
 9317TIP3    H127894   6.338   8.026   3.272
 9317TIP3    H227895   6.433   8.003   3.384
 9318TIP3   OH227896   5.073   7.593   3.552
 9318TIP3    H127897   5.013   7.632   3.485
 9318TIP3    H227898   5.021   7.611   3.633
 9319TIP3   OH227899   5.402   8.414   2.563
 9319TIP3    H127900   5.368   8.413   2.473
 9319TIP3    H227901   5.439   8.504   2.572
 9320TIP3   OH227902   5.178   8.375   3.346
 9320TIP3    H127903   5.112   8.439   3.378
 9320TIP3    H227904   5.211   8.420   3.266
 9321TIP3   OH227905   5.984   7.697   2.909
 9321TIP3    H127906   5.971   7.694   3.004
 9321TIP3    H227907   6.017   7.790   2.898
 9322TIP3   OH227908   4.943   7.710   3.337
 9322TIP3    H127909   5.004   7.783   3.361
 9322TIP3    H227910   4.993   7.670   3.262
 9323TIP3   OH227911   5.003   8.589   3.453
 9323TIP3    H127912   4.960   8.580   3.366
 9323TIP3    H227913   4.925   8.582   3.511
 9324TIP3   OH227914   4.399   8.220   2.686
 9324TIP3    H127915   4.368   8.230   2.593
 9324TIP3    H227916   4.417   8.313   2.707
 9325TIP3   OH227917   6.133   7.664   3.285
 9325TIP3    H127918   6.046   7.696   3.254
 9325TIP3    H227919   6.193   7.701   3.216
 9326TIP3   OH227920   5.425   7.308   3.268
 9326TIP3    H127921   5.410   7.214   3.288
 9326TIP3    H227922   5.349   7.349   3.315
 9327TIP3   OH227923   5.775   8.541   2.482
 9327TIP3    H127924   5.753   8.459   2.435
 9327TIP3    H227925   5.788   8.511   2.574
 9328TIP3   OH227926   6.062   8.681   3.265
 9328TIP3    H127927   6.051   8.600   3.212
 9328TIP3    H227928   6.087   8.746   3.197
 9329TIP3   OH227929   5.360   8.071   2.527
 9329TIP3    H127930   5.280   8.124   2.509
 9329TIP3    H227931   5.405   8.071   2.441
 9330TIP3   OH227932   5.316   7.862   2.237
 9330TIP3    H127933   5.383   7.913   2.287
 9330TIP3    H227934   5.375   7.799   2.190
 9331TIP3   OH227935   6.265   8.319   3.118
 9331TIP3    H127936   6.179   8.367   3.117
 9331TIP3    H227937   6.281   8.309   3.022
 9332TIP3   OH227938   5.706   8.150   2.501
 9332TIP3    H127939   5.651   8.172   2.580
 9332TIP3    H227940   5.789   8.123   2.545
 9333TIP3   OH227941   5.933   8.192   3.414
 9333TIP3    H127942   5.934   8.277   3.461
 9333TIP3    H227943   5.848   8.198   3.367
 9334TIP3   OH227944   4.945   8.155   2.905
 9334TIP3    H127945   4.904   8.094   2.841
 9334TIP3    H227946   5.021   8.103   2.939
 9335TIP3   OH227947   5.080   8.521   3.110
 9335TIP3    H127948   5.042   8.519   3.021
 9335TIP3    H227949   5.176   8.517   3.094
 9336TIP3   OH227950   5.065   8.134   3.262
 9336TIP3    H127951   5.105   8.105   3.177
 9336TIP3    H227952   5.114   8.216   3.282
 9337TIP3   OH227953   5.260   8.589   3.582
 9337TIP3    H127954   5.219   8.674   3.607
 9337TIP3    H227955   5.188   8.551   3.530
 9338TIP3   OH227956   5.541   8.017   2.322
 9338TIP3    H127957   5.602   8.075   2.373
 9338TIP3    H227958   5.572   8.033   2.229
 9339TIP3   OH227959   4.970   8.245   3.686
 9339TIP3    H127960   4.975   8.329   3.735
 9339TIP3    H227961   4.878   8.218   3.707
 9340TIP3   OH227962   6.062   7.255   2.370
 9340TIP3    H127963   5.980   7.277   2.420
 9340TIP3    H227964   6.077   7.339   2.322
 9341TIP3   OH227965   4.808   7.997   2.716
 9341TIP3    H127966   4.740   8.037   2.658
 9341TIP3    H227967   4.772   7.909   2.731
 9342TIP3   OH227968   4.603   8.381   3.626
 9342TIP3    H127969   4.544   8.351   3.556
 9342TIP3    H227970   4.641   8.297   3.660
 9343TIP3   OH227971   6.196   8.158   3.590
 9343TIP3    H127972   6.123   8.171   3.527
 9343TIP3    H227973   6.213   8.062   3.578
 9344TIP3   OH227974   4.788   8.588   3.630
 9344TIP3    H127975   4.845   8.550   3.699
 9344TIP3    H227976   4.720   8.518   3.620
 9345TIP3   OH227977   5.189   7.387   3.399
 9345TIP3    H127978   5.100   7.358   3.370
 9345TIP3    H227979   5.164   7.469   3.446
 9346TIP3   OH227980   5.726   7.502   3.592
 9346TIP3    H127981   5.795   7.475   3.656
 9346TIP3    H227982   5.643   7.483   3.640
 9347TIP3   OH227983   5.962   7.931   3.511
 9347TIP3    H127984   5.911   7.930   3.594
 9347TIP3    H227985   5.942   8.019   3.474
 9348TIP3   OH227986   5.624   8.041   2.066
 9348TIP3    H127987   5.591   8.023   1.976
 9348TIP3    H227988   5.685   8.114   2.048
 9349TIP3   OH227989   5.333   7.437   2.369
 9349TIP3    H127990   5.301   7.434   2.461
 9349TIP3    H227991   5.295   7.354   2.335
 9350TIP3   OH227992   5.117   7.909   3.412
 9350TIP3    H127993   5.077   7.933   3.498
 9350TIP3    H227994   5.099   7.991   3.360
 9351TIP3   OH227995   5.005   7.791   2.929
 9351TIP3    H127996   4.912   7.764   2.948
 9351TIP3    H227997   5.017   7.749   2.841
 9352TIP3   OH227998   5.494   7.869   2.652
 9352TIP3    H127999   5.444   7.941   2.608
 9352TIP3    H228000   5.552   7.838   2.580
 9353TIP3   OH228001   5.674   8.151   3.738
 9353TIP3    H128002   5.652   8.079   3.801
 9353TIP3    H228003   5.767   8.168   3.762
 9354TIP3   OH228004   5.626   7.889   2.905
 9354TIP3    H128005   5.585   7.927   2.825
 9354TIP3    H228006   5.679   7.819   2.863
 9355TIP3   OH228007   4.940   7.935   3.630
 9355TIP3    H128008   4.987   7.990   3.694
 9355TIP3    H228009   4.932   7.851   3.680
 9356TIP3   OH228010   4.989   7.410   2.333
 9356TIP3    H128011   4.982   7.410   2.431
 9356TIP3    H228012   4.912   7.465   2.310
 9357TIP3   OH228013   4.534   7.454   3.205
 9357TIP3    H128014   4.608   7.487   3.260
 9357TIP3    H228015   4.578   7.423   3.124
 9358TIP3   OH228016   4.499   7.433   2.724
 9358TIP3    H128017   4.547   7.469   2.646
 9358TIP3    H228018   4.441   7.509   2.743
 9359TIP3   OH228019   5.657   8.150   3.315
 9359TIP3    H128020   5.691   8.079   3.256
 9359TIP3    H228021   5.630   8.096   3.393
 9360TIP3   OH228022   5.333   7.609   2.988
 9360TIP3    H128023   5.256   7.610   3.048
 9360TIP3    H228024   5.408   7.609   3.051
 9361TIP3   OH228025   4.767   7.669   2.998
 9361TIP3    H128026   4.673   7.674   2.969
 9361TIP3    H228027   4.792   7.577   2.976
 9362TIP3   OH228028   5.032   7.662   2.689
 9362TIP3    H128029   5.127   7.677   2.671
 9362TIP3    H228030   4.989   7.686   2.604
 9363TIP3   OH228031   5.832   7.691   3.194
 9363TIP3    H128032   5.794   7.705   3.284
 9363TIP3    H228033   5.764   7.634   3.155
 9364TIP3   OH228034   4.880   7.700   2.463
 9364TIP3    H128035   4.810   7.655   2.413
 9364TIP3    H228036   4.933   7.738   2.390
 9365TIP3   OH228037   4.956   8.491   3.832
 9365TIP3    H128038   5.036   8.514   3.883
 9365TIP3    H228039   4.893   8.475   3.905
 9366TIP3   OH228040   5.415   7.942   3.083
 9366TIP3    H128041   5.491   7.913   3.029
 9366TIP3    H228042   5.431   7.896   3.167
 9367TIP3   OH228043   4.933   7.429   2.970
 9367TIP3    H128044   4.898   7.351   3.018
 9367TIP3    H228045   4.986   7.387   2.901
 9368TIP3   OH228046   5.390   7.837   3.385
 9368TIP3    H128047   5.302   7.878   3.393
 9368TIP3    H228048   5.449   7.901   3.429
 9369TIP3   OH228049   5.128   8.213   2.477
 9369TIP3    H128050   5.050   8.155   2.464
 9369TIP3    H228051   5.104   8.258   2.562
 9370TIP3   OH228052   6.028   8.461   3.104
 9370TIP3    H128053   6.057   8.508   3.022
 9370TIP3    H228054   5.946   8.418   3.075
 9371TIP3   OH228055   5.584   7.540   2.332
 9371TIP3    H128056   5.489   7.521   2.346
 9371TIP3    H228057   5.594   7.633   2.362
 9372TIP3   OH228058   5.537   8.570   3.471
 9372TIP3    H128059   5.572   8.514   3.542
 9372TIP3    H228060   5.452   8.599   3.508
 9373TIP3   OH228061   5.655   7.786   2.437
 9373TIP3    H128062   5.751   7.790   2.457
 9373TIP3    H228063   5.640   7.869   2.388
 9374TIP3   OH228064   4.803   8.205   3.138
 9374TIP3    H128065   4.853   8.198   3.054
 9374TIP3    H228066   4.865   8.165   3.201
 9375TIP3   OH228067   5.238   8.402   2.313
 9375TIP3    H128068   5.196   8.471   2.369
 9375TIP3    H228069   5.204   8.322   2.361
 9376TIP3   OH228070   4.707   8.171   3.768
 9376TIP3    H128071   4.737   8.154   3.859
 9376TIP3    H228072   4.643   8.098   3.755
 9377TIP3   OH228073   5.432   8.276   3.775
 9377TIP3    H128074   5.374   8.223   3.718
 9377TIP3    H228075   5.520   8.243   3.748
 9378TIP3   OH228076   6.095   7.879   2.273
 9378TIP3    H128077   6.033   7.836   2.209
 9378TIP3    H228078   6.091   7.970   2.236
 9379TIP3   OH228079   6.317   8.725   3.356
 9379TIP3    H128080   6.220   8.731   3.345
 9379TIP3    H228081   6.343   8.703   3.263
 9380TIP3   OH228082   5.795   8.329   3.009
 9380TIP3    H128083   5.703   8.300   3.023
 9380TIP3    H228084   5.840   8.244   2.994
 9381TIP3   OH228085   4.488   7.856   2.478
 9381TIP3    H128086   4.535   7.940   2.497
 9381TIP3    H228087   4.411   7.864   2.539
 9382TIP3   OH228088   5.053   8.332   2.716
 9382TIP3    H128089   5.023   8.413   2.758
 9382TIP3    H228090   5.029   8.267   2.785
 9383TIP3   OH228091   5.583   8.535   3.199
 9383TIP3    H128092   5.572   8.544   3.296
 9383TIP3    H228093   5.665   8.485   3.192
 9384TIP3   OH228094   5.588   8.359   2.056
 9384TIP3    H128095   5.621   8.349   2.147
 9384TIP3    H228096   5.509   8.414   2.069
 9385TIP3   OH228097   4.914   7.674   3.767
 9385TIP3    H128098   4.818   7.677   3.783
 9385TIP3    H228099   4.945   7.622   3.843
 9386TIP3   OH228100   5.714   8.335   2.303
 9386TIP3    H128101   5.708   8.265   2.371
 9386TIP3    H228102   5.810   8.335   2.284
 9387TIP3   OH228103   4.900   8.354   2.135
 9387TIP3    H128104   4.940   8.269   2.108
 9387TIP3    H228105   4.944   8.372   2.218
 9388TIP3   OH228106   4.606   8.097   2.555
 9388TIP3    H128107   4.539   8.134   2.616
 9388TIP3    H228108   4.612   8.169   2.489
 9389TIP3   OH228109   5.751   7.742   3.454
 9389TIP3    H128110   5.832   7.780   3.489
 9389TIP3    H228111   5.740   7.660   3.508
 9390TIP3   OH228112   5.636   7.489   2.620
 9390TIP3    H128113   5.622   7.515   2.528
 9390TIP3    H228114   5.676   7.570   2.659
 9391TIP3   OH228115   5.312   7.673   2.720
 9391TIP3    H128116   5.379   7.743   2.702
 9391TIP3    H228117   5.322   7.662   2.817
 9392TIP3   OH228118   5.589   7.989   3.523
 9392TIP3    H128119   5.616   8.040   3.603
 9392TIP3    H228120   5.642   7.908   3.532
 9393TIP3   OH228121   5.462   7.392   2.818
 9393TIP3    H128122   5.460   7.466   2.882
 9393TIP3    H228123   5.525   7.428   2.751
 9394TIP3   OH228124   4.976   7.398   2.609
 9394TIP3    H128125   4.974   7.488   2.649
 9394TIP3    H228126   5.072   7.380   2.618
 9395TIP3   OH228127   6.229   7.889   3.510
 9395TIP3    H128128   6.131   7.888   3.519
 9395TIP3    H228129   6.237   7.862   3.418
 9396TIP3   OH228130   4.597   8.315   2.370
 9396TIP3    H128131   4.626   8.407   2.358
 9396TIP3    H228132   4.653   8.267   2.306
 9397TIP3   OH228133   4.534   7.587   2.501
 9397TIP3    H128134   4.538   7.684   2.498
 9397TIP3    H228135   4.456   7.568   2.448
 9398TIP3   OH228136   4.922   7.309   3.370
 9398TIP3    H128137   4.894   7.274   3.283
 9398TIP3    H228138   4.913   7.230   3.428
 9399TIP3   OH228139   4.753   8.453   4.012
 9399TIP3    H128140   4.776   8.359   4.025
 9399TIP3    H228141   4.665   8.446   3.969
 9400TIP3   OH228142   4.723   8.115   2.226
 9400TIP3    H128143   4.776   8.081   2.301
 9400TIP3    H228144   4.795   8.121   2.159
 9401TIP3   OH228145   5.372   8.541   3.827
 9401TIP3    H128146   5.341   8.551   3.734
 9401TIP3    H228147   5.408   8.450   3.823
 9402TIP3   OH228148   5.172   8.295   2.038
 9402TIP3    H128149   5.212   8.316   2.124
 9402TIP3    H228150   5.206   8.205   2.021
 9403TIP3   OH228151   5.850   8.562   3.402
 9403TIP3    H128152   5.918   8.618   3.359
 9403TIP3    H228153   5.773   8.620   3.396
 9404TIP3   OH228154   4.887   8.196   3.999
 9404TIP3    H128155   4.969   8.148   3.976
 9404TIP3    H228156   4.912   8.233   4.087
 9405TIP3   OH228157   4.923   8.028   2.433
 9405TIP3    H128158   4.904   7.986   2.518
 9405TIP3    H228159   4.967   7.956   2.384
 9406TIP3   OH228160   5.204   8.082   3.660
 9406TIP3    H128161   5.132   8.148   3.669
 9406TIP3    H228162   5.256   8.120   3.586
 9407TIP3   OH228163   5.039   7.826   2.281
 9407TIP3    H128164   5.015   7.828   2.186
 9407TIP3    H228165   5.137   7.829   2.275
 9408TIP3   OH228166   5.728   8.489   3.798
 9408TIP3    H128167   5.809   8.461   3.754
 9408TIP3    H228168   5.723   8.426   3.873
 9409TIP3   OH228169   5.855   8.164   1.940
 9409TIP3    H128170   5.832   8.112   1.861
 9409TIP3    H228171   5.835   8.254   1.907
 9410TIP3   OH228172   5.340   7.881   3.796
 9410TIP3    H128173   5.338   7.803   3.737
 9410TIP3    H228174   5.289   7.947   3.744
 9411TIP3   OH228175   5.332   7.667   3.603
 9411TIP3    H128176   5.360   7.712   3.520
 9411TIP3    H228177   5.238   7.646   3.582
 9412TIP3   OH228178   5.353   8.206   3.472
 9412TIP3    H128179   5.437   8.212   3.425
 9412TIP3    H228180   5.299   8.273   3.426
 9413TIP3   OH228181   5.941   8.169   3.850
 9413TIP3    H128182   5.990   8.086   3.862
 9413TIP3    H228183   6.009   8.227   3.812
 9414TIP3   OH228184   5.981   8.425   3.594
 9414TIP3    H128185   5.924   8.477   3.532
 9414TIP3    H228186   6.069   8.444   3.554
 9415TIP3   OH228187   5.113   8.026   3.971
 9415TIP3    H128188   5.100   7.950   4.030
 9415TIP3    H228189   5.201   8.007   3.936
 9416TIP3   OH228190   5.464   7.431   3.672
 9416TIP3    H128191   5.414   7.513   3.647
 9416TIP3    H228192   5.395   7.363   3.660
 9417TIP3   OH228193   5.596   7.939   3.888
 9417TIP3    H128194   5.593   7.943   3.985
 9417TIP3    H228195   5.503   7.915   3.864
 9418TIP3   OH228196   5.828   7.884   3.741
 9418TIP3    H128197   5.754   7.887   3.805
 9418TIP3    H228198   5.903   7.856   3.797
 9419TIP3   OH228199   6.061   7.829   3.889
 9419TIP3    H128200   6.072   7.733   3.906
 9419TIP3    H228201   6.053   7.866   3.980
 9420TIP3   OH228202   5.036   7.773   4.084
 9420TIP3    H128203   5.054   7.684   4.049
 9420TIP3    H228204   5.077   7.766   4.173
 9421TIP3   OH228205   5.556   7.442   3.931
 9421TIP3    H128206   5.623   7.371   3.924
 9421TIP3    H228207   5.518   7.437   3.840
 9422TIP3   OH228208   5.609   7.661   4.084
 9422TIP3    H128209   5.603   7.582   4.026
 9422TIP3    H228210   5.527   7.706   4.063
 9423TIP3   OH228211   4.335   8.217   2.420
 9423TIP3    H128212   4.411   8.264   2.382
 9423TIP3    H228213   4.322   8.145   2.355
 9424TIP3   OH228214   6.204   8.854   3.631
 9424TIP3    H128215   6.131   8.834   3.694
 9424TIP3    H228216   6.258   8.914   3.682
 9425TIP3   OH228217   5.986   8.328   2.287
 9425TIP3    H128218   6.055   8.390   2.254
 9425TIP3    H228219   6.032   8.291   2.365
 9426TIP3   OH228220   6.122   8.204   2.488
 9426TIP3    H128221   6.058   8.162   2.550
 9426TIP3    H228222   6.189   8.242   2.550
 9427TIP3   OH228223   6.149   8.590   2.901
 9427TIP3    H128224   6.219   8.529   2.868
 9427TIP3    H228225   6.169   8.672   2.855
 9428TIP3   OH228226   6.054   8.115   2.124
 9428TIP3    H128227   5.982   8.124   2.057
 9428TIP3    H228228   6.029   8.189   2.183
 9429TIP3   OH228229   5.934   7.787   2.074
 9429TIP3    H128230   5.879   7.825   2.005
 9429TIP3    H228231   5.909   7.692   2.066
 9430TIP3   OH228232   5.933   8.058   2.628
 9430TIP3    H128233   5.935   7.963   2.610
 9430TIP3    H228234   5.968   8.057   2.720
 9431TIP3   OH228235   4.560   8.152   3.374
 9431TIP3    H128236   4.559   8.113   3.284
 9431TIP3    H228237   4.656   8.147   3.393
 9432TIP3   OH228238   6.225   8.488   3.486
 9432TIP3    H128239   6.297   8.423   3.475
 9432TIP3    H228240   6.250   8.557   3.422
 9433TIP3   OH228241   6.415   8.294   3.501
 9433TIP3    H128242   6.337   8.246   3.538
 9433TIP3    H228243   6.483   8.225   3.517
 9434TIP3   OH228244   5.876   7.520   2.059
 9434TIP3    H128245   5.948   7.492   2.118
 9434TIP3    H228246   5.801   7.464   2.087
 9435TIP3   OH228247   5.929   7.778   2.512
 9435TIP3    H128248   5.970   7.691   2.531
 9435TIP3    H228249   5.992   7.812   2.446
 9436TIP3   OH228250   6.182   8.107   3.280
 9436TIP3    H128251   6.089   8.125   3.298
 9436TIP3    H228252   6.199   8.167   3.205
 9437TIP3   OH228253   4.771   7.815   4.037
 9437TIP3    H128254   4.869   7.820   4.047
 9437TIP3    H228255   4.754   7.734   4.088
 9438TIP3   OH228256   6.615   7.694   3.802
 9438TIP3    H128257   6.675   7.629   3.760
 9438TIP3    H228258   6.583   7.745   3.725
 9439TIP3   OH228259   6.044   7.531   2.556
 9439TIP3    H128260   6.089   7.518   2.642
 9439TIP3    H228261   5.982   7.455   2.558
 9440TIP3   OH228262   4.739   7.518   3.381
 9440TIP3    H128263   4.800   7.442   3.389
 9440TIP3    H228264   4.802   7.591   3.371
 9441TIP3   OH228265   4.539   7.792   3.448
 9441TIP3    H128266   4.591   7.787   3.365
 9441TIP3    H228267   4.579   7.868   3.491
 9442TIP3   OH228268   6.483   7.829   3.606
 9442TIP3    H128269   6.398   7.872   3.626
 9442TIP3    H228270   6.451   7.756   3.549
 9443TIP3   OH228271   6.118   7.465   2.191
 9443TIP3    H128272   6.160   7.394   2.139
 9443TIP3    H228273   6.186   7.535   2.191
 9444TIP3   OH228274   4.528   7.293   2.952
 9444TIP3    H128275   4.435   7.288   2.981
 9444TIP3    H228276   4.522   7.352   2.875
 9445TIP3   OH228277   4.746   7.371   3.766
 9445TIP3    H128278   4.695   7.369   3.849
 9445TIP3    H228279   4.680   7.410   3.705
 9446TIP3   OH228280   6.385   7.592   3.487
 9446TIP3    H128281   6.294   7.589   3.451
 9446TIP3    H228282   6.414   7.499   3.477
 9447TIP3   OH228283   5.582   7.504   3.101
 9447TIP3    H128284   5.545   7.433   3.156
 9447TIP3    H228285   5.663   7.463   3.065
 9448TIP3   OH228286   6.106   7.383   3.009
 9448TIP3    H128287   6.144   7.439   2.937
 9448TIP3    H228288   6.014   7.415   3.011
 9449TIP3   OH228289   6.206   7.482   2.775
 9449TIP3    H128290   6.282   7.434   2.735
 9449TIP3    H228291   6.237   7.575   2.761
 9450TIP3   OH228292   4.836   7.214   3.122
 9450TIP3    H128293   4.743   7.181   3.126
 9450TIP3    H228294   4.884   7.129   3.118
 9451TIP3   OH228295   4.620   7.088   2.771
 9451TIP3    H128296   4.654   7.144   2.699
 9451TIP3    H228297   4.597   7.154   2.840
 9452TIP3   OH228298   5.282   7.248   3.006
 9452TIP3    H128299   5.336   7.297   2.942
 9452TIP3    H228300   5.311   7.286   3.089
 9453TIP3   OH228301   5.817   7.395   2.992
 9453TIP3    H128302   5.827   7.360   2.903
 9453TIP3    H228303   5.808   7.313   3.045
 9454TIP3   OH228304   5.857   7.319   2.550
 9454TIP3    H128305   5.773   7.365   2.569
 9454TIP3    H228306   5.842   7.234   2.596
 9455TIP3   OH228307   4.743   7.246   2.532
 9455TIP3    H128308   4.791   7.182   2.476
 9455TIP3    H228309   4.818   7.299   2.568
 9456TIP3   OH228310   5.253   7.422   2.633
 9456TIP3    H128311   5.314   7.376   2.694
 9456TIP3    H228312   5.273   7.515   2.659
 9457TIP3   OH228313   5.047   7.488   4.008
 9457TIP3    H128314   5.010   7.424   4.071
 9457TIP3    H228315   5.140   7.491   4.038
 9458TIP3   OH228316   5.301   7.489   4.123
 9458TIP3    H128317   5.386   7.466   4.083
 9458TIP3    H228318   5.292   7.419   4.191
 9459TIP3   OH228319   6.120   7.557   3.920
 9459TIP3    H128320   6.137   7.526   4.011
 9459TIP3    H228321   6.210   7.551   3.880
 9460TIP3   OH228322   6.612   8.375   2.918
 9460TIP3    H128323   6.666   8.326   2.980
 9460TIP3    H228324   6.679   8.410   2.854
 9461TIP3   OH228325   6.303   7.991   2.426
 9461TIP3    H128326   6.256   8.072   2.453
 9461TIP3    H228327   6.229   7.937   2.395
 9462TIP3   OH228328   6.358   8.281   2.609
 9462TIP3    H128329   6.404   8.205   2.652
 9462TIP3    H228330   6.425   8.308   2.546
 9463TIP3   OH228331   6.831   7.867   2.613
 9463TIP3    H128332   6.806   7.933   2.546
 9463TIP3    H228333   6.794   7.787   2.568
 9464TIP3   OH228334   6.517   8.088   2.703
 9464TIP3    H128335   6.575   8.059   2.775
 9464TIP3    H228336   6.520   8.013   2.642
 9465TIP3   OH228337   6.859   7.841   3.052
 9465TIP3    H128338   6.803   7.882   2.982
 9465TIP3    H228339   6.803   7.860   3.130
 9466TIP3   OH228340   6.733   7.967   2.845
 9466TIP3    H128341   6.798   8.039   2.858
 9466TIP3    H228342   6.768   7.929   2.761
 9467TIP3   OH228343   6.196   8.476   2.191
 9467TIP3    H128344   6.175   8.505   2.101
 9467TIP3    H228345   6.239   8.556   2.224
 9468TIP3   OH228346   7.207   7.563   2.759
 9468TIP3    H128347   7.201   7.470   2.786
 9468TIP3    H228348   7.131   7.603   2.807
 9469TIP3   OH228349   6.729   8.503   3.182
 9469TIP3    H128350   6.709   8.588   3.225
 9469TIP3    H228351   6.641   8.461   3.192
 9470TIP3   OH228352   6.589   8.225   2.161
 9470TIP3    H128353   6.586   8.320   2.178
 9470TIP3    H228354   6.523   8.189   2.222
 9471TIP3   OH228355   6.387   8.628   3.116
 9471TIP3    H128356   6.329   8.612   3.039
 9471TIP3    H228357   6.422   8.540   3.135
 9472TIP3   OH228358   6.979   7.649   2.889
 9472TIP3    H128359   6.891   7.616   2.857
 9472TIP3    H228360   6.948   7.725   2.941
 9473TIP3   OH228361   7.496   7.712   3.109
 9473TIP3    H128362   7.522   7.760   3.189
 9473TIP3    H228363   7.399   7.708   3.122
 9474TIP3   OH228364   6.934   8.156   2.919
 9474TIP3    H128365   6.869   8.188   2.985
 9474TIP3    H228366   6.927   8.222   2.848
 9475TIP3   OH228367   6.776   8.033   2.392
 9475TIP3    H128368   6.689   8.003   2.428
 9475TIP3    H228369   6.746   8.080   2.313
 9476TIP3   OH228370   6.758   8.199   3.123
 9476TIP3    H128371   6.724   8.264   3.186
 9476TIP3    H228372   6.731   8.115   3.165
 9477TIP3   OH228373   6.765   7.628   1.817
 9477TIP3    H128374   6.761   7.634   1.915
 9477TIP3    H228375   6.697   7.692   1.791
 9478TIP3   OH228376   6.334   7.701   2.685
 9478TIP3    H128377   6.399   7.742   2.746
 9478TIP3    H228378   6.387   7.676   2.609
 9479TIP3   OH228379   6.298   7.693   2.208
 9479TIP3    H128380   6.345   7.729   2.130
 9479TIP3    H228381   6.238   7.767   2.229
 9480TIP3   OH228382   7.087   7.797   2.546
 9480TIP3    H128383   6.998   7.810   2.585
 9480TIP3    H228384   7.138   7.865   2.593
 9481TIP3   OH228385   6.554   7.913   2.489
 9481TIP3    H128386   6.460   7.933   2.463
 9481TIP3    H228387   6.565   7.821   2.461
 9482TIP3   OH228388   6.636   7.930   1.985
 9482TIP3    H128389   6.565   7.894   1.930
 9482TIP3    H228390   6.631   8.025   1.968
 9483TIP3   OH228391   6.735   7.674   2.449
 9483TIP3    H128392   6.697   7.598   2.499
 9483TIP3    H228393   6.795   7.629   2.387
 9484TIP3   OH228394   6.487   8.402   3.255
 9484TIP3    H128395   6.478   8.379   3.350
 9484TIP3    H228396   6.407   8.358   3.218
 9485TIP3   OH228397   6.278   8.108   1.969
 9485TIP3    H128398   6.311   8.198   1.981
 9485TIP3    H228399   6.198   8.110   2.026
 9486TIP3   OH228400   6.703   7.931   3.258
 9486TIP3    H128401   6.606   7.936   3.267
 9486TIP3    H228402   6.727   7.874   3.333
 9487TIP3   OH228403   6.739   7.652   2.092
 9487TIP3    H128404   6.720   7.745   2.111
 9487TIP3    H228405   6.832   7.644   2.122
 9488TIP3   OH228406   6.325   7.840   1.974
 9488TIP3    H128407   6.323   7.937   1.980
 9488TIP3    H228408   6.234   7.820   1.951
 9489TIP3   OH228409   6.721   7.563   2.855
 9489TIP3    H128410   6.689   7.530   2.769
 9489TIP3    H228411   6.709   7.485   2.913
 9490TIP3   OH228412   6.559   8.719   3.482
 9490TIP3    H128413   6.591   8.626   3.479
 9490TIP3    H228414   6.469   8.710   3.443
 9491TIP3   OH228415   6.683   8.473   3.491
 9491TIP3    H128416   6.735   8.393   3.482
 9491TIP3    H228417   6.698   8.498   3.584
 9492TIP3   OH228418   7.094   8.155   3.277
 9492TIP3    H128419   7.133   8.070   3.252
 9492TIP3    H228420   7.033   8.172   3.204
 9493TIP3   OH228421   7.106   7.943   3.061
 9493TIP3    H128422   7.075   7.998   2.987
 9493TIP3    H228423   7.021   7.901   3.085
 9494TIP3   OH228424   7.006   8.244   3.520
 9494TIP3    H128425   6.936   8.178   3.533
 9494TIP3    H228426   7.038   8.221   3.430
 9495TIP3   OH228427   7.227   7.694   3.162
 9495TIP3    H128428   7.174   7.769   3.132
 9495TIP3    H228429   7.165   7.619   3.150
 9496TIP3   OH228430   6.844   8.026   3.565
 9496TIP3    H128431   6.846   7.934   3.531
 9496TIP3    H228432   6.878   8.012   3.656
 9497TIP3   OH228433   7.353   7.692   3.408
 9497TIP3    H128434   7.423   7.625   3.397
 9497TIP3    H228435   7.302   7.683   3.325
 9498TIP3   OH228436   7.418   7.896   3.581
 9498TIP3    H128437   7.396   7.833   3.509
 9498TIP3    H228438   7.350   7.965   3.569
 9499TIP3   OH228439   6.112   8.479   1.883
 9499TIP3    H128440   6.185   8.530   1.847
 9499TIP3    H228441   6.109   8.402   1.823
 9500TIP3   OH228442   6.353   8.422   2.849
 9500TIP3    H128443   6.351   8.372   2.765
 9500TIP3    H228444   6.448   8.409   2.874
 9501TIP3   OH228445   6.579   8.081   3.540
 9501TIP3    H128446   6.677   8.073   3.542
 9501TIP3    H228447   6.553   7.994   3.576
 9502TIP3   OH228448   6.535   7.772   2.857
 9502TIP3    H128449   6.598   7.698   2.869
 9502TIP3    H228450   6.594   7.849   2.864
 9503TIP3   OH228451   6.325   7.539   2.429
 9503TIP3    H128452   6.236   7.543   2.469
 9503TIP3    H228453   6.317   7.605   2.357
 9504TIP3   OH228454   6.543   7.630   3.251
 9504TIP3    H128455   6.492   7.627   3.333
 9504TIP3    H228456   6.477   7.671   3.190
 9505TIP3   OH228457   6.632   7.472   2.607
 9505TIP3    H128458   6.540   7.439   2.611
 9505TIP3    H228459   6.681   7.387   2.603
 9506TIP3   OH228460   6.420   7.341   2.257
 9506TIP3    H128461   6.448   7.398   2.184
 9506TIP3    H228462   6.392   7.406   2.325
 9507TIP3   OH228463   7.059   7.497   2.520
 9507TIP3    H128464   7.102   7.567   2.470
 9507TIP3    H228465   7.079   7.526   2.610
 9508TIP3   OH228466   6.527   7.492   2.017
 9508TIP3    H128467   6.578   7.432   1.959
 9508TIP3    H228468   6.598   7.549   2.053
 9509TIP3   OH228469   7.004   7.668   2.159
 9509TIP3    H128470   7.056   7.599   2.115
 9509TIP3    H228471   7.055   7.747   2.133
 9510TIP3   OH228472   6.839   7.753   3.500
 9510TIP3    H128473   6.801   7.684   3.557
 9510TIP3    H228474   6.933   7.751   3.530
 9511TIP3   OH228475   7.087   7.748   3.619
 9511TIP3    H128476   7.177   7.731   3.587
 9511TIP3    H228477   7.077   7.677   3.686
 9512TIP3   OH228478   2.272   0.945   7.516
 9512TIP3    H128479   2.264   0.874   7.580
 9512TIP3    H228480   2.303   1.019   7.568
 9513TIP3   OH228481   1.927   1.395   7.538
 9513TIP3    H128482   1.991   1.339   7.488
 9513TIP3    H228483   1.937   1.358   7.626
 9514TIP3   OH228484   1.966   0.884   7.312
 9514TIP3    H128485   1.892   0.831   7.279
 9514TIP3    H228486   1.924   0.971   7.322
 9515TIP3   OH228487   2.098   1.238   7.404
 9515TIP3    H128488   2.127   1.154   7.363
 9515TIP3    H228489   2.138   1.301   7.340
 9516TIP3   OH228490   2.205   1.021   7.262
 9516TIP3    H128491   2.139   0.953   7.239
 9516TIP3    H228492   2.238   0.985   7.347
 9517TIP3   OH228493   2.205   0.600   7.273
 9517TIP3    H128494   2.144   0.582   7.345
 9517TIP3    H228495   2.286   0.554   7.302
 9518TIP3   OH228496   1.836   1.166   7.301
 9518TIP3    H128497   1.866   1.200   7.386
 9518TIP3    H228498   1.742   1.151   7.316
 9519TIP3   OH228499   2.368   1.038   6.683
 9519TIP3    H128500   2.376   1.136   6.673
 9519TIP3    H228501   2.462   1.011   6.674
 9520TIP3   OH228502   1.658   1.364   7.157
 9520TIP3    H128503   1.625   1.362   7.066
 9520TIP3    H228504   1.639   1.456   7.185
 9521TIP3   OH228505   1.883   1.258   6.805
 9521TIP3    H128506   1.945   1.190   6.773
 9521TIP3    H228507   1.915   1.273   6.897
 9522TIP3   OH228508   1.921   1.312   7.075
 9522TIP3    H128509   1.835   1.313   7.121
 9522TIP3    H228510   1.971   1.259   7.139
 9523TIP3   OH228511   2.117   0.492   6.826
 9523TIP3    H128512   2.098   0.448   6.742
 9523TIP3    H228513   2.204   0.531   6.811
 9524TIP3   OH228514   1.836   0.855   6.997
 9524TIP3    H128515   1.773   0.927   7.019
 9524TIP3    H228516   1.820   0.794   7.071
 9525TIP3   OH228517   2.619   0.304   7.027
 9525TIP3    H128518   2.555   0.248   6.978
 9525TIP3    H228519   2.593   0.392   6.991
 9526TIP3   OH228520   2.307   1.114   6.953
 9526TIP3    H128521   2.277   1.049   7.019
 9526TIP3    H228522   2.317   1.061   6.872
 9527TIP3   OH228523   2.064   0.849   6.848
 9527TIP3    H128524   2.121   0.814   6.921
 9527TIP3    H228525   1.979   0.850   6.898
 9528TIP3   OH228526   2.400   1.315   6.672
 9528TIP3    H128527   2.436   1.388   6.619
 9528TIP3    H228528   2.320   1.359   6.708
 9529TIP3   OH228529   2.225   0.775   7.056
 9529TIP3    H128530   2.205   0.717   7.132
 9529TIP3    H228531   2.323   0.771   7.055
 9530TIP3   OH228532   1.644   1.041   7.060
 9530TIP3    H128533   1.580   1.044   7.131
 9530TIP3    H228534   1.651   1.134   7.035
 9531TIP3   OH228535   2.353   1.471   7.648
 9531TIP3    H128536   2.308   1.515   7.573
 9531TIP3    H228537   2.446   1.476   7.617
 9532TIP3   OH228538   1.590   1.003   6.775
 9532TIP3    H128539   1.600   0.966   6.865
 9532TIP3    H228540   1.668   0.964   6.730
 9533TIP3   OH228541   2.029   1.065   6.674
 9533TIP3    H128542   2.067   0.999   6.737
 9533TIP3    H228543   2.091   1.061   6.599
 9534TIP3   OH228544   2.368   0.568   6.705
 9534TIP3    H128545   2.344   0.525   6.621
 9534TIP3    H228546   2.330   0.658   6.689
 9535TIP3   OH228547   1.360   1.322   6.936
 9535TIP3    H128548   1.455   1.304   6.927
 9535TIP3    H228549   1.344   1.371   6.853
 9536TIP3   OH228550   2.626   1.538   7.591
 9536TIP3    H128551   2.637   1.617   7.645
 9536TIP3    H228552   2.665   1.566   7.506
 9537TIP3   OH228553   2.505   0.758   7.041
 9537TIP3    H128554   2.572   0.824   7.015
 9537TIP3    H228555   2.546   0.720   7.122
 9538TIP3   OH228556   2.626   0.625   7.245
 9538TIP3    H128557   2.560   0.587   7.306
 9538TIP3    H228558   2.691   0.667   7.306
 9539TIP3   OH228559   2.661   1.025   7.683
 9539TIP3    H128560   2.725   0.955   7.660
 9539TIP3    H228561   2.677   1.089   7.612
 9540TIP3   OH228562   2.563   0.536   6.891
 9540TIP3    H128563   2.491   0.542   6.824
 9540TIP3    H228564   2.536   0.610   6.949
 9541TIP3   OH228565   2.445   0.195   6.839
 9541TIP3    H128566   2.400   0.268   6.795
 9541TIP3    H228567   2.381   0.124   6.830
 9542TIP3   OH228568   2.440   0.483   7.398
 9542TIP3    H128569   2.455   0.388   7.392
 9542TIP3    H228570   2.435   0.497   7.493
 9543TIP3   OH228571   2.188   1.420   7.224
 9543TIP3    H128572   2.241   1.407   7.142
 9543TIP3    H228573   2.243   1.481   7.275
 9544TIP3   OH228574   1.624   1.263   6.892
 9544TIP3    H128575   1.715   1.278   6.860
 9544TIP3    H228576   1.600   1.185   6.838
 9545TIP3   OH228577   2.341   1.381   6.996
 9545TIP3    H128578   2.332   1.283   6.985
 9545TIP3    H228579   2.293   1.412   6.916
 9546TIP3   OH228580   3.830   0.895   6.949
 9546TIP3    H128581   3.803   0.987   6.928
 9546TIP3    H228582   3.754   0.847   6.911
 9547TIP3   OH228583   3.831   0.899   7.333
 9547TIP3    H128584   3.863   0.874   7.422
 9547TIP3    H228585   3.791   0.817   7.301
 9548TIP3   OH228586   3.141   0.825   7.672
 9548TIP3    H128587   3.140   0.760   7.743
 9548TIP3    H228588   3.231   0.816   7.634
 9549TIP3   OH228589   4.076   1.200   7.013
 9549TIP3    H128590   4.062   1.133   7.082
 9549TIP3    H228591   4.107   1.276   7.064
 9550TIP3   OH228592   3.102   1.208   7.424
 9550TIP3    H128593   3.091   1.110   7.417
 9550TIP3    H228594   3.198   1.215   7.410
 9551TIP3   OH228595   2.796   0.410   7.216
 9551TIP3    H128596   2.747   0.493   7.226
 9551TIP3    H228597   2.733   0.360   7.160
 9552TIP3   OH228598   2.855   0.705   7.373
 9552TIP3    H128599   2.894   0.624   7.412
 9552TIP3    H228600   2.926   0.734   7.314
 9553TIP3   OH228601   3.724   1.660   7.028
 9553TIP3    H128602   3.768   1.589   6.976
 9553TIP3    H228603   3.718   1.620   7.115
 9554TIP3   OH228604   3.630   1.122   7.380
 9554TIP3    H128605   3.670   1.046   7.335
 9554TIP3    H228606   3.713   1.169   7.403
 9555TIP3   OH228607   4.046   0.624   7.425
 9555TIP3    H128608   4.068   0.534   7.451
 9555TIP3    H228609   4.011   0.613   7.335
 9556TIP3   OH228610   3.357   0.254   7.358
 9556TIP3    H128611   3.341   0.336   7.306
 9556TIP3    H228612   3.281   0.200   7.332
 9557TIP3   OH228613   4.036   0.398   7.046
 9557TIP3    H128614   4.096   0.352   7.109
 9557TIP3    H228615   4.093   0.400   6.968
 9558TIP3   OH228616   2.982   0.491   7.469
 9558TIP3    H128617   3.061   0.480   7.526
 9558TIP3    H228618   3.003   0.423   7.402
 9559TIP3   OH228619   3.447   0.687   7.285
 9559TIP3    H128620   3.541   0.663   7.296
 9559TIP3    H228621   3.410   0.601   7.256
 9560TIP3   OH228622   4.679   0.636   7.577
 9560TIP3    H128623   4.606   0.691   7.543
 9560TIP3    H228624   4.741   0.701   7.613
 9561TIP3   OH228625   3.719   1.116   6.817
 9561TIP3    H128626   3.680   1.105   6.729
 9561TIP3    H228627   3.676   1.200   6.846
 9562TIP3   OH228628   3.491   1.054   7.605
 9562TIP3    H128629   3.426   1.122   7.632
 9562TIP3    H228630   3.534   1.096   7.527
 9563TIP3   OH228631   3.228   0.427   7.553
 9563TIP3    H128632   3.300   0.481   7.591
 9563TIP3    H228633   3.278   0.358   7.508
 9564TIP3   OH228634   3.303   1.230   7.707
 9564TIP3    H128635   3.272   1.307   7.654
 9564TIP3    H228636   3.236   1.227   7.778
 9565TIP3   OH228637   2.707   0.930   6.936
 9565TIP3    H128638   2.662   0.959   6.855
 9565TIP3    H228639   2.737   1.015   6.974
 9566TIP3   OH228640   4.145   1.444   7.175
 9566TIP3    H128641   4.055   1.436   7.214
 9566TIP3    H228642   4.138   1.530   7.129
 9567TIP3   OH228643   3.844   1.487   6.849
 9567TIP3    H128644   3.894   1.405   6.829
 9567TIP3    H228645   3.906   1.553   6.810
 9568TIP3   OH228646   3.988   1.272   6.762
 9568TIP3    H128647   3.953   1.191   6.721
 9568TIP3    H228648   4.025   1.238   6.846
 9569TIP3   OH228649   4.368   1.355   7.522
 9569TIP3    H128650   4.357   1.278   7.463
 9569TIP3    H228651   4.350   1.429   7.461
 9570TIP3   OH228652   3.662   0.754   6.777
 9570TIP3    H128653   3.582   0.806   6.758
 9570TIP3    H228654   3.705   0.751   6.690
 9571TIP3   OH228655   3.618   0.534   6.494
 9571TIP3    H128656   3.688   0.585   6.539
 9571TIP3    H228657   3.672   0.468   6.446
 9572TIP3   OH228658   4.561   0.994   7.363
 9572TIP3    H128659   4.478   1.046   7.369
 9572TIP3    H228660   4.591   1.020   7.273
 9573TIP3   OH228661   4.007   0.832   6.748
 9573TIP3    H128662   3.954   0.855   6.828
 9573TIP3    H228663   4.094   0.812   6.791
 9574TIP3   OH228664   4.243   0.872   7.669
 9574TIP3    H128665   4.238   0.953   7.722
 9574TIP3    H228666   4.157   0.875   7.623
 9575TIP3   OH228667   3.243   0.828   7.164
 9575TIP3    H128668   3.203   0.768   7.097
 9575TIP3    H228669   3.319   0.774   7.197
 9576TIP3   OH228670   3.369   1.236   7.317
 9576TIP3    H128671   3.348   1.205   7.227
 9576TIP3    H228672   3.459   1.201   7.331
 9577TIP3   OH228673   3.373   0.817   7.521
 9577TIP3    H128674   3.400   0.788   7.432
 9577TIP3    H228675   3.418   0.904   7.530
 9578TIP3   OH228676   3.904   1.440   7.297
 9578TIP3    H128677   3.887   1.520   7.349
 9578TIP3    H228678   3.887   1.367   7.359
 9579TIP3   OH228679   3.510   1.392   7.794
 9579TIP3    H128680   3.460   1.444   7.858
 9579TIP3    H228681   3.446   1.323   7.769
 9580TIP3   OH228682   3.848   0.689   6.575
 9580TIP3    H128683   3.905   0.751   6.625
 9580TIP3    H228684   3.875   0.710   6.482
 9581TIP3   OH228685   3.595   1.367   6.853
 9581TIP3    H128686   3.677   1.419   6.861
 9581TIP3    H228687   3.535   1.430   6.810
 9582TIP3   OH228688   3.269   1.574   7.854
 9582TIP3    H128689   3.299   1.542   7.767
 9582TIP3    H228690   3.199   1.633   7.825
 9583TIP3   OH228691   3.111   0.670   6.966
 9583TIP3    H128692   3.041   0.717   6.914
 9583TIP3    H228693   3.066   0.587   6.987
 9584TIP3   OH228694   4.166   1.296   6.175
 9584TIP3    H128695   4.173   1.393   6.159
 9584TIP3    H228696   4.259   1.268   6.162
 9585TIP3   OH228697   2.743   1.253   7.508
 9585TIP3    H128698   2.838   1.242   7.496
 9585TIP3    H228699   2.737   1.338   7.554
 9586TIP3   OH228700   4.606   1.700   7.574
 9586TIP3    H128701   4.605   1.603   7.587
 9586TIP3    H228702   4.522   1.725   7.616
 9587TIP3   OH228703   3.738   1.486   7.695
 9587TIP3    H128704   3.723   1.581   7.715
 9587TIP3    H228705   3.653   1.449   7.729
 9588TIP3   OH228706   3.477   1.612   6.657
 9588TIP3    H128707   3.431   1.598   6.572
 9588TIP3    H228708   3.445   1.701   6.683
 9589TIP3   OH228709   2.912   1.462   7.039
 9589TIP3    H128710   2.961   1.453   7.124
 9589TIP3    H228711   2.860   1.380   7.038
 9590TIP3   OH228712   3.675   1.516   6.293
 9590TIP3    H128713   3.734   1.446   6.257
 9590TIP3    H228714   3.711   1.528   6.383
 9591TIP3   OH228715   3.727   1.565   6.562
 9591TIP3    H128716   3.640   1.574   6.605
 9591TIP3    H228717   3.781   1.531   6.636
 9592TIP3   OH228718   4.494   0.816   7.821
 9592TIP3    H128719   4.412   0.851   7.784
 9592TIP3    H228720   4.474   0.722   7.826
 9593TIP3   OH228721   4.279   0.614   7.787
 9593TIP3    H128722   4.242   0.638   7.872
 9593TIP3    H228723   4.255   0.689   7.730
 9594TIP3   OH228724   3.927   0.728   6.320
 9594TIP3    H128725   3.890   0.709   6.232
 9594TIP3    H228726   4.007   0.779   6.296
 9595TIP3   OH228727   3.425   0.585   7.654
 9595TIP3    H128728   3.452   0.617   7.741
 9595TIP3    H228729   3.418   0.667   7.603
 9596TIP3   OH228730   3.308   0.465   7.193
 9596TIP3    H128731   3.212   0.446   7.203
 9596TIP3    H228732   3.323   0.436   7.100
 9597TIP3   OH228733   3.793   0.554   6.913
 9597TIP3    H128734   3.746   0.627   6.867
 9597TIP3    H228735   3.859   0.527   6.847
 9598TIP3   OH228736   3.938   0.618   7.172
 9598TIP3    H128737   3.883   0.663   7.105
 9598TIP3    H228738   3.961   0.537   7.120
 9599TIP3   OH228739   2.883   0.222   7.009
 9599TIP3    H128740   2.890   0.211   6.913
 9599TIP3    H228741   2.790   0.249   7.018
 9600TIP3   OH228742   3.960   0.827   7.577
 9600TIP3    H128743   3.998   0.755   7.521
 9600TIP3    H228744   3.940   0.775   7.659
 9601TIP3   OH228745   3.056   0.340   7.234
 9601TIP3    H128746   2.964   0.375   7.227
 9601TIP3    H228747   3.046   0.263   7.176
 9602TIP3   OH228748   3.349   0.362   6.944
 9602TIP3    H128749   3.441   0.348   6.915
 9602TIP3    H228750   3.297   0.349   6.863
 9603TIP3   OH228751   3.183   0.339   6.716
 9603TIP3    H128752   3.102   0.339   6.663
 9603TIP3    H228753   3.244   0.387   6.655
 9604TIP3   OH228754   4.303   2.052   7.663
 9604TIP3    H128755   4.300   2.081   7.570
 9604TIP3    H228756   4.379   2.103   7.696
 9605TIP3   OH228757   3.705   0.619   7.339
 9605TIP3    H128758   3.791   0.591   7.304
 9605TIP3    H228759   3.711   0.590   7.433
 9606TIP3   OH228760   3.722   0.552   7.601
 9606TIP3    H128761   3.643   0.504   7.630
 9606TIP3    H228762   3.768   0.571   7.684
 9607TIP3   OH228763   3.431   0.901   6.727
 9607TIP3    H128764   3.358   0.838   6.716
 9607TIP3    H228765   3.412   0.936   6.818
 9608TIP3   OH228766   4.329   1.140   7.355
 9608TIP3    H128767   4.354   1.190   7.275
 9608TIP3    H228768   4.245   1.097   7.328
 9609TIP3   OH228769   3.863   0.284   6.549
 9609TIP3    H128770   3.808   0.233   6.611
 9609TIP3    H228771   3.903   0.349   6.610
 9610TIP3   OH228772   3.835   1.220   7.717
 9610TIP3    H128773   3.832   1.181   7.804
 9610TIP3    H228774   3.796   1.309   7.729
 9611TIP3   OH228775   3.967   0.478   6.710
 9611TIP3    H128776   4.064   0.489   6.719
 9611TIP3    H228777   3.942   0.556   6.656
 9612TIP3   OH228778   3.120   0.938   7.387
 9612TIP3    H128779   3.163   0.898   7.309
 9612TIP3    H228780   3.146   0.878   7.459
 9613TIP3   OH228781   3.577   1.051   6.550
 9613TIP3    H128782   3.529   1.137   6.553
 9613TIP3    H228783   3.523   0.997   6.612
 9614TIP3   OH228784   4.004   1.477   7.634
 9614TIP3    H128785   3.907   1.463   7.636
 9614TIP3    H228786   4.010   1.564   7.675
 9615TIP3   OH228787   4.399   0.552   6.519
 9615TIP3    H128788   4.340   0.503   6.458
 9615TIP3    H228789   4.387   0.642   6.482
 9616TIP3   OH228790   4.619   1.411   7.609
 9616TIP3    H128791   4.521   1.403   7.599
 9616TIP3    H228792   4.647   1.380   7.519
 9617TIP3   OH228793   4.102   1.372   6.439
 9617TIP3    H128794   4.075   1.301   6.499
 9617TIP3    H228795   4.116   1.325   6.354
 9618TIP3   OH228796   4.096   1.003   7.273
 9618TIP3    H128797   4.003   0.976   7.286
 9618TIP3    H228798   4.132   0.924   7.228
 9619TIP3   OH228799   3.228   1.231   7.032
 9619TIP3    H128800   3.226   1.311   6.976
 9619TIP3    H228801   3.135   1.212   7.041
 9620TIP3   OH228802   2.781   0.534   6.724
 9620TIP3    H128803   2.830   0.615   6.749
 9620TIP3    H228804   2.708   0.537   6.790
 9621TIP3   OH228805   3.359   0.993   6.970
 9621TIP3    H128806   3.327   1.083   6.990
 9621TIP3    H228807   3.324   0.942   7.046
 9622TIP3   OH228808   3.499   1.575   7.483
 9622TIP3    H128809   3.538   1.651   7.435
 9622TIP3    H228810   3.575   1.544   7.533
 9623TIP3   OH228811   3.146   1.467   6.881
 9623TIP3    H128812   3.060   1.478   6.926
 9623TIP3    H228813   3.180   1.559   6.884
 9624TIP3   OH228814   3.883   1.207   7.452
 9624TIP3    H128815   3.875   1.204   7.550
 9624TIP3    H228816   3.960   1.150   7.437
 9625TIP3   OH228817   3.860   1.098   6.341
 9625TIP3    H128818   3.913   1.073   6.421
 9625TIP3    H228819   3.771   1.074   6.371
 9626TIP3   OH228820   4.126   1.738   7.504
 9626TIP3    H128821   4.043   1.692   7.482
 9626TIP3    H228822   4.124   1.807   7.434
 9627TIP3   OH228823   4.197   1.572   6.159
 9627TIP3    H128824   4.233   1.644   6.105
 9627TIP3    H228825   4.117   1.617   6.194
 9628TIP3   OH228826   4.020   1.032   6.556
 9628TIP3    H128827   4.010   0.965   6.627
 9628TIP3    H228828   4.118   1.029   6.543
 9629TIP3   OH228829   2.944   1.446   7.640
 9629TIP3    H128830   2.985   1.361   7.658
 9629TIP3    H228831   2.901   1.466   7.725
 9630TIP3   OH228832   3.223   1.079   6.340
 9630TIP3    H128833   3.239   0.986   6.315
 9630TIP3    H228834   3.203   1.071   6.435
 9631TIP3   OH228835   3.168   1.084   6.611
 9631TIP3    H128836   3.242   1.060   6.669
 9631TIP3    H228837   3.170   1.182   6.618
 9632TIP3   OH228838   2.901   0.775   6.816
 9632TIP3    H128839   2.836   0.821   6.873
 9632TIP3    H228840   2.915   0.845   6.748
 9633TIP3   OH228841   3.435   1.280   6.559
 9633TIP3    H128842   3.348   1.305   6.596
 9633TIP3    H228843   3.452   1.357   6.503
 9634TIP3   OH228844   3.634   0.335   6.935
 9634TIP3    H128845   3.687   0.418   6.930
 9634TIP3    H228846   3.647   0.309   7.027
 9635TIP3   OH228847   3.911   0.685   7.807
 9635TIP3    H128848   3.927   0.742   7.885
 9635TIP3    H228849   3.943   0.600   7.839
 9636TIP3   OH228850   3.179   1.355   6.630
 9636TIP3    H128851   3.150   1.426   6.567
 9636TIP3    H228852   3.164   1.399   6.716
 9637TIP3   OH228853   4.185   0.762   7.152
 9637TIP3    H128854   4.106   0.709   7.173
 9637TIP3    H228855   4.256   0.713   7.201
 9638TIP3   OH228856   2.897   0.983   6.620
 9638TIP3    H128857   2.964   1.053   6.630
 9638TIP3    H228858   2.942   0.927   6.553
 9639TIP3   OH228859   2.838   0.264   6.720
 9639TIP3    H128860   2.824   0.361   6.729
 9639TIP3    H228861   2.750   0.229   6.739
 9640TIP3   OH228862   4.153   1.713   7.099
 9640TIP3    H128863   4.110   1.760   7.023
 9640TIP3    H228864   4.247   1.733   7.078
 9641TIP3   OH228865   2.764   1.200   7.004
 9641TIP3    H128866   2.698   1.229   7.069
 9641TIP3    H228867   2.730   1.243   6.922
 9642TIP3   OH228868   3.385   1.282   6.248
 9642TIP3    H128869   3.331   1.210   6.287
 9642TIP3    H228870   3.462   1.232   6.215
 9643TIP3   OH228871   4.053   1.601   7.894
 9643TIP3    H128872   4.097   1.528   7.848
 9643TIP3    H228873   4.128   1.663   7.908
 9644TIP3   OH228874   3.821   1.320   6.163
 9644TIP3    H128875   3.868   1.259   6.222
 9644TIP3    H228876   3.877   1.320   6.083
 9645TIP3   OH228877   3.032   0.795   6.476
 9645TIP3    H128878   3.090   0.770   6.550
 9645TIP3    H228879   3.100   0.802   6.404
 9646TIP3   OH228880   3.545   0.998   6.282
 9646TIP3    H128881   3.548   1.012   6.379
 9646TIP3    H228882   3.546   0.900   6.277
 9647TIP3   OH228883   4.159   1.246   7.669
 9647TIP3    H128884   4.235   1.284   7.620
 9647TIP3    H228885   4.090   1.312   7.648
 9648TIP3   OH228886   3.234   0.706   6.693
 9648TIP3    H128887   3.212   0.670   6.781
 9648TIP3    H228888   3.274   0.629   6.648
 9649TIP3   OH228889   3.338   0.494   6.541
 9649TIP3    H128890   3.313   0.498   6.447
 9649TIP3    H228891   3.436   0.500   6.534
 9650TIP3   OH228892   4.160   0.824   6.201
 9650TIP3    H128893   4.140   0.784   6.114
 9650TIP3    H228894   4.128   0.916   6.182
 9651TIP3   OH228895   3.659   0.894   7.756
 9651TIP3    H128896   3.743   0.872   7.712
 9651TIP3    H228897   3.618   0.954   7.691
 9652TIP3   OH228898   4.292   1.100   7.853
 9652TIP3    H128899   4.231   1.151   7.795
 9652TIP3    H228900   4.378   1.119   7.809
 9653TIP3   OH228901   3.149   1.556   6.441
 9653TIP3    H128902   3.245   1.550   6.423
 9653TIP3    H228903   3.121   1.610   6.364
 9654TIP3   OH228904   2.628   0.945   6.655
 9654TIP3    H128905   2.723   0.966   6.643
 9654TIP3    H228906   2.623   0.856   6.614
 9655TIP3   OH228907   2.544   1.553   7.072
 9655TIP3    H128908   2.478   1.492   7.033
 9655TIP3    H228909   2.588   1.493   7.136
 9656TIP3   OH228910   2.677   1.399   7.257
 9656TIP3    H128911   2.664   1.328   7.323
 9656TIP3    H228912   2.737   1.459   7.306
 9657TIP3   OH228913   4.409   1.799   7.060
 9657TIP3    H128914   4.431   1.841   7.145
 9657TIP3    H228915   4.465   1.848   6.998
 9658TIP3   OH228916   4.429   1.825   7.344
 9658TIP3    H128917   4.393   1.734   7.337
 9658TIP3    H228918   4.511   1.806   7.392
 9659TIP3   OH228919   4.486   1.505   7.898
 9659TIP3    H128920   4.410   1.513   7.956
 9659TIP3    H228921   4.528   1.593   7.905
 9660TIP3   OH228922   4.298   1.014   6.530
 9660TIP3    H128923   4.363   1.080   6.500
 9660TIP3    H228924   4.343   0.978   6.609
 9661TIP3   OH228925   4.424   0.887   6.735
 9661TIP3    H128926   4.356   0.847   6.795
 9661TIP3    H228927   4.488   0.926   6.798
 9662TIP3   OH228928   4.482   1.276   7.170
 9662TIP3    H128929   4.533   1.209   7.119
 9662TIP3    H228930   4.480   1.351   7.107
 9663TIP3   OH228931   4.308   1.572   7.363
 9663TIP3    H128932   4.235   1.617   7.409
 9663TIP3    H228933   4.262   1.527   7.289
 9664TIP3   OH228934   4.357   0.788   6.383
 9664TIP3    H128935   4.288   0.797   6.313
 9664TIP3    H228936   4.333   0.865   6.439
 9665TIP3   OH228937   4.226   0.449   6.325
 9665TIP3    H128938   4.208   0.529   6.274
 9665TIP3    H228939   4.178   0.382   6.273
 9666TIP3   OH228940   4.237   0.754   6.880
 9666TIP3    H128941   4.240   0.659   6.856
 9666TIP3    H228942   4.225   0.752   6.978
 9667TIP3   OH228943   2.863   0.858   7.610
 9667TIP3    H128944   2.858   0.809   7.525
 9667TIP3    H228945   2.954   0.838   7.639
 9668TIP3   OH228946   4.528   1.164   7.731
 9668TIP3    H128947   4.598   1.096   7.724
 9668TIP3    H228948   4.560   1.234   7.672
 9669TIP3   OH228949   4.708   0.968   7.743
 9669TIP3    H128950   4.637   0.916   7.787
 9669TIP3    H228951   4.784   0.910   7.762
 9670TIP3   OH228952   4.238   0.502   6.750
 9670TIP3    H128953   4.267   0.424   6.801
 9670TIP3    H228954   4.302   0.503   6.675
 9671TIP3   OH228955   4.392   0.631   7.277
 9671TIP3    H128956   4.478   0.653   7.235
 9671TIP3    H228957   4.408   0.668   7.366
 9672TIP3   OH228958   4.458   0.780   7.500
 9672TIP3    H128959   4.384   0.816   7.553
 9672TIP3    H228960   4.494   0.860   7.457
 9673TIP3   OH228961   3.989   1.670   6.714
 9673TIP3    H128962   4.042   1.662   6.632
 9673TIP3    H228963   4.036   1.740   6.762
 9674TIP3   OH228964   3.272   1.482   7.597
 9674TIP3    H128965   3.216   1.555   7.562
 9674TIP3    H228966   3.357   1.507   7.555
 9675TIP3   OH228967   3.697   1.749   7.754
 9675TIP3    H128968   3.726   1.757   7.847
 9675TIP3    H228969   3.765   1.804   7.708
 9676TIP3   OH228970   3.892   1.899   7.642
 9676TIP3    H128971   3.963   1.868   7.584
 9676TIP3    H228972   3.942   1.962   7.699
 9677TIP3   OH228973   2.945   1.777   7.662
 9677TIP3    H128974   2.860   1.812   7.630
 9677TIP3    H228975   2.939   1.797   7.756
 9678TIP3   OH228976   3.182   1.737   7.526
 9678TIP3    H128977   3.095   1.753   7.569
 9678TIP3    H228978   3.166   1.774   7.437
 9679TIP3   OH228979   3.608   1.771   7.326
 9679TIP3    H128980   3.540   1.790   7.259
 9679TIP3    H228981   3.620   1.859   7.367
 9680TIP3   OH228982   3.877   1.708   7.382
 9680TIP3    H128983   3.783   1.729   7.362
 9680TIP3    H228984   3.922   1.780   7.334
 9681TIP3   OH228985   4.078   1.897   7.292
 9681TIP3    H128986   4.067   1.985   7.248
 9681TIP3    H228987   4.107   1.842   7.217
 9682TIP3   OH228988   2.855   1.558   7.407
 9682TIP3    H128989   2.889   1.538   7.497
 9682TIP3    H228990   2.927   1.516   7.355
 9683TIP3   OH228991   3.051   1.429   7.272
 9683TIP3    H128992   3.067   1.348   7.325
 9683TIP3    H228993   3.142   1.467   7.268
 9684TIP3   OH228994   3.315   1.522   7.276
 9684TIP3    H128995   3.347   1.431   7.264
 9684TIP3    H228996   3.369   1.549   7.353
 9685TIP3   OH228997   2.644   1.334   6.804
 9685TIP3    H128998   2.557   1.302   6.772
 9685TIP3    H228999   2.636   1.428   6.780
 9686TIP3   OH229000   3.417   1.515   6.390
 9686TIP3    H129001   3.505   1.539   6.353
 9686TIP3    H229002   3.395   1.442   6.329
 9687TIP3   OH229003   4.136   1.639   6.482
 9687TIP3    H129004   4.127   1.541   6.471
 9687TIP3    H229005   4.090   1.671   6.402
 9688TIP3   OH229006   2.718   1.351   6.442
 9688TIP3    H129007   2.721   1.379   6.535
 9688TIP3    H229008   2.806   1.310   6.429
 9689TIP3   OH229009   4.351   1.782   7.671
 9689TIP3    H129010   4.279   1.757   7.609
 9689TIP3    H229011   4.342   1.880   7.668
 9690TIP3   OH229012   5.625   1.148   6.439
 9690TIP3    H129013   5.600   1.241   6.419
 9690TIP3    H229014   5.551   1.102   6.394
 9691TIP3   OH229015   5.632   1.157   6.814
 9691TIP3    H129016   5.658   1.134   6.905
 9691TIP3    H229017   5.586   1.078   6.784
 9692TIP3   OH229018   4.917   1.053   7.188
 9692TIP3    H129019   4.904   1.061   7.284
 9692TIP3    H229020   4.986   1.117   7.168
 9693TIP3   OH229021   5.871   1.458   6.500
 9693TIP3    H129022   5.858   1.394   6.570
 9693TIP3    H229023   5.903   1.536   6.549
 9694TIP3   OH229024   4.901   1.459   6.903
 9694TIP3    H129025   4.896   1.361   6.908
 9694TIP3    H229026   4.997   1.471   6.893
 9695TIP3   OH229027   4.596   0.674   6.706
 9695TIP3    H129028   4.538   0.752   6.714
 9695TIP3    H229029   4.542   0.617   6.649
 9696TIP3   OH229030   4.658   0.959   6.862
 9696TIP3    H129031   4.698   0.874   6.892
 9696TIP3    H229032   4.717   0.985   6.790
 9697TIP3   OH229033   5.521   1.919   6.515
 9697TIP3    H129034   5.564   1.847   6.464
 9697TIP3    H229035   5.515   1.880   6.603
 9698TIP3   OH229036   5.423   1.376   6.871
 9698TIP3    H129037   5.464   1.308   6.816
 9698TIP3    H229038   5.505   1.424   6.898
 9699TIP3   OH229039   5.835   0.869   6.911
 9699TIP3    H129040   5.928   0.849   6.893
 9699TIP3    H229041   5.796   0.873   6.821
 9700TIP3   OH229042   5.174   0.509   6.840
 9700TIP3    H129043   5.145   0.593   6.799
 9700TIP3    H229044   5.092   0.457   6.836
 9701TIP3   OH229045   5.829   0.668   6.536
 9701TIP3    H129046   5.889   0.615   6.591
 9701TIP3    H229047   5.877   0.665   6.451
 9702TIP3   OH229048   4.789   0.743   6.958
 9702TIP3    H129049   4.882   0.751   6.992
 9702TIP3    H229050   4.804   0.677   6.888
 9703TIP3   OH229051   5.243   0.940   6.774
 9703TIP3    H129052   5.337   0.914   6.782
 9703TIP3    H229053   5.203   0.857   6.740
 9704TIP3   OH229054   6.467   0.892   7.073
 9704TIP3    H129055   6.403   0.951   7.030
 9704TIP3    H229056   6.540   0.952   7.097
 9705TIP3   OH229057   5.514   1.370   6.305
 9705TIP3    H129058   5.478   1.361   6.216
 9705TIP3    H229059   5.473   1.454   6.333
 9706TIP3   OH229060   5.283   1.302   7.099
 9706TIP3    H129061   5.222   1.374   7.127
 9706TIP3    H229062   5.327   1.345   7.021
 9707TIP3   OH229063   5.047   0.720   7.029
 9707TIP3    H129064   5.112   0.772   7.078
 9707TIP3    H229065   5.067   0.629   7.058
 9708TIP3   OH229066   5.107   1.495   7.188
 9708TIP3    H129067   5.084   1.582   7.149
 9708TIP3    H229068   5.028   1.483   7.245
 9709TIP3   OH229069   4.499   1.184   6.423
 9709TIP3    H129070   4.459   1.212   6.339
 9709TIP3    H229071   4.530   1.270   6.459
 9710TIP3   OH229072   5.939   1.700   6.661
 9710TIP3    H129073   5.849   1.693   6.701
 9710TIP3    H229074   5.932   1.787   6.617
 9711TIP3   OH229075   5.639   1.744   6.335
 9711TIP3    H129076   5.689   1.662   6.315
 9711TIP3    H229077   5.702   1.810   6.297
 9712TIP3   OH229078   5.783   1.529   6.248
 9712TIP3    H129079   5.754   1.448   6.204
 9712TIP3    H229080   5.820   1.495   6.332
 9713TIP3   OH229081   6.162   1.610   7.009
 9713TIP3    H129082   6.154   1.535   6.947
 9713TIP3    H229083   6.146   1.687   6.950
 9714TIP3   OH229084   5.459   1.012   6.265
 9714TIP3    H129085   5.378   1.063   6.245
 9714TIP3    H229086   5.500   1.005   6.176
 9715TIP3   OH229087   5.416   0.788   5.984
 9715TIP3    H129088   5.487   0.841   6.023
 9715TIP3    H229089   5.467   0.723   5.933
 9716TIP3   OH229090   6.361   1.248   6.852
 9716TIP3    H129091   6.279   1.304   6.855
 9716TIP3    H229092   6.395   1.274   6.764
 9717TIP3   OH229093   5.802   1.090   6.235
 9717TIP3    H129094   5.750   1.113   6.315
 9717TIP3    H229095   5.889   1.070   6.276
 9718TIP3   OH229096   6.040   1.127   7.158
 9718TIP3    H129097   6.042   1.207   7.215
 9718TIP3    H229098   5.957   1.144   7.109
 9719TIP3   OH229099   5.034   1.085   6.657
 9719TIP3    H129100   4.994   1.027   6.588
 9719TIP3    H229101   5.112   1.033   6.686
 9720TIP3   OH229102   5.165   1.492   6.804
 9720TIP3    H129103   5.147   1.463   6.713
 9720TIP3    H229104   5.254   1.457   6.821
 9721TIP3   OH229105   5.209   1.040   7.041
 9721TIP3    H129106   5.213   1.010   6.948
 9721TIP3    H229107   5.227   1.135   7.033
 9722TIP3   OH229108   5.699   1.694   6.786
 9722TIP3    H129109   5.685   1.778   6.834
 9722TIP3    H229110   5.681   1.626   6.853
 9723TIP3   OH229111   5.313   1.611   7.336
 9723TIP3    H129112   5.254   1.673   7.382
 9723TIP3    H229113   5.247   1.560   7.284
 9724TIP3   OH229114   5.645   0.943   6.062
 9724TIP3    H129115   5.701   1.007   6.111
 9724TIP3    H229116   5.671   0.964   5.969
 9725TIP3   OH229117   5.391   1.623   6.341
 9725TIP3    H129118   5.474   1.675   6.348
 9725TIP3    H229119   5.332   1.685   6.297
 9726TIP3   OH229120   5.108   1.778   7.420
 9726TIP3    H129121   5.073   1.784   7.329
 9726TIP3    H229122   5.028   1.758   7.472
 9727TIP3   OH229123   4.902   0.927   6.461
 9727TIP3    H129124   4.838   0.976   6.405
 9727TIP3    H229125   4.862   0.840   6.465
 9728TIP3   OH229126   5.962   1.553   5.661
 9728TIP3    H129127   5.970   1.649   5.646
 9728TIP3    H229128   6.055   1.524   5.649
 9729TIP3   OH229129   4.686   1.307   7.370
 9729TIP3    H129130   4.620   1.287   7.301
 9729TIP3    H229131   4.725   1.219   7.390
 9730TIP3   OH229132   4.540   1.505   7.003
 9730TIP3    H129133   4.636   1.505   6.992
 9730TIP3    H229134   4.526   1.587   7.053
 9731TIP3   OH229135   6.405   1.959   7.058
 9731TIP3    H129136   6.403   1.863   7.074
 9731TIP3    H229137   6.321   1.985   7.103
 9732TIP3   OH229138   5.509   1.740   7.190
 9732TIP3    H129139   5.507   1.833   7.221
 9732TIP3    H229140   5.439   1.700   7.246
 9733TIP3   OH229141   5.274   1.869   6.143
 9733TIP3    H129142   5.227   1.854   6.059
 9733TIP3    H229143   5.241   1.957   6.170
 9734TIP3   OH229144   4.709   1.720   6.527
 9734TIP3    H129145   4.757   1.712   6.612
 9734TIP3    H229146   4.652   1.641   6.531
 9735TIP3   OH229147   5.472   1.773   5.780
 9735TIP3    H129148   5.531   1.703   5.744
 9735TIP3    H229149   5.507   1.784   5.870
 9736TIP3   OH229150   5.524   1.822   6.049
 9736TIP3    H129151   5.436   1.831   6.091
 9736TIP3    H229152   5.577   1.787   6.122
 9737TIP3   OH229153   6.291   1.072   7.323
 9737TIP3    H129154   6.213   1.102   7.275
 9737TIP3    H229155   6.297   0.979   7.301
 9738TIP3   OH229156   4.891   1.492   7.352
 9738TIP3    H129157   4.943   1.479   7.435
 9738TIP3    H229158   4.817   1.429   7.365
 9739TIP3   OH229159   6.011   0.866   7.272
 9739TIP3    H129160   6.055   0.894   7.352
 9739TIP3    H229161   6.026   0.942   7.213
 9740TIP3   OH229162   5.725   0.985   5.808
 9740TIP3    H129163   5.686   0.966   5.721
 9740TIP3    H229164   5.805   1.035   5.782
 9741TIP3   OH229165   5.104   0.722   6.678
 9741TIP3    H129166   5.009   0.702   6.688
 9741TIP3    H229167   5.120   0.692   6.586
 9742TIP3   OH229168   5.587   0.811   6.401
 9742TIP3    H129169   5.541   0.884   6.354
 9742TIP3    H229170   5.654   0.785   6.334
 9743TIP3   OH229171   5.781   1.107   7.464
 9743TIP3    H129172   5.760   1.032   7.523
 9743TIP3    H229173   5.875   1.124   7.489
 9744TIP3   OH229174   5.727   0.886   6.658
 9744TIP3    H129175   5.680   0.937   6.589
 9744TIP3    H229176   5.749   0.805   6.606
 9745TIP3   OH229177   4.674   0.481   6.507
 9745TIP3    H129178   4.691   0.481   6.411
 9745TIP3    H229179   4.578   0.498   6.505
 9746TIP3   OH229180   5.748   1.076   7.059
 9746TIP3    H129181   5.783   1.000   7.007
 9746TIP3    H229182   5.733   1.031   7.145
 9747TIP3   OH229183   4.853   0.594   6.723
 9747TIP3    H129184   4.761   0.628   6.713
 9747TIP3    H229185   4.847   0.518   6.663
 9748TIP3   OH229186   5.147   0.619   6.430
 9748TIP3    H129187   5.236   0.605   6.394
 9748TIP3    H229188   5.090   0.608   6.351
 9749TIP3   OH229189   4.981   0.601   6.205
 9749TIP3    H129190   4.908   0.583   6.143
 9749TIP3    H229191   5.041   0.648   6.144
 9750TIP3   OH229192   6.098   2.307   7.155
 9750TIP3    H129193   6.095   2.334   7.062
 9750TIP3    H229194   6.177   2.355   7.188
 9751TIP3   OH229195   5.053   1.439   7.576
 9751TIP3    H129196   5.133   1.456   7.627
 9751TIP3    H229197   4.989   1.419   7.647
 9752TIP3   OH229198   5.504   0.861   6.831
 9752TIP3    H129199   5.586   0.853   6.779
 9752TIP3    H229200   5.532   0.831   6.920
 9753TIP3   OH229201   5.532   0.781   7.097
 9753TIP3    H129202   5.445   0.788   7.137
 9753TIP3    H229203   5.589   0.827   7.162
 9754TIP3   OH229204   5.228   1.158   6.216
 9754TIP3    H129205   5.154   1.094   6.203
 9754TIP3    H229206   5.208   1.192   6.306
 9755TIP3   OH229207   6.129   1.395   6.841
 9755TIP3    H129208   6.154   1.446   6.762
 9755TIP3    H229209   6.043   1.354   6.814
 9756TIP3   OH229210   5.663   0.542   6.035
 9756TIP3    H129211   5.605   0.490   6.093
 9756TIP3    H229212   5.700   0.606   6.100
 9757TIP3   OH229213   5.615   1.469   7.224
 9757TIP3    H129214   5.671   1.474   7.302
 9757TIP3    H229215   5.585   1.561   7.214
 9758TIP3   OH229216   5.764   0.735   6.202
 9758TIP3    H129217   5.862   0.746   6.207
 9758TIP3    H229218   5.738   0.810   6.145
 9759TIP3   OH229219   4.934   1.180   6.897
 9759TIP3    H129220   4.963   1.156   6.807
 9759TIP3    H229221   4.954   1.100   6.947
 9760TIP3   OH229222   5.375   1.308   6.040
 9760TIP3    H129223   5.326   1.394   6.042
 9760TIP3    H229224   5.320   1.254   6.100
 9761TIP3   OH229225   4.810   1.086   7.484
 9761TIP3    H129226   4.842   1.092   7.576
 9761TIP3    H229227   4.733   1.028   7.494
 9762TIP3   OH229228   5.532   1.212   7.504
 9762TIP3    H129229   5.511   1.202   7.410
 9762TIP3    H229230   5.627   1.190   7.502
 9763TIP3   OH229231   5.783   1.724   7.117
 9763TIP3    H129232   5.687   1.736   7.127
 9763TIP3    H229233   5.816   1.783   7.190
 9764TIP3   OH229234   6.191   0.809   6.006
 9764TIP3    H129235   6.133   0.760   5.944
 9764TIP3    H229236   6.181   0.899   5.968
 9765TIP3   OH229237   6.414   1.665   7.098
 9765TIP3    H129238   6.316   1.661   7.087
 9765TIP3    H229239   6.441   1.637   7.007
 9766TIP3   OH229240   5.898   1.629   5.925
 9766TIP3    H129241   5.872   1.558   5.985
 9766TIP3    H229242   5.912   1.582   5.841
 9767TIP3   OH229243   5.893   1.260   6.762
 9767TIP3    H129244   5.799   1.235   6.773
 9767TIP3    H229245   5.928   1.183   6.713
 9768TIP3   OH229246   5.025   1.487   6.518
 9768TIP3    H129247   5.024   1.567   6.462
 9768TIP3    H229248   4.931   1.470   6.528
 9769TIP3   OH229249   4.585   0.789   6.223
 9769TIP3    H129250   4.630   0.873   6.242
 9769TIP3    H229251   4.508   0.795   6.284
 9770TIP3   OH229252   5.154   1.248   6.459
 9770TIP3    H129253   5.123   1.339   6.477
 9770TIP3    H229254   5.117   1.200   6.535
 9771TIP3   OH229255   5.293   1.828   6.983
 9771TIP3    H129256   5.333   1.902   6.933
 9771TIP3    H229257   5.370   1.795   7.031
 9772TIP3   OH229258   4.942   1.723   6.368
 9772TIP3    H129259   4.856   1.734   6.414
 9772TIP3    H229260   4.976   1.816   6.371
 9773TIP3   OH229261   5.674   1.460   6.950
 9773TIP3    H129262   5.668   1.455   7.048
 9773TIP3    H229263   5.760   1.419   6.934
 9774TIP3   OH229264   5.657   1.356   5.828
 9774TIP3    H129265   5.709   1.332   5.907
 9774TIP3    H229266   5.568   1.329   5.855
 9775TIP3   OH229267   5.926   1.993   6.990
 9775TIP3    H129268   5.842   1.943   6.979
 9775TIP3    H229269   5.915   2.061   6.920
 9776TIP3   OH229270   5.993   1.829   5.645
 9776TIP3    H129271   6.030   1.902   5.594
 9776TIP3    H229272   5.913   1.873   5.680
 9777TIP3   OH229273   5.817   1.291   6.044
 9777TIP3    H129274   5.806   1.223   6.114
 9777TIP3    H229275   5.914   1.287   6.030
 9778TIP3   OH229276   4.730   1.691   7.143
 9778TIP3    H129277   4.786   1.622   7.183
 9778TIP3    H229278   4.757   1.769   7.193
 9779TIP3   OH229279   5.019   1.336   5.827
 9779TIP3    H129280   5.033   1.243   5.800
 9779TIP3    H229281   4.998   1.326   5.922
 9780TIP3   OH229282   4.963   1.341   6.099
 9780TIP3    H129283   5.039   1.317   6.154
 9780TIP3    H229284   4.965   1.439   6.105
 9781TIP3   OH229285   4.698   1.034   6.304
 9781TIP3    H129286   4.632   1.080   6.359
 9781TIP3    H229287   4.712   1.101   6.234
 9782TIP3   OH229288   5.231   1.537   6.047
 9782TIP3    H129289   5.144   1.562   6.083
 9782TIP3    H229290   5.248   1.612   5.988
 9783TIP3   OH229291   5.435   0.589   6.422
 9783TIP3    H129292   5.485   0.674   6.416
 9783TIP3    H229293   5.437   0.573   6.518
 9784TIP3   OH229294   5.692   0.926   7.278
 9784TIP3    H129295   5.710   0.990   7.350
 9784TIP3    H229296   5.768   0.866   7.291
 9785TIP3   OH229297   4.976   1.613   6.116
 9785TIP3    H129298   4.947   1.683   6.054
 9785TIP3    H229299   4.960   1.656   6.203
 9786TIP3   OH229300   5.981   1.019   6.639
 9786TIP3    H129301   5.902   0.964   6.652
 9786TIP3    H229302   6.052   0.969   6.685
 9787TIP3   OH229303   4.693   1.238   6.107
 9787TIP3    H129304   4.760   1.308   6.116
 9787TIP3    H229305   4.737   1.182   6.040
 9788TIP3   OH229306   4.637   0.517   6.235
 9788TIP3    H129307   4.631   0.615   6.225
 9788TIP3    H229308   4.550   0.488   6.204
 9789TIP3   OH229309   5.949   1.970   6.585
 9789TIP3    H129310   5.906   2.017   6.510
 9789TIP3    H229311   6.044   1.989   6.565
 9790TIP3   OH229312   4.557   1.450   6.491
 9790TIP3    H129313   4.495   1.485   6.556
 9790TIP3    H229314   4.527   1.496   6.409
 9791TIP3   OH229315   4.723   2.002   7.570
 9791TIP3    H129316   4.810   2.006   7.615
 9791TIP3    H229317   4.711   1.906   7.563
 9792TIP3   OH229318   5.196   1.960   7.614
 9792TIP3    H129319   5.292   1.950   7.619
 9792TIP3    H229320   5.175   1.899   7.541
 9793TIP3   OH229321   5.182   1.538   5.736
 9793TIP3    H129322   5.127   1.466   5.774
 9793TIP3    H229323   5.258   1.487   5.703
 9794TIP3   OH229324   5.842   1.869   7.344
 9794TIP3    H129325   5.835   1.801   7.415
 9794TIP3    H229326   5.918   1.922   7.373
 9795TIP3   OH229327   5.618   1.577   5.651
 9795TIP3    H129328   5.662   1.514   5.710
 9795TIP3    H229329   5.674   1.575   5.571
 9796TIP3   OH229330   4.849   1.406   7.764
 9796TIP3    H129331   4.867   1.310   7.771
 9796TIP3    H229332   4.763   1.406   7.716
 9797TIP3   OH229333   4.828   1.053   5.962
 9797TIP3    H129334   4.887   1.024   6.034
 9797TIP3    H229335   4.894   1.059   5.889
 9798TIP3   OH229336   5.457   1.495   7.543
 9798TIP3    H129337   5.417   1.520   7.457
 9798TIP3    H229338   5.489   1.404   7.527
 9799TIP3   OH229339   5.343   1.257   5.770
 9799TIP3    H129340   5.344   1.269   5.867
 9799TIP3    H229341   5.345   1.159   5.763
 9800TIP3   OH229342   5.947   1.503   7.145
 9800TIP3    H129343   6.026   1.542   7.102
 9800TIP3    H229344   5.883   1.577   7.131
 9801TIP3   OH229345   4.970   1.145   7.742
 9801TIP3    H129346   5.022   1.063   7.746
 9801TIP3    H229347   4.998   1.185   7.827
 9802TIP3   OH229348   5.033   0.962   6.181
 9802TIP3    H129349   5.010   0.919   6.265
 9802TIP3    H229350   5.072   0.888   6.130
 9803TIP3   OH229351   5.136   0.754   6.029
 9803TIP3    H129352   5.110   0.760   5.935
 9803TIP3    H229353   5.234   0.756   6.021
 9804TIP3   OH229354   5.817   1.424   7.542
 9804TIP3    H129355   5.901   1.407   7.499
 9804TIP3    H229356   5.819   1.362   7.617
 9805TIP3   OH229357   5.956   1.082   5.687
 9805TIP3    H129358   5.936   1.041   5.601
 9805TIP3    H229359   5.924   1.173   5.668
 9806TIP3   OH229360   5.360   0.885   7.416
 9806TIP3    H129361   5.320   0.797   7.423
 9806TIP3    H229362   5.443   0.871   7.460
 9807TIP3   OH229363   5.435   1.139   7.250
 9807TIP3    H129364   5.520   1.123   7.204
 9807TIP3    H229365   5.393   1.204   7.187
 9808TIP3   OH229366   6.034   1.110   7.576
 9808TIP3    H129367   6.068   1.044   7.640
 9808TIP3    H229368   6.117   1.155   7.550
 9809TIP3   OH229369   6.080   1.351   7.323
 9809TIP3    H129370   6.021   1.408   7.268
 9809TIP3    H229371   6.167   1.377   7.286
 9810TIP3   OH229372   5.267   0.961   7.735
 9810TIP3    H129373   5.215   0.918   7.805
 9810TIP3    H229374   5.329   0.893   7.707
 9811TIP3   OH229375   5.680   0.881   7.575
 9811TIP3    H129376   5.727   0.866   7.659
 9811TIP3    H229377   5.619   0.805   7.577
 9812TIP3   OH229378   4.946   1.814   5.928
 9812TIP3    H129379   5.041   1.808   5.909
 9812TIP3    H229380   4.917   1.867   5.851
 9813TIP3   OH229381   4.424   1.197   6.144
 9813TIP3    H129382   4.519   1.219   6.129
 9813TIP3    H229383   4.418   1.109   6.102
 9814TIP3   OH229384   4.342   1.809   6.558
 9814TIP3    H129385   4.275   1.749   6.519
 9814TIP3    H229386   4.385   1.749   6.623
 9815TIP3   OH229387   4.477   1.654   6.743
 9815TIP3    H129388   4.461   1.587   6.811
 9815TIP3    H229389   4.529   1.719   6.794
 9816TIP3   OH229390   6.204   2.058   6.547
 9816TIP3    H129391   6.228   2.094   6.634
 9816TIP3    H229392   6.265   2.105   6.488
 9817TIP3   OH229393   6.229   2.081   6.829
 9817TIP3    H129394   6.188   1.991   6.824
 9817TIP3    H229395   6.306   2.061   6.884
 9818TIP3   OH229396   6.276   1.759   7.400
 9818TIP3    H129397   6.203   1.770   7.463
 9818TIP3    H229398   6.320   1.846   7.404
 9819TIP3   OH229399   6.094   1.271   6.016
 9819TIP3    H129400   6.159   1.337   5.986
 9819TIP3    H229401   6.139   1.235   6.095
 9820TIP3   OH229402   6.220   1.144   6.220
 9820TIP3    H129403   6.154   1.107   6.282
 9820TIP3    H229404   6.288   1.182   6.280
 9821TIP3   OH229405   6.276   1.531   6.654
 9821TIP3    H129406   6.330   1.464   6.606
 9821TIP3    H229407   6.275   1.606   6.591
 9822TIP3   OH229408   6.105   1.829   6.850
 9822TIP3    H129409   6.034   1.875   6.899
 9822TIP3    H229410   6.056   1.785   6.778
 9823TIP3   OH229411   6.152   1.044   5.870
 9823TIP3    H129412   6.084   1.054   5.800
 9823TIP3    H229413   6.129   1.122   5.926
 9824TIP3   OH229414   6.021   0.706   5.812
 9824TIP3    H129415   6.002   0.784   5.758
 9824TIP3    H229416   5.977   0.636   5.761
 9825TIP3   OH229417   6.031   1.011   6.366
 9825TIP3    H129418   6.038   0.917   6.342
 9825TIP3    H229419   6.023   1.010   6.463
 9826TIP3   OH229420   4.655   1.066   7.113
 9826TIP3    H129421   4.649   1.035   7.020
 9826TIP3    H229422   4.753   1.062   7.126
 9827TIP3   OH229423   6.322   1.421   7.219
 9827TIP3    H129424   6.396   1.356   7.213
 9827TIP3    H229425   6.353   1.493   7.161
 9828TIP3   OH229426   6.503   1.225   7.243
 9828TIP3    H129427   6.433   1.171   7.283
 9828TIP3    H229428   6.580   1.167   7.256
 9829TIP3   OH229429   6.036   0.757   6.240
 9829TIP3    H129430   6.071   0.680   6.288
 9829TIP3    H229431   6.097   0.763   6.162
 9830TIP3   OH229432   6.183   0.886   6.769
 9830TIP3    H129433   6.267   0.904   6.722
 9830TIP3    H229434   6.205   0.927   6.855
 9831TIP3   OH229435   6.250   1.040   6.988
 9831TIP3    H129436   6.177   1.082   7.037
 9831TIP3    H229437   6.290   1.117   6.941
 9832TIP3   OH229438   4.873   0.753   7.775
 9832TIP3    H129439   4.963   0.769   7.808
 9832TIP3    H229440   4.849   0.668   7.815
 9833TIP3   OH229441   4.637   0.718   7.191
 9833TIP3    H129442   4.686   0.724   7.106
 9833TIP3    H229443   4.660   0.802   7.233
 9834TIP3   OH229444   5.785   1.927   6.201
 9834TIP3    H129445   5.838   1.919   6.119
 9834TIP3    H229446   5.835   1.995   6.250
 9835TIP3   OH229447   4.885   1.738   7.582
 9835TIP3    H129448   4.793   1.707   7.569
 9835TIP3    H229449   4.902   1.714   7.673
 9836TIP3   OH229450   5.067   1.765   7.131
 9836TIP3    H129451   5.019   1.841   7.093
 9836TIP3    H229452   5.153   1.780   7.087
 9837TIP3   OH229453   5.507   2.007   7.268
 9837TIP3    H129454   5.547   2.009   7.357
 9837TIP3    H229455   5.572   2.060   7.218
 9838TIP3   OH229456   5.688   2.162   7.133
 9838TIP3    H129457   5.760   2.115   7.090
 9838TIP3    H229458   5.738   2.220   7.194
 9839TIP3   OH229459   4.740   2.018   7.163
 9839TIP3    H129460   4.649   2.047   7.139
 9839TIP3    H229461   4.757   2.076   7.239
 9840TIP3   OH229462   4.976   1.998   7.017
 9840TIP3    H129463   4.889   2.011   7.060
 9840TIP3    H229464   4.958   2.033   6.927
 9841TIP3   OH229465   5.402   2.026   6.815
 9841TIP3    H129466   5.334   2.046   6.749
 9841TIP3    H229467   5.415   2.114   6.857
 9842TIP3   OH229468   5.672   1.963   6.866
 9842TIP3    H129469   5.579   1.985   6.847
 9842TIP3    H229470   5.718   2.038   6.823
 9843TIP3   OH229471   5.874   2.156   6.778
 9843TIP3    H129472   5.863   2.242   6.732
 9843TIP3    H229473   5.903   2.098   6.704
 9844TIP3   OH229474   4.651   1.813   6.900
 9844TIP3    H129475   4.676   1.788   6.991
 9844TIP3    H229476   4.725   1.771   6.850
 9845TIP3   OH229477   4.847   1.687   6.761
 9845TIP3    H129478   4.864   1.604   6.811
 9845TIP3    H229479   4.938   1.725   6.757
 9846TIP3   OH229480   5.112   1.780   6.766
 9846TIP3    H129481   5.146   1.690   6.754
 9846TIP3    H229482   5.160   1.805   6.848
 9847TIP3   OH229483   4.440   1.591   6.293
 9847TIP3    H129484   4.354   1.560   6.260
 9847TIP3    H229485   4.433   1.685   6.268
 9848TIP3   OH229486   5.213   1.772   5.877
 9848TIP3    H129487   5.301   1.796   5.840
 9848TIP3    H229488   5.191   1.698   5.816
 9849TIP3   OH229489   5.932   1.896   5.969
 9849TIP3    H129490   5.924   1.798   5.958
 9849TIP3    H229491   5.886   1.927   5.889
 9850TIP3   OH229492   4.515   1.608   5.929
 9850TIP3    H129493   4.519   1.636   6.021
 9850TIP3    H229494   4.603   1.567   5.915
 9851TIP3   OH229495   6.155   2.037   7.154
 9851TIP3    H129496   6.077   2.008   7.104
 9851TIP3    H229497   6.138   2.134   7.160
 9852TIP3   OH229498   7.425   1.410   5.921
 9852TIP3    H129499   7.395   1.501   5.900
 9852TIP3    H229500   7.350   1.360   5.884
 9853TIP3   OH229501   7.412   1.420   6.290
 9853TIP3    H129502   7.435   1.397   6.382
 9853TIP3    H229503   7.373   1.336   6.260
 9854TIP3   OH229504   6.718   1.306   6.670
 9854TIP3    H129505   6.751   1.236   6.730
 9854TIP3    H229506   6.800   1.355   6.653
 9855TIP3   OH229507   7.671   1.716   5.984
 9855TIP3    H129508   7.647   1.649   6.049
 9855TIP3    H229509   7.700   1.791   6.040
 9856TIP3   OH229510   6.695   1.714   6.389
 9856TIP3    H129511   6.687   1.617   6.392
 9856TIP3    H229512   6.792   1.724   6.384
 9857TIP3   OH229513   6.385   0.924   6.195
 9857TIP3    H129514   6.332   1.006   6.200
 9857TIP3    H229515   6.333   0.872   6.132
 9858TIP3   OH229516   6.452   1.214   6.349
 9858TIP3    H129517   6.493   1.131   6.380
 9858TIP3    H229518   6.520   1.249   6.290
 9859TIP3   OH229519   7.320   2.176   6.003
 9859TIP3    H129520   7.361   2.104   5.951
 9859TIP3    H229521   7.309   2.134   6.089
 9860TIP3   OH229522   7.220   1.636   6.352
 9860TIP3    H129523   7.260   1.560   6.307
 9860TIP3    H229524   7.303   1.683   6.377
 9861TIP3   OH229525   7.630   1.139   6.403
 9861TIP3    H129526   7.664   1.050   6.421
 9861TIP3    H229527   7.602   1.133   6.310
 9862TIP3   OH229528   6.960   0.756   6.320
 9862TIP3    H129529   6.932   0.844   6.288
 9862TIP3    H229530   6.884   0.701   6.296
 9863TIP3   OH229531   7.631   0.916   6.024
 9863TIP3    H129532   7.687   0.864   6.085
 9863TIP3    H229533   7.686   0.911   5.944
 9864TIP3   OH229534   6.579   0.995   6.448
 9864TIP3    H129535   6.672   1.002   6.481
 9864TIP3    H229536   6.596   0.937   6.371
 9865TIP3   OH229537   7.040   1.199   6.255
 9865TIP3    H129538   7.135   1.174   6.268
 9865TIP3    H229539   7.002   1.113   6.228
 9866TIP3   OH229540   7.313   1.631   5.790
 9866TIP3    H129541   7.273   1.615   5.704
 9866TIP3    H229542   7.268   1.714   5.817
 9867TIP3   OH229543   7.079   1.555   6.575
 9867TIP3    H129544   7.017   1.622   6.612
 9867TIP3    H229545   7.118   1.602   6.499
 9868TIP3   OH229546   6.837   0.970   6.514
 9868TIP3    H129547   6.909   1.012   6.564
 9868TIP3    H229548   6.861   0.876   6.524
 9869TIP3   OH229549   6.906   1.751   6.673
 9869TIP3    H129550   6.880   1.839   6.637
 9869TIP3    H229551   6.827   1.733   6.728
 9870TIP3   OH229552   6.294   1.442   5.910
 9870TIP3    H129553   6.256   1.470   5.825
 9870TIP3    H229554   6.327   1.527   5.947
 9871TIP3   OH229555   7.737   1.958   6.149
 9871TIP3    H129556   7.648   1.949   6.190
 9871TIP3    H229557   7.728   2.044   6.105
 9872TIP3   OH229558   7.436   2.002   5.822
 9872TIP3    H129559   7.485   1.919   5.803
 9872TIP3    H229560   7.499   2.067   5.783
 9873TIP3   OH229561   7.580   1.787   5.734
 9873TIP3    H129562   7.544   1.707   5.696
 9873TIP3    H229563   7.620   1.753   5.818
 9874TIP3   OH229564   7.938   1.857   6.491
 9874TIP3    H129565   7.940   1.788   6.421
 9874TIP3    H229566   7.944   1.939   6.439
 9875TIP3   OH229567   7.256   1.268   5.751
 9875TIP3    H129568   7.174   1.319   5.730
 9875TIP3    H229569   7.297   1.260   5.663
 9876TIP3   OH229570   7.210   1.047   5.470
 9876TIP3    H129571   7.283   1.098   5.510
 9876TIP3    H229572   7.260   0.977   5.423
 9877TIP3   OH229573   8.187   1.502   6.338
 9877TIP3    H129574   8.095   1.531   6.347
 9877TIP3    H229575   8.206   1.530   6.246
 9878TIP3   OH229576   7.601   1.347   5.720
 9878TIP3    H129577   7.547   1.369   5.799
 9878TIP3    H229578   7.686   1.325   5.763
 9879TIP3   OH229579   7.862   1.370   6.517
 9879TIP3    H129580   7.909   1.438   6.566
 9879TIP3    H229581   7.807   1.422   6.456
 9880TIP3   OH229582   6.834   1.343   6.141
 9880TIP3    H129583   6.794   1.284   6.075
 9880TIP3    H229584   6.910   1.290   6.173
 9881TIP3   OH229585   6.964   1.754   6.289
 9881TIP3    H129586   6.944   1.718   6.201
 9881TIP3    H229587   7.053   1.717   6.306
 9882TIP3   OH229588   6.968   1.311   6.502
 9882TIP3    H129589   6.998   1.282   6.413
 9882TIP3    H229590   7.015   1.396   6.514
 9883TIP3   OH229591   7.497   1.951   6.272
 9883TIP3    H129592   7.485   2.033   6.324
 9883TIP3    H229593   7.479   1.881   6.337
 9884TIP3   OH229594   7.106   1.867   6.820
 9884TIP3    H129595   7.045   1.930   6.864
 9884TIP3    H229596   7.041   1.815   6.768
 9885TIP3   OH229597   7.440   1.202   5.549
 9885TIP3    H129598   7.498   1.264   5.598
 9885TIP3    H229599   7.467   1.222   5.456
 9886TIP3   OH229600   6.859   1.436   6.916
 9886TIP3    H129601   6.862   1.520   6.967
 9886TIP3    H229602   6.765   1.412   6.929
 9887TIP3   OH229603   7.188   1.880   5.826
 9887TIP3    H129604   7.270   1.932   5.835
 9887TIP3    H229605   7.127   1.942   5.784
 9888TIP3   OH229606   6.904   2.035   6.907
 9888TIP3    H129607   6.867   2.039   6.817
 9888TIP3    H229608   6.824   2.014   6.961
 9889TIP3   OH229609   6.700   1.185   5.947
 9889TIP3    H129610   6.632   1.229   5.891
 9889TIP3    H229611   6.665   1.096   5.954
 9890TIP3   OH229612   7.752   1.812   5.148
 9890TIP3    H129613   7.764   1.908   5.133
 9890TIP3    H229614   7.844   1.779   5.137
 9891TIP3   OH229615   6.480   1.571   6.854
 9891TIP3    H129616   6.416   1.548   6.783
 9891TIP3    H229617   6.521   1.484   6.875
 9892TIP3   OH229618   6.336   1.761   6.488
 9892TIP3    H129619   6.432   1.757   6.478
 9892TIP3    H229620   6.326   1.841   6.541
 9893TIP3   OH229621   8.182   2.224   6.532
 9893TIP3    H129622   8.199   2.129   6.544
 9893TIP3    H229623   8.102   2.235   6.587
 9894TIP3   OH229624   7.302   1.994   6.675
 9894TIP3    H129625   7.304   2.087   6.707
 9894TIP3    H229626   7.231   1.958   6.732
 9895TIP3   OH229627   7.070   2.127   5.629
 9895TIP3    H129628   7.022   2.109   5.546
 9895TIP3    H229629   7.036   2.214   5.655
 9896TIP3   OH229630   6.505   1.976   6.015
 9896TIP3    H129631   6.553   1.968   6.100
 9896TIP3    H229632   6.452   1.895   6.016
 9897TIP3   OH229633   7.268   2.030   5.266
 9897TIP3    H129634   7.327   1.960   5.231
 9897TIP3    H229635   7.303   2.040   5.357
 9898TIP3   OH229636   7.320   2.078   5.536
 9898TIP3    H129637   7.232   2.088   5.578
 9898TIP3    H229638   7.371   2.039   5.609
 9899TIP3   OH229639   6.687   1.752   6.837
 9899TIP3    H129640   6.736   1.737   6.921
 9899TIP3    H229641   6.612   1.689   6.846
 9900TIP3   OH229642   7.521   1.244   5.295
 9900TIP3    H129643   7.482   1.223   5.208
 9900TIP3    H229644   7.603   1.291   5.268
 9901TIP3   OH229645   7.035   1.099   6.663
 9901TIP3    H129646   6.972   1.117   6.736
 9901TIP3    H229647   7.020   1.177   6.606
 9902TIP3   OH229648   6.900   0.979   6.167
 9902TIP3    H129649   6.805   0.959   6.176
 9902TIP3    H229650   6.917   0.948   6.074
 9903TIP3   OH229651   7.385   1.069   5.890
 9903TIP3    H129652   7.338   1.140   5.841
 9903TIP3    H229653   7.452   1.040   5.824
 9904TIP3   OH229654   7.530   1.135   6.146
 9904TIP3    H129655   7.472   1.175   6.080
 9904TIP3    H229656   7.555   1.053   6.097
 9905TIP3   OH229657   6.837   1.127   6.856
 9905TIP3    H129658   6.857   1.191   6.926
 9905TIP3    H229659   6.828   1.043   6.905
 9906TIP3   OH229660   6.469   0.737   5.992
 9906TIP3    H129661   6.489   0.736   5.896
 9906TIP3    H229662   6.373   0.752   5.987
 9907TIP3   OH229663   7.502   1.341   6.534
 9907TIP3    H129664   7.544   1.264   6.489
 9907TIP3    H229665   7.564   1.351   6.609
 9908TIP3   OH229666   6.647   0.858   6.210
 9908TIP3    H129667   6.554   0.886   6.194
 9908TIP3    H229668   6.647   0.775   6.160
 9909TIP3   OH229669   6.942   0.878   5.917
 9909TIP3    H129670   7.033   0.860   5.888
 9909TIP3    H229671   6.889   0.864   5.836
 9910TIP3   OH229672   6.775   0.857   5.690
 9910TIP3    H129673   6.701   0.843   5.628
 9910TIP3    H229674   6.836   0.904   5.629
 9911TIP3   OH229675   7.893   2.565   6.639
 9911TIP3    H129676   7.893   2.592   6.545
 9911TIP3    H229677   7.954   2.629   6.679
 9912TIP3   OH229678   6.848   1.677   7.062
 9912TIP3    H129679   6.928   1.708   7.109
 9912TIP3    H229680   6.783   1.676   7.135
 9913TIP3   OH229681   7.297   1.130   6.318
 9913TIP3    H129682   7.382   1.103   6.281
 9913TIP3    H229683   7.305   1.101   6.412
 9914TIP3   OH229684   7.312   1.063   6.583
 9914TIP3    H129685   7.220   1.045   6.610
 9914TIP3    H229686   7.351   1.096   6.666
 9915TIP3   OH229687   7.022   1.415   5.700
 9915TIP3    H129688   6.950   1.350   5.689
 9915TIP3    H229689   7.003   1.449   5.791
 9916TIP3   OH229690   7.936   1.634   6.327
 9916TIP3    H129691   7.961   1.688   6.249
 9916TIP3    H229692   7.849   1.598   6.300
 9917TIP3   OH229693   7.457   0.800   5.522
 9917TIP3    H129694   7.399   0.746   5.579
 9917TIP3    H229695   7.494   0.862   5.588
 9918TIP3   OH229696   7.435   1.745   6.704
 9918TIP3    H129697   7.397   1.703   6.782
 9918TIP3    H229698   7.388   1.831   6.701
 9919TIP3   OH229699   7.560   0.992   5.688
 9919TIP3    H129700   7.658   1.003   5.694
 9919TIP3    H229701   7.535   1.067   5.631
 9920TIP3   OH229702   6.718   1.435   6.376
 9920TIP3    H129703   6.756   1.409   6.289
 9920TIP3    H229704   6.765   1.376   6.436
 9921TIP3   OH229705   7.170   1.565   5.526
 9921TIP3    H129706   7.121   1.650   5.529
 9921TIP3    H229707   7.116   1.510   5.585
 9922TIP3   OH229708   6.600   1.361   6.990
 9922TIP3    H129709   6.634   1.352   7.082
 9922TIP3    H229710   6.532   1.292   6.986
 9923TIP3   OH229711   7.315   1.482   7.011
 9923TIP3    H129712   7.243   1.431   6.969
 9923TIP3    H229713   7.385   1.416   7.010
 9924TIP3   OH229714   7.577   1.993   6.585
 9924TIP3    H129715   7.481   1.985   6.594
 9924TIP3    H229716   7.598   2.042   6.667
 9925TIP3   OH229717   7.991   1.063   5.490
 9925TIP3    H129718   7.930   1.015   5.429
 9925TIP3    H229719   7.980   1.154   5.455
 9926TIP3   OH229720   7.696   1.885   5.414
 9926TIP3    H129721   7.667   1.815   5.474
 9926TIP3    H229722   7.706   1.838   5.329
 9927TIP3   OH229723   7.689   1.507   6.265
 9927TIP3    H129724   7.593   1.488   6.263
 9927TIP3    H229725   7.722   1.434   6.209
 9928TIP3   OH229726   6.820   1.743   6.004
 9928TIP3    H129727   6.818   1.824   5.949
 9928TIP3    H229728   6.726   1.725   6.015
 9929TIP3   OH229729   6.378   1.046   5.708
 9929TIP3    H129730   6.426   1.129   5.728
 9929TIP3    H229731   6.303   1.052   5.771
 9930TIP3   OH229732   6.951   1.506   5.944
 9930TIP3    H129733   6.918   1.595   5.964
 9930TIP3    H229734   6.918   1.455   6.020
 9931TIP3   OH229735   7.088   2.085   6.470
 9931TIP3    H129736   7.130   2.158   6.420
 9931TIP3    H229737   7.165   2.049   6.518
 9932TIP3   OH229738   6.736   1.981   5.854
 9932TIP3    H129739   6.651   1.990   5.901
 9932TIP3    H229740   6.769   2.074   5.857
 9933TIP3   OH229741   7.472   1.718   6.433
 9933TIP3    H129742   7.470   1.718   6.531
 9933TIP3    H229743   7.550   1.664   6.415
 9934TIP3   OH229744   7.452   1.615   5.314
 9934TIP3    H129745   7.505   1.589   5.393
 9934TIP3    H229746   7.364   1.585   5.341
 9935TIP3   OH229747   7.720   2.251   6.480
 9935TIP3    H129748   7.641   2.194   6.471
 9935TIP3    H229749   7.706   2.315   6.406
 9936TIP3   OH229750   7.789   2.088   5.132
 9936TIP3    H129751   7.820   2.162   5.078
 9936TIP3    H229752   7.708   2.128   5.169
 9937TIP3   OH229753   7.612   1.548   5.529
 9937TIP3    H129754   7.602   1.480   5.599
 9937TIP3    H229755   7.709   1.544   5.515
 9938TIP3   OH229756   6.526   1.946   6.629
 9938TIP3    H129757   6.582   1.876   6.667
 9938TIP3    H229758   6.550   2.022   6.684
 9939TIP3   OH229759   6.814   1.593   5.314
 9939TIP3    H129760   6.828   1.500   5.287
 9939TIP3    H229761   6.794   1.582   5.409
 9940TIP3   OH229762   6.759   1.598   5.587
 9940TIP3    H129763   6.834   1.571   5.640
 9940TIP3    H229764   6.763   1.696   5.594
 9941TIP3   OH229765   6.493   1.289   5.790
 9941TIP3    H129766   6.427   1.336   5.846
 9941TIP3    H229767   6.509   1.357   5.722
 9942TIP3   OH229768   7.027   1.794   5.534
 9942TIP3    H129769   6.940   1.819   5.570
 9942TIP3    H229770   7.043   1.868   5.474
 9943TIP3   OH229771   7.228   0.846   5.909
 9943TIP3    H129772   7.279   0.931   5.907
 9943TIP3    H229773   7.240   0.820   6.001
 9944TIP3   OH229774   7.484   1.157   6.803
 9944TIP3    H129775   7.546   1.229   6.780
 9944TIP3    H229776   7.535   1.081   6.772
 9945TIP3   OH229777   6.773   1.870   5.603
 9945TIP3    H129778   6.742   1.940   5.541
 9945TIP3    H229779   6.756   1.913   5.690
 9946TIP3   OH229780   7.772   1.280   6.123
 9946TIP3    H129781   7.693   1.226   6.142
 9946TIP3    H229782   7.843   1.234   6.172
 9947TIP3   OH229783   6.490   1.496   5.593
 9947TIP3    H129784   6.560   1.563   5.603
 9947TIP3    H229785   6.533   1.438   5.527
 9948TIP3   OH229786   6.433   0.776   5.719
 9948TIP3    H129787   6.425   0.873   5.709
 9948TIP3    H229788   6.345   0.745   5.693
 9949TIP3   OH229789   7.744   2.229   6.072
 9949TIP3    H129790   7.701   2.276   5.997
 9949TIP3    H229791   7.838   2.249   6.052
 9950TIP3   OH229792   6.355   1.710   5.977
 9950TIP3    H129793   6.292   1.743   6.043
 9950TIP3    H229794   6.324   1.755   5.895
 9951TIP3   OH229795   6.519   2.261   7.053
 9951TIP3    H129796   6.605   2.263   7.101
 9951TIP3    H229797   6.501   2.165   7.052
 9952TIP3   OH229798   6.992   2.220   7.096
 9952TIP3    H129799   7.088   2.207   7.104
 9952TIP3    H229800   6.970   2.158   7.025
 9953TIP3   OH229801   6.978   1.794   5.223
 9953TIP3    H129802   6.923   1.723   5.262
 9953TIP3    H229803   7.054   1.743   5.191
 9954TIP3   OH229804   7.600   2.117   6.829
 9954TIP3    H129805   7.596   2.048   6.900
 9954TIP3    H229806   7.682   2.166   6.853
 9955TIP3   OH229807   7.414   1.834   5.138
 9955TIP3    H129808   7.455   1.769   5.198
 9955TIP3    H229809   7.472   1.830   5.059
 9956TIP3   OH229810   6.646   1.667   7.251
 9956TIP3    H129811   6.660   1.573   7.269
 9956TIP3    H229812   6.559   1.666   7.205
 9957TIP3   OH229813   6.625   1.309   5.449
 9957TIP3    H129814   6.682   1.279   5.522
 9957TIP3    H229815   6.691   1.315   5.377
 9958TIP3   OH229816   7.264   1.755   7.010
 9958TIP3    H129817   7.205   1.779   6.935
 9958TIP3    H229818   7.275   1.658   7.000
 9959TIP3   OH229819   7.139   1.514   5.256
 9959TIP3    H129820   7.140   1.525   5.353
 9959TIP3    H229821   7.142   1.416   5.249
 9960TIP3   OH229822   7.748   1.760   6.659
 9960TIP3    H129823   7.818   1.797   6.600
 9960TIP3    H229824   7.672   1.813   6.632
 9961TIP3   OH229825   6.771   1.385   7.217
 9961TIP3    H129826   6.855   1.336   7.211
 9961TIP3    H229827   6.774   1.411   7.311
 9962TIP3   OH229828   6.827   1.219   5.667
 9962TIP3    H129829   6.809   1.178   5.753
 9962TIP3    H229830   6.867   1.144   5.617
 9963TIP3   OH229831   7.107   1.321   6.895
 9963TIP3    H129832   7.020   1.368   6.888
 9963TIP3    H229833   7.152   1.348   6.812
 9964TIP3   OH229834   6.931   1.012   5.515
 9964TIP3    H129835   6.906   1.017   5.421
 9964TIP3    H229836   7.029   1.013   5.508
 9965TIP3   OH229837   7.752   1.338   5.174
 9965TIP3    H129838   7.734   1.296   5.087
 9965TIP3    H229839   7.719   1.429   5.154
 9966TIP3   OH229840   7.181   1.082   7.000
 9966TIP3    H129841   7.156   1.020   6.928
 9966TIP3    H229842   7.173   1.168   6.953
 9967TIP3   OH229843   7.274   1.406   6.699
 9967TIP3    H129844   7.345   1.383   6.636
 9967TIP3    H229845   7.217   1.466   6.646
 9968TIP3   OH229846   7.035   1.207   7.198
 9968TIP3    H129847   6.974   1.134   7.207
 9968TIP3    H229848   7.087   1.181   7.119
 9969TIP3   OH229849   6.742   2.074   5.415
 9969TIP3    H129850   6.837   2.065   5.396
 9969TIP3    H229851   6.714   2.125   5.337
 9970TIP3   OH229852   6.221   1.455   5.630
 9970TIP3    H129853   6.315   1.476   5.615
 9970TIP3    H229854   6.215   1.366   5.588
 9971TIP3   OH229855   6.138   2.066   6.046
 9971TIP3    H129856   6.071   2.005   6.007
 9971TIP3    H229857   6.181   2.007   6.110
 9972TIP3   OH229858   6.272   1.912   6.231
 9972TIP3    H129859   6.259   1.843   6.298
 9972TIP3    H229860   6.324   1.977   6.283
 9973TIP3   OH229861   7.999   2.315   6.033
 9973TIP3    H129862   8.027   2.351   6.119
 9973TIP3    H229863   8.066   2.351   5.973
 9974TIP3   OH229864   8.026   2.341   6.315
 9974TIP3    H129865   7.982   2.253   6.307
 9974TIP3    H229866   8.099   2.316   6.374
 9975TIP3   OH229867   7.890   1.530   5.501
 9975TIP3    H129868   7.958   1.595   5.472
 9975TIP3    H229869   7.931   1.495   5.583
 9976TIP3   OH229870   8.010   1.412   5.713
 9976TIP3    H129871   7.942   1.363   5.766
 9976TIP3    H229872   8.069   1.445   5.782
 9977TIP3   OH229873   8.069   1.791   6.141
 9977TIP3    H129874   8.120   1.723   6.092
 9977TIP3    H229875   8.064   1.864   6.076
 9978TIP3   OH229876   7.905   2.091   6.333
 9978TIP3    H129877   7.832   2.126   6.386
 9978TIP3    H229878   7.857   2.042   6.262
 9979TIP3   OH229879   7.949   1.302   5.357
 9979TIP3    H129880   7.880   1.309   5.287
 9979TIP3    H229881   7.924   1.380   5.411
 9980TIP3   OH229882   7.818   0.964   5.299
 9980TIP3    H129883   7.799   1.038   5.241
 9980TIP3    H229884   7.773   0.891   5.253
 9981TIP3   OH229885   7.830   1.265   5.852
 9981TIP3    H129886   7.832   1.171   5.826
 9981TIP3    H229887   7.815   1.262   5.949
 9982TIP3   OH229888   6.455   1.324   6.605
 9982TIP3    H129889   6.454   1.294   6.512
 9982TIP3    H229890   6.553   1.326   6.621
 9983TIP3   OH229891   7.833   1.017   5.723
 9983TIP3    H129892   7.859   0.938   5.775
 9983TIP3    H229893   7.897   1.016   5.649
 9984TIP3   OH229894   7.984   1.164   6.253
 9984TIP3    H129895   8.077   1.159   6.226
 9984TIP3    H229896   7.990   1.185   6.347
 9985TIP3   OH229897   6.662   1.003   7.262
 9985TIP3    H129898   6.756   1.013   7.282
 9985TIP3    H229899   6.640   0.922   7.311
 9986TIP3   OH229900   6.427   0.973   6.679
 9986TIP3    H129901   6.476   0.974   6.594
 9986TIP3    H229902   6.457   1.056   6.718
 9987TIP3   OH229903   7.582   2.185   5.688
 9987TIP3    H129904   7.634   2.174   5.606
 9987TIP3    H229905   7.634   2.251   5.736
 9988TIP3   OH229906   6.684   1.990   7.072
 9988TIP3    H129907   6.591   1.965   7.059
 9988TIP3    H229908   6.697   1.972   7.166
 9989TIP3   OH229909   6.863   2.023   6.620
 9989TIP3    H129910   6.814   2.099   6.581
 9989TIP3    H229911   6.948   2.037   6.575
 9990TIP3   OH229912   7.300   2.263   6.752
 9990TIP3    H129913   7.339   2.266   6.842
 9990TIP3    H229914   7.366   2.314   6.701
 9991TIP3   OH229915   7.479   2.416   6.614
 9991TIP3    H129916   7.550   2.366   6.570
 9991TIP3    H229917   7.531   2.478   6.669
 9992TIP3   OH229918   6.537   2.277   6.648
 9992TIP3    H129919   6.446   2.307   6.625
 9992TIP3    H229920   6.552   2.329   6.728
 9993TIP3   OH229921   6.773   2.257   6.504
 9993TIP3    H129922   6.685   2.269   6.547
 9993TIP3    H229923   6.754   2.290   6.414
 9994TIP3   OH229924   7.199   2.284   6.301
 9994TIP3    H129925   7.129   2.302   6.236
 9994TIP3    H229926   7.210   2.372   6.343
 9995TIP3   OH229927   7.468   2.222   6.352
 9995TIP3    H129928   7.374   2.240   6.334
 9995TIP3    H229929   7.512   2.296   6.308
 9996TIP3   OH229930   7.675   2.414   6.266
 9996TIP3    H129931   7.661   2.499   6.218
 9996TIP3    H229932   7.701   2.354   6.193
 9997TIP3   OH229933   6.448   2.070   6.387
 9997TIP3    H129934   6.474   2.044   6.478
 9997TIP3    H229935   6.521   2.027   6.337
 9998TIP3   OH229936   6.644   1.943   6.248
 9998TIP3    H129937   6.659   1.859   6.297
 9998TIP3    H229938   6.735   1.980   6.244
 9999TIP3   OH229939   6.910   2.036   6.252
 9999TIP3    H129940   6.941   1.944   6.241
 9999TIP3    H229941   6.957   2.059   6.335
10000TIP3   OH229942   6.236   1.848   5.778
10000TIP3    H129943   6.150   1.815   5.746
10000TIP3    H229944   6.228   1.942   5.755
10001TIP3   OH229945   7.009   2.029   5.362
10001TIP3    H129946   7.097   2.052   5.326
10001TIP3    H229947   6.987   1.954   5.302
10002TIP3   OH229948   7.729   2.152   5.456
10002TIP3    H129949   7.721   2.054   5.446
10002TIP3    H229950   7.682   2.182   5.376
10003TIP3   OH229951   6.312   1.866   5.416
10003TIP3    H129952   6.316   1.889   5.510
10003TIP3    H229953   6.400   1.824   5.401
10004TIP3   OH229954   7.937   2.294   6.644
10004TIP3    H129955   7.865   2.268   6.583
10004TIP3    H229956   7.926   2.392   6.643
10005TIP3   OH229957   8.474   1.954   5.931
10005TIP3    H129958   8.432   1.887   5.877
10005TIP3    H229959   8.564   1.956   5.891
10006TIP3   OH229960   8.197   1.207   5.698
10006TIP3    H129961   8.122   1.266   5.679
10006TIP3    H229962   8.179   1.132   5.639
10007TIP3   OH229963   8.277   1.456   5.834
10007TIP3    H129964   8.280   1.360   5.818
10007TIP3    H229965   8.315   1.491   5.752
10008TIP3   OH229966   8.094   1.695   5.396
10008TIP3    H129967   8.048   1.725   5.316
10008TIP3    H229968   8.120   1.782   5.436
10009TIP3   OH229969   8.295   1.804   6.304
10009TIP3    H129970   8.220   1.815   6.243
10009TIP3    H229971   8.252   1.767   6.380
10010TIP3   OH229972   8.134   2.020   5.974
10010TIP3    H129973   8.231   2.027   5.971
10010TIP3    H229974   8.112   2.099   6.026
10011TIP3   OH229975   8.271   2.227   5.495
10011TIP3    H129976   8.354   2.239   5.544
10011TIP3    H229977   8.235   2.148   5.538
10012TIP3   OH229978   8.260   0.995   5.469
10012TIP3    H129979   8.274   1.000   5.373
10012TIP3    H229980   8.163   1.005   5.474
10013TIP3   OH229981   8.175   1.294   5.197
10013TIP3    H129982   8.223   1.377   5.217
10013TIP3    H229983   8.099   1.302   5.258
10014TIP3   OH229984   8.315   2.208   6.115
10014TIP3    H129985   8.372   2.137   6.148
10014TIP3    H229986   8.346   2.284   6.166
10015TIP3   OH229987   8.280   1.543   5.262
10015TIP3    H129988   8.215   1.585   5.322
10015TIP3    H229989   8.278   1.604   5.186
10016TIP3   OH229990   8.274   1.737   5.069
10016TIP3    H129991   8.348   1.794   5.096
10016TIP3    H229992   8.294   1.728   4.972
10017TIP3   OH229993   8.236   1.027   5.192
10017TIP3    H129994   8.223   1.124   5.192
10017TIP3    H229995   8.146   0.995   5.176
10018TIP3   OH229996   8.135   1.954   5.467
10018TIP3    H129997   8.074   1.998   5.528
10018TIP3    H229998   8.123   2.008   5.386
10019TIP3   OH229999   8.274   2.479   6.513
10019TIP3    H130000   8.362   2.478   6.554
10019TIP3    H230001   8.248   2.385   6.518
10020TIP3   OH230002   8.006   1.707   5.117
10020TIP3    H130003   8.101   1.724   5.100
10020TIP3    H230004   7.996   1.617   5.078
10021TIP3   OH230005   7.933   2.324   5.533
10021TIP3    H130006   7.866   2.262   5.496
10021TIP3    H230007   7.980   2.264   5.595
10022TIP3   OH230008   8.067   2.167   5.717
10022TIP3    H130009   8.056   2.099   5.786
10022TIP3    H230010   8.120   2.232   5.765
10023TIP3   OH230011   8.250   1.589   6.075
10023TIP3    H130012   8.254   1.540   5.989
10023TIP3    H230013   8.343   1.609   6.090
10024TIP3   OH230014   8.326   2.528   6.139
10024TIP3    H130015   8.243   2.566   6.103
10024TIP3    H230016   8.320   2.560   6.230
10025TIP3   OH230017   8.590   2.514   6.010
10025TIP3    H130018   8.499   2.518   6.045
10025TIP3    H230019   8.575   2.547   5.919
10026TIP3   OH230020   8.237   2.331   5.876
10026TIP3    H130021   8.267   2.306   5.966
10026TIP3    H230022   8.309   2.289   5.824
10027TIP3   OH230023   8.425   2.195   5.736
10027TIP3    H130024   8.433   2.099   5.751
10027TIP3    H230025   8.515   2.215   5.704
10028TIP3   OH230026   8.040   2.099   5.254
10028TIP3    H130027   7.950   2.072   5.226
10028TIP3    H230028   8.032   2.195   5.249
10029TIP3   OH230029   8.111   2.134   4.919
10029TIP3    H130030   8.076   2.164   5.004
10029TIP3    H230031   8.177   2.069   4.946
10030TIP3   OH230032   1.674   2.454   7.095
10030TIP3    H130033   1.644   2.546   7.077
10030TIP3    H230034   1.597   2.405   7.063
10031TIP3   OH230035   1.654   2.464   7.464
10031TIP3    H130036   1.706   2.445   7.545
10031TIP3    H230037   1.617   2.378   7.442
10032TIP3   OH230038   1.918   2.757   7.163
10032TIP3    H130039   1.902   2.690   7.231
10032TIP3    H230040   1.949   2.832   7.216
10033TIP3   OH230041   0.949   2.766   7.568
10033TIP3    H130042   0.934   2.669   7.567
10033TIP3    H230043   1.046   2.769   7.560
10034TIP3   OH230044   0.692   2.235   7.504
10034TIP3    H130045   0.750   2.189   7.566
10034TIP3    H230046   0.754   2.289   7.454
10035TIP3   OH230047   1.568   3.221   7.179
10035TIP3    H130048   1.610   3.150   7.126
10035TIP3    H230049   1.557   3.177   7.264
10036TIP3   OH230050   1.471   2.681   7.514
10036TIP3    H130051   1.513   2.602   7.475
10036TIP3    H230052   1.551   2.724   7.549
10037TIP3   OH230053   2.478   2.002   7.515
10037TIP3    H130054   2.496   2.083   7.567
10037TIP3    H230055   2.501   2.031   7.425
10038TIP3   OH230056   1.869   2.159   7.562
10038TIP3    H130057   1.924   2.081   7.580
10038TIP3    H230058   1.850   2.149   7.467
10039TIP3   OH230059   1.253   1.843   7.523
10039TIP3    H130060   1.207   1.921   7.485
10039TIP3    H230061   1.191   1.772   7.501
10040TIP3   OH230062   1.918   1.934   7.145
10040TIP3    H130063   1.989   1.921   7.212
10040TIP3    H230064   1.970   1.968   7.070
10041TIP3   OH230065   1.296   2.242   7.431
10041TIP3    H130066   1.391   2.218   7.437
10041TIP3    H230067   1.257   2.160   7.394
10042TIP3   OH230068   2.541   2.196   7.698
10042TIP3    H130069   2.454   2.241   7.693
10042TIP3    H230070   2.592   2.258   7.754
10043TIP3   OH230071   1.561   2.675   6.966
10043TIP3    H130072   1.521   2.661   6.879
10043TIP3    H230073   1.516   2.757   6.995
10044TIP3   OH230074   2.121   1.941   7.325
10044TIP3    H130075   2.123   1.888   7.406
10044TIP3    H230076   2.176   2.017   7.349
10045TIP3   OH230077   0.561   2.481   7.086
10045TIP3    H130078   0.508   2.503   7.007
10045TIP3    H230079   0.577   2.567   7.126
10046TIP3   OH230080   1.987   3.003   7.325
10046TIP3    H130081   1.897   2.993   7.365
10046TIP3    H230082   1.978   3.089   7.280
10047TIP3   OH230083   2.277   1.894   7.701
10047TIP3    H130084   2.189   1.915   7.668
10047TIP3    H230085   2.335   1.927   7.630
10048TIP3   OH230086   1.685   3.047   6.999
10048TIP3    H130087   1.734   2.964   6.980
10048TIP3    H230088   1.748   3.112   6.960
10049TIP3   OH230089   1.828   2.831   6.913
10049TIP3    H130090   1.793   2.752   6.872
10049TIP3    H230091   1.866   2.796   6.996
10050TIP3   OH230092   2.208   2.911   7.671
10050TIP3    H130093   2.197   2.834   7.611
10050TIP3    H230094   2.189   2.986   7.610
10051TIP3   OH230095   1.503   2.306   6.931
10051TIP3    H130096   1.423   2.359   6.912
10051TIP3    H230097   1.547   2.305   6.844
10052TIP3   OH230098   1.462   2.093   6.643
10052TIP3    H130099   1.528   2.146   6.691
10052TIP3    H230100   1.521   2.030   6.596
10053TIP3   OH230101   2.405   2.548   7.519
10053TIP3    H130102   2.323   2.601   7.524
10053TIP3    H230103   2.437   2.575   7.429
10054TIP3   OH230104   1.852   2.389   6.898
10054TIP3    H130105   1.796   2.414   6.976
10054TIP3    H230106   1.936   2.367   6.943
10055TIP3   OH230107   2.076   2.457   7.786
10055TIP3    H130108   2.071   2.553   7.800
10055TIP3    H230109   1.995   2.444   7.733
10056TIP3   OH230110   1.084   2.388   7.316
10056TIP3    H130111   1.044   2.328   7.249
10056TIP3    H230112   1.159   2.335   7.349
10057TIP3   OH230113   1.218   2.802   7.463
10057TIP3    H130114   1.197   2.763   7.377
10057TIP3    H230115   1.305   2.761   7.483
10058TIP3   OH230116   1.203   2.378   7.654
10058TIP3    H130117   1.236   2.320   7.583
10058TIP3    H230118   1.276   2.440   7.664
10059TIP3   OH230119   1.747   2.993   7.448
10059TIP3    H130120   1.729   3.077   7.493
10059TIP3    H230121   1.723   2.925   7.514
10060TIP3   OH230122   1.690   2.247   6.727
10060TIP3    H130123   1.749   2.308   6.776
10060TIP3    H230124   1.717   2.268   6.633
10061TIP3   OH230125   1.436   2.925   7.003
10061TIP3    H130126   1.518   2.977   7.011
10061TIP3    H230127   1.376   2.985   6.958
10062TIP3   OH230128   2.206   1.486   6.776
10062TIP3    H130129   2.125   1.508   6.826
10062TIP3    H230130   2.222   1.568   6.727
10063TIP3   OH230131   0.953   2.231   7.119
10063TIP3    H130132   0.884   2.272   7.063
10063TIP3    H230133   0.914   2.145   7.138
10064TIP3   OH230134   2.007   2.854   6.326
10064TIP3    H130135   2.015   2.951   6.309
10064TIP3    H230136   2.100   2.825   6.313
10065TIP3   OH230137   2.446   3.261   7.719
10065TIP3    H130138   2.446   3.164   7.729
10065TIP3    H230139   2.361   3.282   7.764
10066TIP3   OH230140   1.576   3.058   7.874
10066TIP3    H130141   1.516   3.132   7.888
10066TIP3    H230142   1.512   2.983   7.868
10067TIP3   OH230143   1.318   3.170   6.806
10067TIP3    H130144   1.272   3.152   6.722
10067TIP3    H230145   1.284   3.258   6.830
10068TIP3   OH230146   0.753   3.022   7.190
10068TIP3    H130147   0.803   3.013   7.275
10068TIP3    H230148   0.706   2.936   7.188
10069TIP3   OH230149   1.517   3.075   6.444
10069TIP3    H130150   1.575   3.005   6.407
10069TIP3    H230151   1.552   3.085   6.534
10070TIP3   OH230152   1.569   3.123   6.714
10070TIP3    H130153   1.480   3.132   6.755
10070TIP3    H230154   1.619   3.083   6.786
10071TIP3   OH230155   1.768   2.288   6.472
10071TIP3    H130156   1.731   2.268   6.384
10071TIP3    H230157   1.850   2.336   6.447
10072TIP3   OH230158   1.483   1.664   6.770
10072TIP3    H130159   1.449   1.659   6.862
10072TIP3    H230160   1.436   1.588   6.730
10073TIP3   OH230161   1.164   2.028   7.329
10073TIP3    H130162   1.074   1.991   7.346
10073TIP3    H230163   1.179   1.989   7.240
10074TIP3   OH230164   1.642   2.109   7.064
10074TIP3    H130165   1.590   2.180   7.021
10074TIP3    H230166   1.695   2.075   6.989
10075TIP3   OH230167   1.796   2.134   7.298
10075TIP3    H130168   1.736   2.166   7.227
10075TIP3    H230169   1.830   2.054   7.251
10076TIP3   OH230170   1.146   1.635   6.750
10076TIP3    H130171   1.118   1.626   6.843
10076TIP3    H230172   1.072   1.689   6.715
10077TIP3   OH230173   1.821   2.404   7.672
10077TIP3    H130174   1.839   2.311   7.646
10077TIP3    H230175   1.786   2.396   7.763
10078TIP3   OH230176   1.490   1.837   7.390
10078TIP3    H130177   1.402   1.842   7.434
10078TIP3    H230178   1.548   1.860   7.465
10079TIP3   OH230179   0.945   1.881   7.378
10079TIP3    H130180   0.853   1.896   7.409
10079TIP3    H230181   0.958   1.787   7.394
10080TIP3   OH230182   1.185   1.899   7.089
10080TIP3    H130183   1.277   1.917   7.061
10080TIP3    H230184   1.131   1.922   7.010
10081TIP3   OH230185   1.973   1.908   7.621
10081TIP3    H130186   1.938   1.920   7.711
10081TIP3    H230187   1.902   1.855   7.579
10082TIP3   OH230188   1.022   1.935   6.876
10082TIP3    H130189   0.949   1.886   6.835
10082TIP3    H230190   1.072   1.962   6.797
10083TIP3   OH230191   2.155   3.605   7.801
10083TIP3    H130192   2.155   3.623   7.705
10083TIP3    H230193   2.235   3.654   7.829
10084TIP3   OH230194   1.566   2.174   7.475
10084TIP3    H130195   1.640   2.143   7.420
10084TIP3    H230196   1.593   2.148   7.564
10085TIP3   OH230197   1.110   1.635   7.399
10085TIP3    H130198   1.046   1.585   7.346
10085TIP3    H230199   1.185   1.641   7.337
10086TIP3   OH230200   1.273   2.457   6.878
10086TIP3    H130201   1.200   2.393   6.866
10086TIP3    H230202   1.253   2.492   6.968
10087TIP3   OH230203   2.174   2.696   7.504
10087TIP3    H130204   2.199   2.747   7.425
10087TIP3    H230205   2.089   2.656   7.477
10088TIP3   OH230206   1.733   1.768   6.747
10088TIP3    H130207   1.636   1.750   6.752
10088TIP3    H230208   1.739   1.864   6.769
10089TIP3   OH230209   1.799   2.020   6.847
10089TIP3    H130210   1.895   2.028   6.861
10089TIP3    H230211   1.778   2.101   6.795
10090TIP3   OH230212   0.968   2.489   7.549
10090TIP3    H130213   1.003   2.459   7.462
10090TIP3    H230214   1.033   2.447   7.608
10091TIP3   OH230215   1.420   2.609   6.704
10091TIP3    H130216   1.371   2.694   6.706
10091TIP3    H230217   1.365   2.554   6.764
10092TIP3   OH230218   1.840   3.023   7.798
10092TIP3    H130219   1.744   3.035   7.810
10092TIP3    H230220   1.875   3.086   7.862
10093TIP3   OH230221   2.240   2.113   6.681
10093TIP3    H130222   2.179   2.069   6.617
10093TIP3    H230223   2.236   2.203   6.641
10094TIP3   OH230224   2.453   2.972   7.761
10094TIP3    H130225   2.356   2.962   7.747
10094TIP3    H230226   2.483   2.938   7.673
10095TIP3   OH230227   1.944   2.929   6.590
10095TIP3    H130228   1.916   2.857   6.648
10095TIP3    H230229   1.957   2.884   6.504
10096TIP3   OH230230   1.940   2.566   7.414
10096TIP3    H130231   1.848   2.538   7.433
10096TIP3    H230232   1.974   2.484   7.372
10097TIP3   OH230233   1.069   2.788   7.179
10097TIP3    H130234   1.065   2.868   7.124
10097TIP3    H230235   0.975   2.768   7.189
10098TIP3   OH230236   0.611   2.094   6.904
10098TIP3    H130237   0.678   2.165   6.903
10098TIP3    H230238   0.555   2.128   6.975
10099TIP3   OH230239   1.200   2.550   7.120
10099TIP3    H130240   1.169   2.640   7.141
10099TIP3    H230241   1.166   2.500   7.196
10100TIP3   OH230242   1.333   3.132   7.630
10100TIP3    H130243   1.377   3.209   7.588
10100TIP3    H230244   1.409   3.080   7.660
10101TIP3   OH230245   0.985   3.027   7.031
10101TIP3    H130246   0.899   3.038   7.077
10101TIP3    H230247   1.018   3.119   7.033
10102TIP3   OH230248   1.726   2.762   7.612
10102TIP3    H130249   1.759   2.764   7.703
10102TIP3    H230250   1.800   2.719   7.568
10103TIP3   OH230251   1.701   2.658   6.490
10103TIP3    H130252   1.753   2.633   6.570
10103TIP3    H230253   1.612   2.631   6.517
10104TIP3   OH230254   1.962   3.296   7.655
10104TIP3    H130255   1.880   3.246   7.636
10104TIP3    H230256   1.958   3.364   7.584
10105TIP3   OH230257   2.037   3.129   6.309
10105TIP3    H130258   2.073   3.201   6.254
10105TIP3    H230259   1.958   3.175   6.343
10106TIP3   OH230260   1.861   2.592   6.707
10106TIP3    H130261   1.851   2.525   6.777
10106TIP3    H230262   1.958   2.588   6.693
10107TIP3   OH230263   1.064   2.637   6.491
10107TIP3    H130264   1.077   2.545   6.463
10107TIP3    H230265   1.044   2.626   6.586
10108TIP3   OH230266   1.008   2.643   6.764
10108TIP3    H130267   1.083   2.617   6.818
10108TIP3    H230268   1.012   2.741   6.770
10109TIP3   OH230269   0.748   2.329   6.959
10109TIP3    H130270   0.683   2.375   7.017
10109TIP3    H230271   0.763   2.400   6.893
10110TIP3   OH230272   1.779   1.719   7.026
10110TIP3    H130273   1.762   1.740   6.932
10110TIP3    H230274   1.817   1.804   7.059
10111TIP3   OH230275   1.276   2.838   6.711
10111TIP3    H130276   1.189   2.864   6.747
10111TIP3    H230277   1.291   2.909   6.647
10112TIP3   OH230278   1.467   1.905   7.123
10112TIP3    H130279   1.529   1.980   7.107
10112TIP3    H230280   1.470   1.899   7.221
10113TIP3   OH230281   1.612   1.634   7.232
10113TIP3    H130282   1.588   1.717   7.278
10113TIP3    H230283   1.674   1.668   7.163
10114TIP3   OH230284   1.021   2.915   6.780
10114TIP3    H130285   0.992   2.984   6.717
10114TIP3    H230286   1.005   2.958   6.866
10115TIP3   OH230287   1.134   1.636   7.034
10115TIP3    H130288   1.144   1.732   7.053
10115TIP3    H230289   1.229   1.612   7.028
10116TIP3   OH230290   2.023   2.315   7.303
10116TIP3    H130291   1.947   2.255   7.312
10116TIP3    H230292   2.095   2.268   7.350
10117TIP3   OH230293   0.742   2.542   6.768
10117TIP3    H130294   0.813   2.609   6.777
10117TIP3    H230295   0.785   2.484   6.701
10118TIP3   OH230296   0.730   1.854   6.817
10118TIP3    H130297   0.712   1.936   6.865
10118TIP3    H230298   0.670   1.793   6.863
10119TIP3   OH230299   1.993   3.274   7.249
10119TIP3    H130300   1.950   3.322   7.175
10119TIP3    H230301   2.087   3.293   7.228
10120TIP3   OH230302   0.609   2.773   7.161
10120TIP3    H130303   0.527   2.798   7.204
10120TIP3    H230304   0.589   2.804   7.070
10121TIP3   OH230305   1.228   2.841   6.402
10121TIP3    H130306   1.174   2.766   6.438
10121TIP3    H230307   1.303   2.792   6.362
10122TIP3   OH230308   1.663   2.880   6.314
10122TIP3    H130309   1.707   2.815   6.373
10122TIP3    H230310   1.718   2.877   6.233
10123TIP3   OH230311   0.873   2.353   6.625
10123TIP3    H130312   0.932   2.324   6.698
10123TIP3    H230313   0.939   2.359   6.552
10124TIP3   OH230314   1.389   2.556   6.434
10124TIP3    H130315   1.390   2.568   6.531
10124TIP3    H230316   1.388   2.458   6.427
10125TIP3   OH230317   1.980   2.782   7.774
10125TIP3    H130318   2.072   2.812   7.760
10125TIP3    H230319   1.935   2.868   7.784
10126TIP3   OH230320   1.077   2.263   6.843
10126TIP3    H130321   1.052   2.223   6.928
10126TIP3    H230322   1.115   2.186   6.795
10127TIP3   OH230323   1.182   2.057   6.686
10127TIP3    H130324   1.156   2.063   6.592
10127TIP3    H230325   1.280   2.060   6.677
10128TIP3   OH230326   2.002   2.383   6.352
10128TIP3    H130327   1.981   2.341   6.267
10128TIP3    H230328   1.970   2.474   6.332
10129TIP3   OH230329   0.991   3.118   6.594
10129TIP3    H130330   1.086   3.110   6.573
10129TIP3    H230331   0.962   3.168   6.515
10130TIP3   OH230332   0.479   2.488   6.812
10130TIP3    H130333   0.572   2.514   6.795
10130TIP3    H230334   0.473   2.403   6.765
10131TIP3   OH230335   0.364   3.113   7.226
10131TIP3    H130336   0.324   3.045   7.171
10131TIP3    H230337   0.410   3.061   7.294
10132TIP3   OH230338   0.506   2.971   7.410
10132TIP3    H130339   0.532   2.886   7.447
10132TIP3    H230340   0.562   3.032   7.462
10133TIP3   OH230341   2.248   3.363   7.210
10133TIP3    H130342   2.278   3.397   7.295
10133TIP3    H230343   2.313   3.399   7.148
10134TIP3   OH230344   2.275   3.383   7.494
10134TIP3    H130345   2.231   3.295   7.486
10134TIP3    H230346   2.352   3.357   7.548
10135TIP3   OH230347   2.139   2.571   6.682
10135TIP3    H130348   2.205   2.637   6.651
10135TIP3    H230349   2.186   2.534   6.761
10136TIP3   OH230350   2.268   2.438   6.886
10136TIP3    H130351   2.201   2.398   6.945
10136TIP3    H230352   2.333   2.475   6.949
10137TIP3   OH230353   2.325   2.835   7.319
10137TIP3    H130354   2.375   2.766   7.271
10137TIP3    H230355   2.321   2.908   7.254
10138TIP3   OH230356   2.149   3.133   7.512
10138TIP3    H130357   2.074   3.172   7.560
10138TIP3    H230358   2.105   3.086   7.438
10139TIP3   OH230359   2.204   2.347   6.533
10139TIP3    H130360   2.133   2.349   6.465
10139TIP3    H230361   2.176   2.423   6.587
10140TIP3   OH230362   2.077   2.018   6.485
10140TIP3    H130363   2.030   2.059   6.412
10140TIP3    H230364   2.052   1.924   6.474
10141TIP3   OH230365   2.079   2.299   7.033
10141TIP3    H130366   2.087   2.203   7.025
10141TIP3    H230367   2.065   2.311   7.129
10142TIP3   OH230368   2.344   2.696   7.870
10142TIP3    H130369   2.434   2.665   7.890
10142TIP3    H230370   2.358   2.786   7.839
10143TIP3   OH230371   2.547   2.521   7.923
10143TIP3    H130372   2.465   2.471   7.933
10143TIP3    H230373   2.611   2.452   7.897
10144TIP3   OH230374   2.019   1.751   6.467
10144TIP3    H130375   2.090   1.721   6.528
10144TIP3    H230376   1.943   1.696   6.491
10145TIP3   OH230377   2.078   2.014   6.926
10145TIP3    H130378   2.119   1.925   6.939
10145TIP3    H230379   2.135   2.048   6.855
10146TIP3   OH230380   2.236   2.187   7.426
10146TIP3    H130381   2.322   2.211   7.385
10146TIP3    H230382   2.250   2.224   7.515
10147TIP3   OH230383   2.305   2.335   7.664
10147TIP3    H130384   2.228   2.374   7.711
10147TIP3    H230385   2.337   2.413   7.614
10148TIP3   OH230386   2.186   1.763   6.964
10148TIP3    H130387   2.234   1.746   7.048
10148TIP3    H230388   2.124   1.687   6.963
10149TIP3   OH230389   2.264   1.694   6.601
10149TIP3    H130390   2.304   1.626   6.544
10149TIP3    H230391   2.329   1.767   6.597
10150TIP3   OH230392   1.832   3.231   6.866
10150TIP3    H130393   1.880   3.217   6.782
10150TIP3    H230394   1.887   3.298   6.909
10151TIP3   OH230395   1.091   3.077   7.785
10151TIP3    H130396   1.077   3.164   7.744
10151TIP3    H230397   1.186   3.066   7.766
10152TIP3   OH230398   1.726   3.464   7.758
10152TIP3    H130399   1.806   3.413   7.739
10152TIP3    H230400   1.740   3.490   7.850
10153TIP3   OH230401   1.013   3.314   7.672
10153TIP3    H130402   0.936   3.355   7.713
10153TIP3    H230403   1.000   3.336   7.578
10154TIP3   OH230404   1.451   3.330   7.473
10154TIP3    H130405   1.379   3.344   7.408
10154TIP3    H230406   1.460   3.421   7.510
10155TIP3   OH230407   1.717   3.260   7.523
10155TIP3    H130408   1.623   3.283   7.507
10155TIP3    H230409   1.761   3.338   7.486
10156TIP3   OH230410   1.926   3.459   7.443
10156TIP3    H130411   1.909   3.543   7.395
10156TIP3    H230412   1.951   3.399   7.369
10157TIP3   OH230413   0.695   3.113   7.555
10157TIP3    H130414   0.716   3.098   7.648
10157TIP3    H230415   0.771   3.068   7.511
10158TIP3   OH230416   0.894   2.988   7.422
10158TIP3    H130417   0.911   2.903   7.471
10158TIP3    H230418   0.985   3.024   7.417
10159TIP3   OH230419   1.158   3.078   7.426
10159TIP3    H130420   1.187   2.985   7.416
10159TIP3    H230421   1.208   3.101   7.507
10160TIP3   OH230422   1.762   1.751   7.520
10160TIP3    H130423   1.715   1.673   7.550
10160TIP3    H230424   1.827   1.712   7.457
10161TIP3   OH230425   2.257   1.613   7.419
10161TIP3    H130426   2.293   1.664   7.344
10161TIP3    H230427   2.162   1.633   7.414
10162TIP3   OH230428   2.350   1.717   7.182
10162TIP3    H130429   2.423   1.665   7.142
10162TIP3    H230430   2.384   1.808   7.168
10163TIP3   OH230431   1.403   1.503   7.367
10163TIP3    H130432   1.482   1.547   7.331
10163TIP3    H230433   1.417   1.507   7.462
10164TIP3   OH230434   1.969   1.621   7.389
10164TIP3    H130435   1.976   1.584   7.300
10164TIP3    H230436   1.954   1.540   7.443
10165TIP3   OH230437   2.002   1.551   6.957
10165TIP3    H130438   1.916   1.596   6.972
10165TIP3    H230439   1.985   1.466   7.004
10166TIP3   OH230440   0.471   2.892   6.961
10166TIP3    H130441   0.405   2.842   6.910
10166TIP3    H230442   0.465   2.980   6.917
10167TIP3   OH230443   1.411   1.653   7.036
10167TIP3    H130444   1.464   1.607   7.103
10167TIP3    H230445   1.431   1.746   7.059
10168TIP3   OH230446   1.258   3.074   6.540
10168TIP3    H130447   1.346   3.098   6.503
10168TIP3    H230448   1.236   3.000   6.479
10169TIP3   OH230449   1.976   3.196   6.634
10169TIP3    H130450   1.969   3.098   6.622
10169TIP3    H230451   1.931   3.227   6.552
10170TIP3   OH230452   0.563   2.912   6.594
10170TIP3    H130453   0.568   2.948   6.684
10170TIP3    H230454   0.651   2.869   6.583
10171TIP3   OH230455   2.190   3.328   7.812
10171TIP3    H130456   2.114   3.311   7.752
10171TIP3    H230457   2.180   3.424   7.825
10172TIP3   OH230458   3.469   2.709   6.582
10172TIP3    H130459   3.441   2.801   6.566
10172TIP3    H230460   3.390   2.662   6.550
10173TIP3   OH230461   3.456   2.716   6.963
10173TIP3    H130462   3.486   2.697   7.054
10173TIP3    H230463   3.422   2.630   6.936
10174TIP3   OH230464   2.766   2.609   7.333
10174TIP3    H130465   2.796   2.540   7.395
10174TIP3    H230466   2.849   2.655   7.314
10175TIP3   OH230467   3.713   3.011   6.656
10175TIP3    H130468   3.704   2.945   6.727
10175TIP3    H230469   3.744   3.089   6.704
10176TIP3   OH230470   2.740   3.016   7.055
10176TIP3    H130471   2.732   2.918   7.057
10176TIP3    H230472   2.837   3.026   7.045
10177TIP3   OH230473   2.445   2.215   6.838
10177TIP3    H130474   2.400   2.299   6.856
10177TIP3    H230475   2.373   2.167   6.793
10178TIP3   OH230476   2.503   2.506   7.016
10178TIP3    H130477   2.554   2.429   7.049
10178TIP3    H230478   2.565   2.547   6.954
10179TIP3   OH230479   3.361   3.472   6.662
10179TIP3    H130480   3.409   3.406   6.608
10179TIP3    H230481   3.363   3.432   6.750
10180TIP3   OH230482   3.267   2.937   7.018
10180TIP3    H130483   3.311   2.861   6.975
10180TIP3    H230484   3.348   2.987   7.042
10181TIP3   OH230485   4.284   2.257   7.016
10181TIP3    H130486   4.309   2.341   7.059
10181TIP3    H230487   4.300   2.279   6.922
10182TIP3   OH230488   3.679   2.441   7.044
10182TIP3    H130489   3.728   2.361   7.069
10182TIP3    H230490   3.649   2.418   6.954
10183TIP3   OH230491   3.019   2.097   7.011
10183TIP3    H130492   3.001   2.171   6.949
10183TIP3    H230493   2.970   2.025   6.966
10184TIP3   OH230494   3.715   2.190   6.633
10184TIP3    H130495   3.786   2.176   6.699
10184TIP3    H230496   3.767   2.226   6.559
10185TIP3   OH230497   2.650   2.299   7.120
10185TIP3    H130498   2.734   2.282   7.166
10185TIP3    H230499   2.665   2.245   7.039
10186TIP3   OH230500   3.090   2.496   6.917
10186TIP3    H130501   3.185   2.472   6.926
10186TIP3    H230502   3.053   2.413   6.881
10187TIP3   OH230503   4.350   2.466   7.188
10187TIP3    H130504   4.268   2.515   7.166
10187TIP3    H230505   4.379   2.514   7.268
10188TIP3   OH230506   3.013   2.081   7.443
10188TIP3    H130507   2.957   2.119   7.373
10188TIP3    H230508   2.961   2.106   7.522
10189TIP3   OH230509   3.353   2.931   6.453
10189TIP3    H130510   3.318   2.923   6.364
10189TIP3    H230511   3.313   3.015   6.482
10190TIP3   OH230512   3.121   2.856   7.238
10190TIP3    H130513   3.062   2.926   7.274
10190TIP3    H230514   3.167   2.903   7.166
10191TIP3   OH230515   3.920   2.194   6.813
10191TIP3    H130516   3.895   2.160   6.901
10191TIP3    H230517   3.970   2.274   6.836
10192TIP3   OH230518   2.886   2.196   7.229
10192TIP3    H130519   2.946   2.270   7.252
10192TIP3    H230520   2.935   2.157   7.153
10193TIP3   OH230521   2.949   3.055   7.338
10193TIP3    H130522   2.926   3.141   7.299
10193TIP3    H230523   2.869   3.039   7.392
10194TIP3   OH230524   2.339   2.743   6.574
10194TIP3    H130525   2.301   2.770   6.489
10194TIP3    H230526   2.371   2.828   6.609
10195TIP3   OH230527   3.777   3.262   6.811
10195TIP3    H130528   3.688   3.252   6.852
10195TIP3    H230529   3.768   3.349   6.767
10196TIP3   OH230530   4.076   2.146   7.175
10196TIP3    H130531   3.990   2.184   7.150
10196TIP3    H230532   4.136   2.185   7.109
10197TIP3   OH230533   3.369   1.797   7.163
10197TIP3    H130534   3.350   1.703   7.177
10197TIP3    H230535   3.292   1.839   7.208
10198TIP3   OH230536   3.493   3.319   6.468
10198TIP3    H130537   3.534   3.230   6.454
10198TIP3    H230538   3.567   3.375   6.441
10199TIP3   OH230539   3.623   3.089   6.406
10199TIP3    H130540   3.588   3.010   6.363
10199TIP3    H230541   3.660   3.052   6.489
10200TIP3   OH230542   4.025   3.170   7.164
10200TIP3    H130543   3.994   3.087   7.124
10200TIP3    H230544   3.996   3.237   7.100
10201TIP3   OH230545   3.297   2.561   6.416
10201TIP3    H130546   3.219   2.617   6.397
10201TIP3    H230547   3.345   2.564   6.332
10202TIP3   OH230548   3.257   2.350   6.129
10202TIP3    H130549   3.322   2.402   6.180
10202TIP3    H230550   3.318   2.289   6.082
10203TIP3   OH230551   4.206   2.808   7.001
10203TIP3    H130552   4.122   2.859   7.011
10203TIP3    H230553   4.232   2.837   6.911
10204TIP3   OH230554   3.648   2.644   6.386
10204TIP3    H130555   3.593   2.669   6.464
10204TIP3    H230556   3.732   2.623   6.430
10205TIP3   OH230557   2.878   2.642   6.807
10205TIP3    H130558   2.839   2.584   6.738
10205TIP3    H230559   2.956   2.590   6.836
10206TIP3   OH230560   3.007   3.050   6.955
10206TIP3    H130561   2.991   3.021   6.864
10206TIP3    H230562   3.097   3.016   6.972
10207TIP3   OH230563   3.009   2.617   7.159
10207TIP3    H130564   3.046   2.591   7.071
10207TIP3    H230565   3.057   2.701   7.178
10208TIP3   OH230566   3.538   3.255   6.937
10208TIP3    H130567   3.534   3.333   6.995
10208TIP3    H230568   3.525   3.181   7.000
10209TIP3   OH230569   3.153   3.173   7.484
10209TIP3    H130570   3.091   3.234   7.529
10209TIP3    H230571   3.090   3.118   7.433
10210TIP3   OH230572   3.486   2.504   6.214
10210TIP3    H130573   3.545   2.565   6.264
10210TIP3    H230574   3.513   2.525   6.121
10211TIP3   OH230575   2.914   2.721   7.592
10211TIP3    H130576   2.920   2.813   7.623
10211TIP3    H230577   2.817   2.708   7.590
10212TIP3   OH230578   3.233   3.185   6.492
10212TIP3    H130579   3.311   3.242   6.501
10212TIP3    H230580   3.173   3.241   6.441
10213TIP3   OH230581   2.946   3.339   7.570
10213TIP3    H130582   2.913   3.341   7.478
10213TIP3    H230583   2.865   3.319   7.621
10214TIP3   OH230584   4.003   1.743   6.263
10214TIP3    H130585   3.922   1.767   6.312
10214TIP3    H230586   4.019   1.826   6.213
10215TIP3   OH230587   2.747   2.486   6.607
10215TIP3    H130588   2.680   2.533   6.553
10215TIP3    H230589   2.704   2.400   6.619
10216TIP3   OH230590   3.802   3.111   5.811
10216TIP3    H130591   3.808   3.208   5.797
10216TIP3    H230592   3.895   3.084   5.799
10217TIP3   OH230593   2.523   2.876   7.518
10217TIP3    H130594   2.457   2.856   7.449
10217TIP3    H230595   2.563   2.787   7.536
10218TIP3   OH230596   2.382   3.062   7.151
10218TIP3    H130597   2.478   3.056   7.137
10218TIP3    H230598   2.375   3.142   7.205
10219TIP3   OH230599   4.243   3.520   7.204
10219TIP3    H130600   4.245   3.423   7.215
10219TIP3    H230601   4.160   3.541   7.252
10220TIP3   OH230602   3.351   3.298   7.343
10220TIP3    H130603   3.348   3.391   7.373
10220TIP3    H230604   3.279   3.259   7.397
10221TIP3   OH230605   3.108   3.425   6.298
10221TIP3    H130606   3.071   3.413   6.208
10221TIP3    H230607   3.084   3.517   6.318
10222TIP3   OH230608   2.549   3.278   6.678
10222TIP3    H130609   2.598   3.269   6.763
10222TIP3    H230610   2.497   3.195   6.678
10223TIP3   OH230611   3.310   3.333   5.928
10223TIP3    H130612   3.371   3.264   5.894
10223TIP3    H230613   3.341   3.341   6.021
10224TIP3   OH230614   3.347   3.333   6.199
10224TIP3    H130615   3.270   3.375   6.243
10224TIP3    H230616   3.411   3.331   6.272
10225TIP3   OH230617   4.158   2.649   7.504
10225TIP3    H130618   4.074   2.679   7.461
10225TIP3    H230619   4.156   2.554   7.484
10226TIP3   OH230620   2.730   3.056   7.502
10226TIP3    H130621   2.783   3.037   7.581
10226TIP3    H230622   2.655   2.994   7.511
10227TIP3   OH230623   3.131   1.873   7.292
10227TIP3    H130624   3.042   1.846   7.263
10227TIP3    H230625   3.108   1.958   7.335
10228TIP3   OH230626   3.665   1.989   7.484
10228TIP3    H130627   3.733   1.968   7.550
10228TIP3    H230628   3.581   1.975   7.532
10229TIP3   OH230629   3.897   2.411   7.398
10229TIP3    H130630   3.852   2.416   7.485
10229TIP3    H230631   3.894   2.506   7.372
10230TIP3   OH230632   3.561   2.541   5.956
10230TIP3    H130633   3.529   2.522   5.866
10230TIP3    H230634   3.641   2.594   5.936
10231TIP3   OH230635   3.274   1.924   6.262
10231TIP3    H130636   3.240   1.921   6.353
10231TIP3    H230637   3.234   1.841   6.227
10232TIP3   OH230638   3.059   2.393   7.305
10232TIP3    H130639   3.013   2.418   7.388
10232TIP3    H230640   3.046   2.475   7.252
10233TIP3   OH230641   2.947   2.277   6.822
10233TIP3    H130642   2.854   2.254   6.840
10233TIP3    H230643   2.959   2.237   6.733
10234TIP3   OH230644   3.435   2.361   6.549
10234TIP3    H130645   3.384   2.434   6.507
10234TIP3    H230646   3.491   2.331   6.475
10235TIP3   OH230647   3.612   2.647   7.633
10235TIP3    H130648   3.599   2.570   7.693
10235TIP3    H230649   3.708   2.659   7.638
10236TIP3   OH230650   3.588   2.388   6.790
10236TIP3    H130651   3.530   2.423   6.719
10236TIP3    H230652   3.623   2.310   6.743
10237TIP3   OH230653   2.880   2.424   7.516
10237TIP3    H130654   2.918   2.490   7.576
10237TIP3    H230655   2.875   2.344   7.571
10238TIP3   OH230656   2.930   1.897   6.227
10238TIP3    H130657   2.921   1.899   6.324
10238TIP3    H230658   2.854   1.954   6.201
10239TIP3   OH230659   2.476   1.939   7.101
10239TIP3    H130660   2.550   1.976   7.154
10239TIP3    H230661   2.517   1.917   7.016
10240TIP3   OH230662   2.440   1.923   6.617
10240TIP3    H130663   2.485   1.960   6.538
10240TIP3    H230664   2.380   1.997   6.637
10241TIP3   OH230665   3.549   2.630   7.204
10241TIP3    H130666   3.605   2.567   7.153
10241TIP3    H230667   3.607   2.648   7.279
10242TIP3   OH230668   3.276   2.091   6.881
10242TIP3    H130669   3.195   2.096   6.936
10242TIP3    H230670   3.346   2.105   6.948
10243TIP3   OH230671   2.707   2.157   6.891
10243TIP3    H130672   2.613   2.165   6.862
10243TIP3    H230673   2.730   2.066   6.866
10244TIP3   OH230674   2.974   2.150   6.581
10244TIP3    H130675   3.067   2.168   6.560
10244TIP3    H230676   2.927   2.173   6.498
10245TIP3   OH230677   3.767   2.173   7.080
10245TIP3    H130678   3.739   2.190   7.173
10245TIP3    H230679   3.693   2.117   7.050
10246TIP3   OH230680   2.824   2.183   6.357
10246TIP3    H130681   2.752   2.141   6.306
10246TIP3    H230682   2.876   2.224   6.284
10247TIP3   OH230683   3.938   3.867   7.306
10247TIP3    H130684   3.934   3.888   7.211
10247TIP3    H230685   4.018   3.914   7.334
10248TIP3   OH230686   2.907   2.975   7.713
10248TIP3    H130687   2.985   3.005   7.764
10248TIP3    H230688   2.838   2.984   7.781
10249TIP3   OH230689   3.356   2.424   6.973
10249TIP3    H130690   3.435   2.397   6.925
10249TIP3    H230691   3.376   2.395   7.064
10250TIP3   OH230692   2.876   1.917   6.861
10250TIP3    H130693   2.841   1.838   6.908
10250TIP3    H230694   2.921   1.877   6.786
10251TIP3   OH230695   3.331   2.320   7.282
10251TIP3    H130696   3.245   2.366   7.287
10251TIP3    H230697   3.392   2.380   7.330
10252TIP3   OH230698   3.069   2.714   6.365
10252TIP3    H130699   2.995   2.651   6.352
10252TIP3    H230700   3.049   2.750   6.455
10253TIP3   OH230701   3.973   2.952   6.991
10253TIP3    H130702   3.995   3.008   6.914
10253TIP3    H230703   3.886   2.914   6.966
10254TIP3   OH230704   3.527   2.025   6.231
10254TIP3    H130705   3.430   2.009   6.239
10254TIP3    H230706   3.537   2.120   6.255
10255TIP3   OH230707   3.461   3.032   7.364
10255TIP3    H130708   3.502   3.022   7.450
10255TIP3    H230709   3.426   3.123   7.366
10256TIP3   OH230710   3.596   2.276   6.331
10256TIP3    H130711   3.692   2.284   6.348
10256TIP3    H230712   3.576   2.358   6.282
10257TIP3   OH230713   2.759   2.736   7.039
10257TIP3    H130714   2.797   2.711   6.952
10257TIP3    H230715   2.813   2.681   7.099
10258TIP3   OH230716   3.215   2.864   6.187
10258TIP3    H130717   3.167   2.950   6.189
10258TIP3    H230718   3.161   2.811   6.249
10259TIP3   OH230719   2.643   2.660   7.643
10259TIP3    H130720   2.669   2.655   7.737
10259TIP3    H230721   2.568   2.600   7.636
10260TIP3   OH230722   3.371   2.772   7.672
10260TIP3    H130723   3.317   2.725   7.607
10260TIP3    H230724   3.461   2.741   7.645
10261TIP3   OH230725   3.615   3.343   7.239
10261TIP3    H130726   3.526   3.313   7.262
10261TIP3    H230727   3.651   3.365   7.327
10262TIP3   OH230728   4.036   2.370   6.168
10262TIP3    H130729   3.975   2.326   6.104
10262TIP3    H230730   4.033   2.460   6.128
10263TIP3   OH230731   4.272   3.241   7.245
10263TIP3    H130732   4.176   3.217   7.248
10263TIP3    H230733   4.293   3.200   7.159
10264TIP3   OH230734   3.729   3.180   6.075
10264TIP3    H130735   3.706   3.108   6.135
10264TIP3    H230736   3.746   3.135   5.991
10265TIP3   OH230737   3.729   2.824   6.896
10265TIP3    H130738   3.637   2.796   6.914
10265TIP3    H230739   3.767   2.741   6.862
10266TIP3   OH230740   2.866   3.045   6.669
10266TIP3    H130741   2.867   3.125   6.613
10266TIP3    H230742   2.772   3.027   6.674
10267TIP3   OH230743   2.429   2.346   6.373
10267TIP3    H130744   2.473   2.431   6.392
10267TIP3    H230745   2.352   2.351   6.433
10268TIP3   OH230746   2.993   2.805   6.607
10268TIP3    H130747   2.964   2.897   6.626
10268TIP3    H230748   2.960   2.757   6.685
10269TIP3   OH230749   3.134   3.385   7.134
10269TIP3    H130750   3.175   3.458   7.083
10269TIP3    H230751   3.212   3.348   7.179
10270TIP3   OH230752   2.782   3.283   6.519
10270TIP3    H130753   2.697   3.294   6.564
10270TIP3    H230754   2.816   3.375   6.520
10271TIP3   OH230755   3.519   3.021   7.096
10271TIP3    H130756   3.508   3.015   7.193
10271TIP3    H230757   3.601   2.973   7.082
10272TIP3   OH230758   3.498   2.907   5.978
10272TIP3    H130759   3.550   2.884   6.059
10272TIP3    H230760   3.407   2.891   6.010
10273TIP3   OH230761   3.770   3.557   7.150
10273TIP3    H130762   3.697   3.491   7.155
10273TIP3    H230763   3.744   3.611   7.072
10274TIP3   OH230764   3.830   3.387   5.796
10274TIP3    H130765   3.866   3.468   5.754
10274TIP3    H230766   3.755   3.427   5.845
10275TIP3   OH230767   2.854   2.161   7.654
10275TIP3    H130768   2.758   2.156   7.669
10275TIP3    H230769   2.889   2.104   7.724
10276TIP3   OH230770   3.659   2.846   6.194
10276TIP3    H130771   3.649   2.780   6.266
10276TIP3    H230772   3.756   2.843   6.181
10277TIP3   OH230773   2.569   3.248   7.294
10277TIP3    H130774   2.625   3.175   7.326
10277TIP3    H230775   2.603   3.322   7.346
10278TIP3   OH230776   2.860   2.894   5.978
10278TIP3    H130777   2.874   2.801   5.952
10278TIP3    H230778   2.840   2.884   6.073
10279TIP3   OH230779   2.804   2.899   6.251
10279TIP3    H130780   2.882   2.876   6.303
10279TIP3    H230781   2.806   2.997   6.255
10280TIP3   OH230782   2.539   2.591   6.454
10280TIP3    H130783   2.472   2.637   6.509
10280TIP3    H230784   2.553   2.659   6.385
10281TIP3   OH230785   3.698   2.225   7.338
10281TIP3    H130786   3.771   2.276   7.376
10281TIP3    H230787   3.687   2.151   7.400
10282TIP3   OH230788   3.576   1.975   6.513
10282TIP3    H130789   3.560   1.999   6.420
10282TIP3    H230790   3.614   2.058   6.549
10283TIP3   OH230791   3.071   3.092   6.198
10283TIP3    H130792   2.983   3.122   6.230
10283TIP3    H230793   3.099   3.170   6.149
10284TIP3   OH230794   3.257   2.160   6.612
10284TIP3    H130795   3.320   2.232   6.593
10284TIP3    H230796   3.264   2.151   6.709
10285TIP3   OH230797   3.508   2.453   7.449
10285TIP3    H130798   3.546   2.526   7.501
10285TIP3    H230799   3.586   2.398   7.432
10286TIP3   OH230800   3.401   1.880   6.712
10286TIP3    H130801   3.390   1.958   6.770
10286TIP3    H230802   3.465   1.916   6.646
10287TIP3   OH230803   2.815   3.170   6.266
10287TIP3    H130804   2.787   3.241   6.203
10287TIP3    H230805   2.801   3.215   6.352
10288TIP3   OH230806   2.916   1.886   6.504
10288TIP3    H130807   2.913   1.977   6.539
10288TIP3    H230808   3.012   1.869   6.511
10289TIP3   OH230809   4.165   2.373   7.405
10289TIP3    H130810   4.067   2.374   7.406
10289TIP3    H230811   4.182   2.362   7.311
10290TIP3   OH230812   3.822   2.569   6.787
10290TIP3    H130813   3.744   2.514   6.807
10290TIP3    H230814   3.893   2.525   6.838
10291TIP3   OH230815   2.534   2.797   6.258
10291TIP3    H130816   2.603   2.866   6.267
10291TIP3    H230817   2.578   2.741   6.190
10292TIP3   OH230818   2.474   2.075   6.392
10292TIP3    H130819   2.479   2.173   6.391
10292TIP3    H230820   2.392   2.060   6.343
10293TIP3   OH230821   3.785   3.536   6.728
10293TIP3    H130822   3.746   3.588   6.654
10293TIP3    H230823   3.880   3.550   6.710
10294TIP3   OH230824   2.865   1.797   7.262
10294TIP3    H130825   2.835   1.766   7.174
10294TIP3    H230826   2.854   1.717   7.317
10295TIP3   OH230827   2.401   3.012   6.641
10295TIP3    H130828   2.334   3.044   6.704
10295TIP3    H230829   2.371   3.056   6.558
10296TIP3   OH230830   2.563   3.560   7.723
10296TIP3    H130831   2.651   3.559   7.766
10296TIP3    H230832   2.546   3.465   7.712
10297TIP3   OH230833   3.036   3.521   7.760
10297TIP3    H130834   3.131   3.505   7.769
10297TIP3    H230835   3.014   3.458   7.688
10298TIP3   OH230836   3.023   3.098   5.886
10298TIP3    H130837   2.970   3.025   5.925
10298TIP3    H230838   3.100   3.049   5.852
10299TIP3   OH230839   3.675   3.430   7.500
10299TIP3    H130840   3.671   3.358   7.567
10299TIP3    H230841   3.756   3.478   7.525
10300TIP3   OH230842   3.458   3.134   5.799
10300TIP3    H130843   3.508   3.080   5.862
10300TIP3    H230844   3.516   3.135   5.721
10301TIP3   OH230845   2.697   2.974   7.884
10301TIP3    H130846   2.713   2.878   7.896
10301TIP3    H230847   2.605   2.975   7.850
10302TIP3   OH230848   2.669   2.610   6.113
10302TIP3    H130849   2.728   2.585   6.186
10302TIP3    H230850   2.735   2.617   6.040
10303TIP3   OH230851   3.296   3.052   7.689
10303TIP3    H130852   3.260   3.072   7.601
10303TIP3    H230853   3.330   2.960   7.679
10304TIP3   OH230854   3.182   2.811   5.919
10304TIP3    H130855   3.185   2.825   6.015
10304TIP3    H230856   3.180   2.713   5.914
10305TIP3   OH230857   2.799   2.697   7.879
10305TIP3    H130858   2.887   2.682   7.840
10305TIP3    H230859   2.808   2.657   7.967
10306TIP3   OH230860   2.872   2.519   6.329
10306TIP3    H130861   2.848   2.480   6.414
10306TIP3    H230862   2.912   2.444   6.281
10307TIP3   OH230863   3.144   2.572   7.557
10307TIP3    H130864   3.072   2.638   7.560
10307TIP3    H230865   3.200   2.609   7.485
10308TIP3   OH230866   2.979   2.312   6.173
10308TIP3    H130867   2.954   2.322   6.079
10308TIP3    H230868   3.077   2.317   6.165
10309TIP3   OH230869   3.657   2.985   7.700
10309TIP3    H130870   3.728   2.956   7.642
10309TIP3    H230871   3.657   2.916   7.768
10310TIP3   OH230872   3.798   2.640   5.839
10310TIP3    H130873   3.777   2.598   5.753
10310TIP3    H230874   3.766   2.731   5.820
10311TIP3   OH230875   3.271   2.369   7.688
10311TIP3    H130876   3.278   2.293   7.628
10311TIP3    H230877   3.233   2.437   7.627
10312TIP3   OH230878   3.271   2.155   7.499
10312TIP3    H130879   3.303   2.203   7.420
10312TIP3    H230880   3.178   2.136   7.474
10313TIP3   OH230881   3.300   2.691   7.374
10313TIP3    H130882   3.381   2.679   7.321
10313TIP3    H230883   3.251   2.758   7.322
10314TIP3   OH230884   3.886   2.658   7.751
10314TIP3    H130885   3.932   2.573   7.749
10314TIP3    H230886   3.947   2.714   7.701
10315TIP3   OH230887   3.122   2.498   7.890
10315TIP3    H130888   3.064   2.420   7.893
10315TIP3    H230889   3.173   2.479   7.809
10316TIP3   OH230890   3.401   1.920   7.564
10316TIP3    H130891   3.354   2.002   7.538
10316TIP3    H230892   3.334   1.852   7.548
10317TIP3   OH230893   3.539   2.423   7.770
10317TIP3    H130894   3.517   2.418   7.866
10317TIP3    H230895   3.452   2.401   7.731
10318TIP3   OH230896   3.770   2.370   7.630
10318TIP3    H130897   3.695   2.376   7.692
10318TIP3    H230898   3.844   2.345   7.687
10319TIP3   OH230899   3.998   2.316   7.777
10319TIP3    H130900   4.007   2.220   7.794
10319TIP3    H230901   3.994   2.354   7.867
10320TIP3   OH230902   2.973   2.267   7.938
10320TIP3    H130903   2.991   2.174   7.911
10320TIP3    H230904   3.024   2.273   8.020
10321TIP3   OH230905   3.500   1.930   7.817
10321TIP3    H130906   3.562   1.858   7.797
10321TIP3    H230907   3.454   1.935   7.731
10322TIP3   OH230908   3.575   2.148   7.970
10322TIP3    H130909   3.554   2.066   7.921
10322TIP3    H230910   3.493   2.199   7.958
10323TIP3   OH230911   2.786   3.371   6.078
10323TIP3    H130912   2.882   3.364   6.062
10323TIP3    H230913   2.761   3.424   6.000
10324TIP3   OH230914   2.265   2.756   6.295
10324TIP3    H130915   2.360   2.778   6.279
10324TIP3    H230916   2.259   2.668   6.252
10325TIP3   OH230917   2.180   3.368   6.710
10325TIP3    H130918   2.115   3.306   6.670
10325TIP3    H230919   2.225   3.308   6.774
10326TIP3   OH230920   2.315   3.214   6.895
10326TIP3    H130921   2.304   3.144   6.961
10326TIP3    H230922   2.369   3.277   6.946
10327TIP3   OH230923   4.046   3.612   6.698
10327TIP3    H130924   4.072   3.646   6.785
10327TIP3    H230925   4.105   3.661   6.638
10328TIP3   OH230926   4.072   3.638   6.980
10328TIP3    H130927   4.024   3.553   6.974
10328TIP3    H230928   4.145   3.610   7.038
10329TIP3   OH230929   4.123   3.311   7.557
10329TIP3    H130930   4.048   3.324   7.618
10329TIP3    H230931   4.164   3.400   7.556
10330TIP3   OH230932   3.937   2.827   6.169
10330TIP3    H130933   4.001   2.894   6.139
10330TIP3    H230934   3.982   2.791   6.248
10331TIP3   OH230935   4.065   2.694   6.373
10331TIP3    H130936   3.997   2.655   6.432
10331TIP3    H230937   4.129   2.733   6.436
10332TIP3   OH230938   4.121   3.093   6.801
10332TIP3    H130939   4.173   3.026   6.754
10332TIP3    H230940   4.119   3.167   6.737
10333TIP3   OH230941   3.945   3.390   6.997
10333TIP3    H130942   3.872   3.423   7.052
10333TIP3    H230943   3.897   3.341   6.927
10334TIP3   OH230944   4.000   2.603   6.019
10334TIP3    H130945   3.929   2.606   5.952
10334TIP3    H230946   3.973   2.680   6.074
10335TIP3   OH230947   3.873   2.275   5.972
10335TIP3    H130948   3.826   2.317   5.899
10335TIP3    H230949   3.848   2.181   5.960
10336TIP3   OH230950   3.876   2.555   6.519
10336TIP3    H130951   3.884   2.459   6.513
10336TIP3    H230952   3.861   2.569   6.615
10337TIP3   OH230953   2.501   2.622   7.270
10337TIP3    H130954   2.499   2.592   7.177
10337TIP3    H230955   2.598   2.627   7.285
10338TIP3   OH230956   4.357   2.803   7.404
10338TIP3    H130957   4.275   2.759   7.437
10338TIP3    H230958   4.420   2.729   7.412
10339TIP3   OH230959   3.816   2.008   5.954
10339TIP3    H130960   3.888   1.979   6.013
10339TIP3    H230961   3.741   1.951   5.979
10340TIP3   OH230962   3.873   2.270   6.412
10340TIP3    H130963   3.915   2.181   6.426
10340TIP3    H230964   3.930   2.305   6.342
10341TIP3   OH230965   4.032   2.437   6.912
10341TIP3    H130966   4.119   2.463   6.872
10341TIP3    H230967   4.042   2.481   6.999
10342TIP3   OH230968   4.108   2.590   7.138
10342TIP3    H130969   4.039   2.629   7.197
10342TIP3    H230970   4.138   2.671   7.091
10343TIP3   OH230971   2.711   2.309   7.879
10343TIP3    H130972   2.809   2.314   7.875
10343TIP3    H230973   2.702   2.240   7.947
10344TIP3   OH230974   4.554   2.177   7.696
10344TIP3    H130975   4.615   2.115   7.651
10344TIP3    H230976   4.522   2.232   7.621
10345TIP3   OH230977   3.983   2.020   6.450
10345TIP3    H130978   4.031   2.005   6.535
10345TIP3    H230979   3.922   1.944   6.450
10346TIP3   OH230980   2.683   2.007   7.276
10346TIP3    H130981   2.745   1.932   7.278
10346TIP3    H230982   2.744   2.081   7.263
10347TIP3   OH230983   2.484   2.276   7.346
10347TIP3    H130984   2.533   2.274   7.261
10347TIP3    H230985   2.504   2.364   7.378
10348TIP3   OH230986   4.421   2.317   7.506
10348TIP3    H130987   4.338   2.364   7.529
10348TIP3    H230988   4.385   2.251   7.444
10349TIP3   OH230989   4.059   1.951   6.087
10349TIP3    H130990   4.100   1.883   6.030
10349TIP3    H230991   4.125   2.024   6.084
10350TIP3   OH230992   2.468   1.780   6.844
10350TIP3    H130993   2.375   1.776   6.872
10350TIP3    H230994   2.463   1.840   6.767
10351TIP3   OH230995   2.674   1.876   7.662
10351TIP3    H130996   2.583   1.868   7.692
10351TIP3    H230997   2.656   1.930   7.583
10352TIP3   OH230998   2.725   3.297   7.736
10352TIP3    H130999   2.633   3.266   7.721
10352TIP3    H231000   2.742   3.265   7.826
10353TIP3   OH231001   2.907   3.326   7.284
10353TIP3    H131002   2.862   3.403   7.244
10353TIP3    H231003   2.994   3.338   7.240
10354TIP3   OH231004   3.347   3.567   7.423
10354TIP3    H131005   3.391   3.568   7.510
10354TIP3    H231006   3.412   3.617   7.369
10355TIP3   OH231007   3.526   3.720   7.282
10355TIP3    H131008   3.593   3.667   7.236
10355TIP3    H231009   3.582   3.775   7.341
10356TIP3   OH231010   4.323   2.083   7.381
10356TIP3    H131011   4.236   2.086   7.339
10356TIP3    H231012   4.350   1.989   7.366
10357TIP3   OH231013   2.580   3.577   7.309
10357TIP3    H131014   2.491   3.611   7.285
10357TIP3    H231015   2.594   3.625   7.392
10358TIP3   OH231016   2.818   3.558   7.168
10358TIP3    H131017   2.730   3.571   7.209
10358TIP3    H231018   2.801   3.590   7.076
10359TIP3   OH231019   3.240   3.585   6.967
10359TIP3    H131020   3.175   3.603   6.897
10359TIP3    H231021   3.254   3.673   7.006
10360TIP3   OH231022   3.511   3.529   7.012
10360TIP3    H131023   3.418   3.546   6.992
10360TIP3    H231024   3.557   3.602   6.967
10361TIP3   OH231025   3.717   3.716   6.927
10361TIP3    H131026   3.704   3.801   6.880
10361TIP3    H231027   3.744   3.656   6.854
10362TIP3   OH231028   2.491   3.371   7.052
10362TIP3    H131029   2.520   3.345   7.143
10362TIP3    H231030   2.564   3.329   7.001
10363TIP3   OH231031   2.687   3.245   6.913
10363TIP3    H131032   2.705   3.161   6.961
10363TIP3    H231033   2.778   3.282   6.907
10364TIP3   OH231034   2.953   3.338   6.918
10364TIP3    H131035   2.987   3.248   6.902
10364TIP3    H231036   3.003   3.360   6.999
10365TIP3   OH231037   3.533   1.996   7.002
10365TIP3    H131038   3.489   1.925   7.051
10365TIP3    H231039   3.607   1.950   6.958
10366TIP3   OH231040   4.049   1.870   6.903
10366TIP3    H131041   4.087   1.925   6.831
10366TIP3    H231042   3.956   1.898   6.902
10367TIP3   OH231043   4.146   1.971   6.668
10367TIP3    H131044   4.221   1.922   6.628
10367TIP3    H231045   4.179   2.064   6.655
10368TIP3   OH231046   2.777   1.703   7.016
10368TIP3    H131047   2.684   1.672   7.018
10368TIP3    H231048   2.824   1.617   7.011
10369TIP3   OH231049   2.568   1.574   6.665
10369TIP3    H131050   2.596   1.632   6.591
10369TIP3    H231051   2.539   1.640   6.731
10370TIP3   OH231052   3.225   1.733   6.898
10370TIP3    H131053   3.278   1.782   6.833
10370TIP3    H231054   3.248   1.779   6.980
10371TIP3   OH231055   3.763   1.883   6.881
10371TIP3    H131056   3.766   1.847   6.791
10371TIP3    H231057   3.751   1.801   6.935
10372TIP3   OH231058   3.798   1.808   6.443
10372TIP3    H131059   3.713   1.854   6.460
10372TIP3    H231060   3.782   1.723   6.488
10373TIP3   OH231061   2.280   3.149   6.443
10373TIP3    H131062   2.194   3.117   6.410
10373TIP3    H231063   2.273   3.243   6.415
10374TIP3   OH231064   2.684   1.730   6.428
10374TIP3    H131065   2.732   1.670   6.369
10374TIP3    H231066   2.756   1.786   6.463
10375TIP3   OH231067   3.193   1.909   6.526
10375TIP3    H131068   3.256   1.865   6.586
10375TIP3    H231069   3.212   2.002   6.550
10376TIP3   OH231070   3.054   3.332   6.030
10376TIP3    H131071   3.143   3.355   5.994
10376TIP3    H231072   3.034   3.257   5.969
10377TIP3   OH231073   3.810   3.444   6.104
10377TIP3    H131074   3.779   3.351   6.098
10377TIP3    H231075   3.727   3.492   6.088
10378TIP3   OH231076   3.025   2.006   7.871
10378TIP3    H131077   3.020   1.941   7.944
10378TIP3    H231078   3.120   2.012   7.855
10379TIP3   OH231079   2.356   3.165   6.080
10379TIP3    H131080   2.363   3.193   6.172
10379TIP3    H231081   2.444   3.124   6.063
10380TIP3   OH231082   4.061   2.046   7.795
10380TIP3    H131083   4.091   2.028   7.887
10380TIP3    H231084   4.148   2.051   7.749
10381TIP3   OH231085   3.996   3.597   7.309
10381TIP3    H131086   3.919   3.566   7.256
10381TIP3    H231087   3.976   3.692   7.312
10382TIP3   OH231088   5.266   2.969   6.068
10382TIP3    H131089   5.236   3.060   6.049
10382TIP3    H231090   5.189   2.919   6.037
10383TIP3   OH231091   5.266   2.968   6.455
10383TIP3    H131092   5.300   2.945   6.544
10383TIP3    H231093   5.223   2.886   6.428
10384TIP3   OH231094   4.563   2.861   6.814
10384TIP3    H131095   4.592   2.792   6.877
10384TIP3    H231096   4.636   2.924   6.822
10385TIP3   OH231097   5.509   3.273   6.136
10385TIP3    H131098   5.494   3.205   6.203
10385TIP3    H231099   5.540   3.348   6.191
10386TIP3   OH231100   4.537   3.274   6.540
10386TIP3    H131101   4.527   3.177   6.542
10386TIP3    H231102   4.634   3.283   6.536
10387TIP3   OH231103   4.243   2.472   6.324
10387TIP3    H131104   4.197   2.556   6.345
10387TIP3    H231105   4.170   2.424   6.280
10388TIP3   OH231106   4.300   2.763   6.501
10388TIP3    H131107   4.351   2.686   6.536
10388TIP3    H231108   4.362   2.801   6.438
10389TIP3   OH231109   5.163   3.737   6.153
10389TIP3    H131110   5.204   3.664   6.103
10389TIP3    H231111   5.147   3.696   6.239
10390TIP3   OH231112   5.062   3.195   6.501
10390TIP3    H131113   5.103   3.119   6.457
10390TIP3    H231114   5.145   3.242   6.527
10391TIP3   OH231115   6.078   2.514   6.501
10391TIP3    H131116   6.107   2.597   6.545
10391TIP3    H231117   6.098   2.534   6.408
10392TIP3   OH231118   5.475   2.694   6.532
10392TIP3    H131119   5.518   2.609   6.553
10392TIP3    H231120   5.444   2.677   6.441
10393TIP3   OH231121   4.817   2.354   6.497
10393TIP3    H131122   4.796   2.428   6.435
10393TIP3    H231123   4.767   2.282   6.454
10394TIP3   OH231124   5.510   2.446   6.119
10394TIP3    H131125   5.581   2.432   6.185
10394TIP3    H231126   5.563   2.482   6.045
10395TIP3   OH231127   4.447   2.557   6.606
10395TIP3    H131128   4.530   2.540   6.655
10395TIP3    H231129   4.462   2.501   6.527
10396TIP3   OH231130   4.888   2.754   6.397
10396TIP3    H131131   4.982   2.729   6.411
10396TIP3    H231132   4.849   2.670   6.366
10397TIP3   OH231133   6.150   2.722   6.673
10397TIP3    H131134   6.066   2.770   6.656
10397TIP3    H231135   6.180   2.765   6.756
10398TIP3   OH231136   4.809   2.338   6.934
10398TIP3    H131137   4.751   2.377   6.865
10398TIP3    H231138   4.756   2.357   7.014
10399TIP3   OH231139   5.157   3.191   5.937
10399TIP3    H131140   5.111   3.174   5.853
10399TIP3    H231141   5.111   3.272   5.966
10400TIP3   OH231142   4.917   3.115   6.725
10400TIP3    H131143   4.856   3.182   6.762
10400TIP3    H231144   4.959   3.164   6.652
10401TIP3   OH231145   5.715   2.451   6.297
10401TIP3    H131146   5.696   2.412   6.384
10401TIP3    H231147   5.767   2.530   6.322
10402TIP3   OH231148   4.682   2.453   6.716
10402TIP3    H131149   4.743   2.527   6.741
10402TIP3    H231150   4.732   2.414   6.641
10403TIP3   OH231151   4.746   3.310   6.825
10403TIP3    H131152   4.720   3.397   6.789
10403TIP3    H231153   4.667   3.293   6.881
10404TIP3   OH231154   4.136   2.999   6.060
10404TIP3    H131155   4.095   3.028   5.977
10404TIP3    H231156   4.166   3.085   6.098
10405TIP3   OH231157   5.577   3.516   6.299
10405TIP3    H131158   5.488   3.506   6.340
10405TIP3    H231159   5.567   3.603   6.256
10406TIP3   OH231160   5.871   2.408   6.663
10406TIP3    H131161   5.785   2.441   6.633
10406TIP3    H231162   5.932   2.444   6.596
10407TIP3   OH231163   5.164   2.056   6.649
10407TIP3    H131164   5.147   1.962   6.665
10407TIP3    H231165   5.088   2.097   6.696
10408TIP3   OH231166   5.277   3.560   5.973
10408TIP3    H131167   5.328   3.477   5.955
10408TIP3    H231168   5.340   3.625   5.932
10409TIP3   OH231169   5.423   3.345   5.885
10409TIP3    H131170   5.376   3.266   5.853
10409TIP3    H231171   5.461   3.312   5.969
10410TIP3   OH231172   5.802   3.427   6.645
10410TIP3    H131173   5.791   3.349   6.586
10410TIP3    H231174   5.786   3.501   6.583
10411TIP3   OH231175   5.095   2.819   5.905
10411TIP3    H131176   5.015   2.872   5.885
10411TIP3    H231177   5.140   2.819   5.818
10412TIP3   OH231178   5.053   2.607   5.615
10412TIP3    H131179   5.119   2.659   5.665
10412TIP3    H231180   5.112   2.544   5.569
10413TIP3   OH231181   5.990   3.052   6.481
10413TIP3    H131182   5.912   3.110   6.491
10413TIP3    H231183   6.027   3.087   6.398
10414TIP3   OH231184   5.444   2.903   5.872
10414TIP3    H131185   5.389   2.927   5.950
10414TIP3    H231186   5.528   2.879   5.916
10415TIP3   OH231187   5.677   2.940   6.791
10415TIP3    H131188   5.677   3.023   6.842
10415TIP3    H231189   5.591   2.947   6.745
10416TIP3   OH231190   4.676   2.899   6.292
10416TIP3    H131191   4.635   2.841   6.223
10416TIP3    H231192   4.753   2.845   6.321
10417TIP3   OH231193   4.807   3.314   6.438
10417TIP3    H131194   4.785   3.276   6.351
10417TIP3    H231195   4.895   3.276   6.455
10418TIP3   OH231196   4.818   2.869   6.645
10418TIP3    H131197   4.848   2.849   6.554
10418TIP3    H231198   4.857   2.957   6.663
10419TIP3   OH231199   5.338   3.509   6.423
10419TIP3    H131200   5.324   3.589   6.477
10419TIP3    H231201   5.321   3.437   6.486
10420TIP3   OH231202   4.950   3.428   6.970
10420TIP3    H131203   4.889   3.489   7.016
10420TIP3    H231204   4.886   3.375   6.919
10421TIP3   OH231205   5.283   2.761   5.700
10421TIP3    H131206   5.341   2.822   5.751
10421TIP3    H231207   5.309   2.782   5.607
10422TIP3   OH231208   4.702   2.979   7.073
10422TIP3    H131209   4.708   3.068   7.114
10422TIP3    H231210   4.608   2.958   7.092
10423TIP3   OH231211   5.030   3.436   5.976
10423TIP3    H131212   5.110   3.491   5.986
10423TIP3    H231213   4.967   3.497   5.935
10424TIP3   OH231214   4.744   3.594   7.058
10424TIP3    H131215   4.709   3.596   6.967
10424TIP3    H231216   4.663   3.572   7.110
10425TIP3   OH231217   5.799   2.000   5.750
10425TIP3    H131218   5.717   2.023   5.799
10425TIP3    H231219   5.814   2.083   5.700
10426TIP3   OH231220   4.544   2.743   6.091
10426TIP3    H131221   4.475   2.789   6.039
10426TIP3    H231222   4.501   2.658   6.108
10427TIP3   OH231223   5.599   3.367   5.297
10427TIP3    H131224   5.607   3.464   5.283
10427TIP3    H231225   5.692   3.338   5.285
10428TIP3   OH231226   4.326   3.126   7.004
10428TIP3    H131227   4.252   3.108   6.943
10428TIP3    H231228   4.358   3.036   7.026
10429TIP3   OH231229   4.176   3.321   6.634
10429TIP3    H131230   4.273   3.322   6.627
10429TIP3    H231231   4.160   3.400   6.689
10430TIP3   OH231232   6.037   3.772   6.688
10430TIP3    H131233   6.040   3.676   6.706
10430TIP3    H231234   5.955   3.796   6.738
10431TIP3   OH231235   5.146   3.556   6.828
10431TIP3    H131236   5.143   3.649   6.860
10431TIP3    H231237   5.075   3.516   6.881
10432TIP3   OH231238   4.913   3.687   5.777
10432TIP3    H131239   4.862   3.668   5.697
10432TIP3    H231240   4.875   3.771   5.808
10433TIP3   OH231241   4.349   3.535   6.164
10433TIP3    H131242   4.393   3.525   6.250
10433TIP3    H231243   4.281   3.466   6.169
10434TIP3   OH231244   5.110   3.589   5.417
10434TIP3    H131245   5.169   3.518   5.382
10434TIP3    H231246   5.143   3.598   5.509
10435TIP3   OH231247   5.162   3.635   5.686
10435TIP3    H131248   5.073   3.647   5.725
10435TIP3    H231249   5.210   3.595   5.760
10436TIP3   OH231250   5.923   2.894   6.975
10436TIP3    H131251   5.845   2.908   6.920
10436TIP3    H231252   5.940   2.798   6.963
10437TIP3   OH231253   4.527   3.310   6.989
10437TIP3    H131254   4.575   3.294   7.072
10437TIP3    H231255   4.453   3.247   6.996
10438TIP3   OH231256   4.927   2.132   6.780
10438TIP3    H131257   4.839   2.103   6.750
10438TIP3    H231258   4.902   2.215   6.826
10439TIP3   OH231259   5.462   2.246   6.971
10439TIP3    H131260   5.531   2.221   7.037
10439TIP3    H231261   5.379   2.229   7.020
10440TIP3   OH231262   5.695   2.675   6.886
10440TIP3    H131263   5.646   2.674   6.972
10440TIP3    H231264   5.675   2.765   6.853
10441TIP3   OH231265   5.360   2.803   5.445
10441TIP3    H131266   5.325   2.781   5.356
10441TIP3    H231267   5.442   2.849   5.421
10442TIP3   OH231268   5.072   2.180   5.749
10442TIP3    H131269   5.037   2.177   5.840
10442TIP3    H231270   5.031   2.098   5.713
10443TIP3   OH231271   4.859   2.649   6.796
10443TIP3    H131272   4.807   2.671   6.877
10443TIP3    H231273   4.844   2.730   6.742
10444TIP3   OH231274   4.743   2.535   6.309
10444TIP3    H131275   4.650   2.510   6.328
10444TIP3    H231276   4.754   2.494   6.220
10445TIP3   OH231277   5.233   2.619   6.038
10445TIP3    H131278   5.182   2.691   5.995
10445TIP3    H231279   5.288   2.587   5.964
10446TIP3   OH231280   5.407   2.896   7.120
10446TIP3    H131281   5.386   2.824   7.184
10446TIP3    H231282   5.501   2.912   7.143
10447TIP3   OH231283   5.388   2.646   6.275
10447TIP3    H131284   5.326   2.676   6.205
10447TIP3    H231285   5.423   2.567   6.230
10448TIP3   OH231286   4.679   2.678   7.003
10448TIP3    H131287   4.693   2.747   7.069
10448TIP3    H231288   4.667   2.598   7.057
10449TIP3   OH231289   4.728   2.155   5.714
10449TIP3    H131290   4.717   2.156   5.811
10449TIP3    H231291   4.651   2.210   5.687
10450TIP3   OH231292   4.271   2.194   6.586
10450TIP3    H131293   4.343   2.231   6.641
10450TIP3    H231294   4.316   2.173   6.503
10451TIP3   OH231295   4.236   2.180   6.103
10451TIP3    H131296   4.282   2.217   6.025
10451TIP3    H231297   4.176   2.254   6.123
10452TIP3   OH231298   5.397   2.893   6.696
10452TIP3    H131299   5.432   2.822   6.637
10452TIP3    H231300   5.367   2.839   6.772
10453TIP3   OH231301   5.073   2.352   6.368
10453TIP3    H131302   4.991   2.354   6.422
10453TIP3    H231303   5.142   2.354   6.437
10454TIP3   OH231304   4.504   2.415   6.377
10454TIP3    H131305   4.410   2.423   6.349
10454TIP3    H231306   4.526   2.323   6.353
10455TIP3   OH231307   4.770   2.407   6.068
10455TIP3    H131308   4.863   2.424   6.046
10455TIP3    H231309   4.722   2.430   5.985
10456TIP3   OH231310   5.561   2.432   6.569
10456TIP3    H131311   5.532   2.446   6.662
10456TIP3    H231312   5.491   2.373   6.537
10457TIP3   OH231313   4.620   2.441   5.844
10457TIP3    H131314   4.548   2.398   5.795
10457TIP3    H231315   4.671   2.480   5.770
10458TIP3   OH231316   5.735   4.123   6.793
10458TIP3    H131317   5.733   4.147   6.699
10458TIP3    H231318   5.815   4.169   6.824
10459TIP3   OH231319   4.689   3.232   7.211
10459TIP3    H131320   4.769   3.261   7.260
10459TIP3    H231321   4.625   3.226   7.285
10460TIP3   OH231322   5.152   2.685   6.466
10460TIP3    H131323   5.228   2.649   6.419
10460TIP3    H231324   5.159   2.643   6.554
10461TIP3   OH231325   4.672   2.173   6.349
10461TIP3    H131326   4.637   2.095   6.397
10461TIP3    H231327   4.716   2.131   6.274
10462TIP3   OH231328   5.128   2.584   6.759
10462TIP3    H131329   5.039   2.621   6.772
10462TIP3    H231330   5.185   2.647   6.808
10463TIP3   OH231331   4.867   2.971   5.853
10463TIP3    H131332   4.794   2.907   5.840
10463TIP3    H231333   4.846   3.006   5.943
10464TIP3   OH231334   5.764   3.210   6.479
10464TIP3    H131335   5.790   3.260   6.399
10464TIP3    H231336   5.680   3.168   6.452
10465TIP3   OH231337   5.323   2.282   5.718
10465TIP3    H131338   5.227   2.264   5.726
10465TIP3    H231339   5.331   2.377   5.743
10466TIP3   OH231340   5.263   3.292   6.849
10466TIP3    H131341   5.294   3.274   6.939
10466TIP3    H231342   5.225   3.381   6.856
10467TIP3   OH231343   5.391   2.533   5.820
10467TIP3    H131344   5.488   2.540   5.836
10467TIP3    H231345   5.372   2.614   5.769
10468TIP3   OH231346   4.559   2.996   6.527
10468TIP3    H131347   4.599   2.965   6.443
10468TIP3    H231348   4.599   2.936   6.592
10469TIP3   OH231349   5.010   3.122   5.675
10469TIP3    H131350   4.962   3.208   5.678
10469TIP3    H231351   4.956   3.068   5.736
10470TIP3   OH231352   4.441   2.905   7.142
10470TIP3    H131353   4.441   2.900   7.240
10470TIP3    H231354   4.361   2.853   7.121
10471TIP3   OH231355   5.166   3.031   7.161
10471TIP3    H131356   5.104   2.971   7.117
10471TIP3    H231357   5.252   2.995   7.131
10472TIP3   OH231358   5.423   3.553   6.746
10472TIP3    H131359   5.327   3.550   6.760
10472TIP3    H231360   5.452   3.604   6.824
10473TIP3   OH231361   5.832   2.626   5.654
10473TIP3    H131362   5.771   2.582   5.591
10473TIP3    H231363   5.829   2.716   5.615
10474TIP3   OH231364   6.053   3.486   6.730
10474TIP3    H131365   5.956   3.476   6.722
10474TIP3    H231366   6.081   3.454   6.641
10475TIP3   OH231367   5.539   3.443   5.565
10475TIP3    H131368   5.508   3.377   5.627
10475TIP3    H231369   5.547   3.394   5.481
10476TIP3   OH231370   5.531   3.073   6.395
10476TIP3    H131371   5.437   3.048   6.409
10476TIP3    H231372   5.564   2.992   6.351
10477TIP3   OH231373   4.659   3.300   6.151
10477TIP3    H131374   4.654   3.382   6.098
10477TIP3    H231375   4.566   3.283   6.168
10478TIP3   OH231376   4.226   2.603   5.860
10478TIP3    H131377   4.269   2.689   5.880
10478TIP3    H231378   4.148   2.607   5.919
10479TIP3   OH231379   4.792   3.064   6.095
10479TIP3    H131380   4.758   3.154   6.113
10479TIP3    H231381   4.757   3.014   6.171
10480TIP3   OH231382   4.930   3.643   6.621
10480TIP3    H131383   4.972   3.715   6.571
10480TIP3    H231384   5.006   3.606   6.668
10481TIP3   OH231385   4.578   3.537   6.004
10481TIP3    H131386   4.492   3.545   6.051
10481TIP3    H231387   4.609   3.630   6.007
10482TIP3   OH231388   5.314   3.277   6.582
10482TIP3    H131389   5.303   3.275   6.679
10482TIP3    H231390   5.396   3.225   6.571
10483TIP3   OH231391   5.293   3.173   5.463
10483TIP3    H131392   5.346   3.147   5.542
10483TIP3    H231393   5.205   3.144   5.490
10484TIP3   OH231394   5.564   3.808   6.632
10484TIP3    H131395   5.484   3.752   6.626
10484TIP3    H231396   5.547   3.872   6.559
10485TIP3   OH231397   5.630   3.644   5.282
10485TIP3    H131398   5.666   3.719   5.231
10485TIP3    H231399   5.549   3.686   5.318
10486TIP3   OH231400   4.648   2.418   7.148
10486TIP3    H131401   4.551   2.424   7.163
10486TIP3    H231402   4.676   2.364   7.224
10487TIP3   OH231403   5.454   3.101   5.676
10487TIP3    H131404   5.443   3.037   5.749
10487TIP3    H231405   5.551   3.099   5.666
10488TIP3   OH231406   4.369   3.503   6.779
10488TIP3    H131407   4.420   3.429   6.816
10488TIP3    H231408   4.393   3.574   6.840
10489TIP3   OH231409   4.658   3.150   5.463
10489TIP3    H131410   4.669   3.057   5.437
10489TIP3    H231411   4.638   3.141   5.558
10490TIP3   OH231412   4.603   3.156   5.734
10490TIP3    H131413   4.672   3.130   5.796
10490TIP3    H231414   4.604   3.254   5.742
10491TIP3   OH231415   4.334   2.849   5.941
10491TIP3    H131416   4.268   2.894   5.997
10491TIP3    H231417   4.346   2.917   5.872
10492TIP3   OH231418   5.492   2.481   6.829
10492TIP3    H131419   5.569   2.525   6.869
10492TIP3    H231420   5.479   2.403   6.886
10493TIP3   OH231421   5.371   2.232   6.000
10493TIP3    H131422   5.356   2.255   5.906
10493TIP3    H231423   5.410   2.315   6.035
10494TIP3   OH231424   4.870   3.353   5.683
10494TIP3    H131425   4.782   3.375   5.721
10494TIP3    H231426   4.882   3.429   5.624
10495TIP3   OH231427   5.054   2.417   6.099
10495TIP3    H131428   5.118   2.490   6.082
10495TIP3    H231429   5.060   2.408   6.196
10496TIP3   OH231430   5.327   2.733   6.905
10496TIP3    H131431   5.349   2.788   6.983
10496TIP3    H231432   5.381   2.653   6.920
10497TIP3   OH231433   5.198   2.137   6.199
10497TIP3    H131434   5.188   2.215   6.257
10497TIP3    H231435   5.261   2.172   6.132
10498TIP3   OH231436   4.615   3.427   5.754
10498TIP3    H131437   4.583   3.497   5.692
10498TIP3    H231438   4.597   3.469   5.841
10499TIP3   OH231439   4.712   2.142   5.990
10499TIP3    H131440   4.709   2.233   6.027
10499TIP3    H231441   4.808   2.125   5.998
10500TIP3   OH231442   5.962   2.631   6.892
10500TIP3    H131443   5.864   2.627   6.893
10500TIP3    H231444   5.981   2.604   6.802
10501TIP3   OH231445   5.616   2.828   6.274
10501TIP3    H131446   5.540   2.769   6.288
10501TIP3    H231447   5.688   2.782   6.323
10502TIP3   OH231448   4.330   3.052   5.745
10502TIP3    H131449   4.393   3.125   5.754
10502TIP3    H231450   4.376   2.998   5.677
10503TIP3   OH231451   4.271   2.332   5.879
10503TIP3    H131452   4.275   2.430   5.877
10503TIP3    H231453   4.189   2.316   5.832
10504TIP3   OH231454   5.586   3.788   6.222
10504TIP3    H131455   5.543   3.834   6.147
10504TIP3    H231456   5.680   3.807   6.202
10505TIP3   OH231457   4.664   2.052   6.748
10505TIP3    H131458   4.632   2.020   6.662
10505TIP3    H231459   4.650   1.974   6.806
10506TIP3   OH231460   4.190   3.263   6.129
10506TIP3    H131461   4.131   3.302   6.194
10506TIP3    H231462   4.159   3.308   6.046
10507TIP3   OH231463   4.358   3.817   7.203
10507TIP3    H131464   4.445   3.815   7.249
10507TIP3    H231465   4.336   3.723   7.201
10508TIP3   OH231466   4.837   3.774   7.248
10508TIP3    H131467   4.932   3.755   7.253
10508TIP3    H231468   4.809   3.714   7.176
10509TIP3   OH231469   4.820   3.352   5.373
10509TIP3    H131470   4.763   3.282   5.412
10509TIP3    H231471   4.895   3.299   5.341
10510TIP3   OH231472   5.476   3.685   6.982
10510TIP3    H131473   5.469   3.615   7.051
10510TIP3    H231474   5.554   3.736   7.012
10511TIP3   OH231475   5.257   3.392   5.290
10511TIP3    H131476   5.294   3.325   5.350
10511TIP3    H231477   5.315   3.386   5.212
10512TIP3   OH231478   4.490   3.221   7.407
10512TIP3    H131479   4.505   3.124   7.406
10512TIP3    H231480   4.406   3.228   7.356
10513TIP3   OH231481   4.467   2.868   5.598
10513TIP3    H131482   4.524   2.840   5.672
10513TIP3    H231483   4.534   2.874   5.526
10514TIP3   OH231484   5.094   3.308   7.177
10514TIP3    H131485   5.052   3.327   7.091
10514TIP3    H231486   5.125   3.215   7.166
10515TIP3   OH231487   4.983   3.071   5.405
10515TIP3    H131488   4.982   3.082   5.503
10515TIP3    H231489   4.980   2.973   5.399
10516TIP3   OH231490   5.587   3.318   6.784
10516TIP3    H131491   5.664   3.360   6.741
10516TIP3    H231492   5.518   3.386   6.768
10517TIP3   OH231493   4.615   2.967   7.386
10517TIP3    H131494   4.684   2.904   7.364
10517TIP3    H231495   4.641   2.995   7.476
10518TIP3   OH231496   4.672   2.777   5.818
10518TIP3    H131497   4.643   2.738   5.902
10518TIP3    H231498   4.709   2.699   5.770
10519TIP3   OH231499   4.946   2.842   7.050
10519TIP3    H131500   4.865   2.897   7.049
10519TIP3    H231501   4.994   2.875   6.971
10520TIP3   OH231502   4.775   2.569   5.659
10520TIP3    H131503   4.749   2.578   5.564
10520TIP3    H231504   4.872   2.573   5.651
10521TIP3   OH231505   5.460   3.241   7.180
10521TIP3    H131506   5.539   3.213   7.133
10521TIP3    H231507   5.455   3.176   7.253
10522TIP3   OH231508   5.594   2.898   5.325
10522TIP3    H131509   5.574   2.854   5.240
10522TIP3    H231510   5.560   2.988   5.304
10523TIP3   OH231511   5.067   2.629   7.171
10523TIP3    H131512   5.066   2.551   7.111
10523TIP3    H231513   5.023   2.697   7.115
10524TIP3   OH231514   5.069   2.413   6.980
10524TIP3    H131515   5.096   2.457   6.897
10524TIP3    H231516   4.975   2.392   6.961
10525TIP3   OH231517   5.093   2.948   6.852
10525TIP3    H131518   5.178   2.965   6.810
10525TIP3    H231519   5.035   3.014   6.807
10526TIP3   OH231520   5.675   2.915   7.231
10526TIP3    H131521   5.726   2.834   7.244
10526TIP3    H231522   5.742   2.974   7.194
10527TIP3   OH231523   5.718   3.169   6.968
10527TIP3    H131524   5.660   3.224   6.910
10527TIP3    H231525   5.806   3.192   6.930
10528TIP3   OH231526   4.947   2.734   7.407
10528TIP3    H131527   4.875   2.668   7.421
10528TIP3    H231528   4.977   2.710   7.317
10529TIP3   OH231529   5.199   2.176   7.051
10529TIP3    H131530   5.151   2.258   7.026
10529TIP3    H231531   5.130   2.108   7.038
10530TIP3   OH231532   5.327   2.678   7.265
10530TIP3    H131533   5.313   2.666   7.360
10530TIP3    H231534   5.237   2.656   7.232
10531TIP3   OH231535   5.563   2.628   7.118
10531TIP3    H131536   5.490   2.632   7.182
10531TIP3    H231537   5.638   2.601   7.174
10532TIP3   OH231538   5.791   2.572   7.269
10532TIP3    H131539   5.805   2.476   7.286
10532TIP3    H231540   5.788   2.610   7.359
10533TIP3   OH231541   4.777   2.516   7.459
10533TIP3    H131542   4.787   2.425   7.426
10533TIP3    H231543   4.814   2.508   7.549
10534TIP3   OH231544   5.292   2.184   7.309
10534TIP3    H131545   5.359   2.114   7.301
10534TIP3    H231546   5.253   2.182   7.219
10535TIP3   OH231547   5.359   2.400   7.468
10535TIP3    H131548   5.337   2.330   7.402
10535TIP3    H231549   5.282   2.460   7.461
10536TIP3   OH231550   4.584   3.631   5.566
10536TIP3    H131551   4.678   3.624   5.544
10536TIP3    H231552   4.553   3.682   5.489
10537TIP3   OH231553   4.061   3.012   5.779
10537TIP3    H131554   4.156   3.033   5.766
10537TIP3    H231555   4.055   2.924   5.738
10538TIP3   OH231556   4.002   3.623   6.181
10538TIP3    H131557   3.923   3.576   6.148
10538TIP3    H231558   4.026   3.566   6.256
10539TIP3   OH231559   4.118   3.467   6.382
10539TIP3    H131560   4.099   3.400   6.449
10539TIP3    H231561   4.166   3.533   6.436
10540TIP3   OH231562   5.839   3.880   6.183
10540TIP3    H131563   5.866   3.904   6.273
10540TIP3    H231564   5.911   3.917   6.129
10541TIP3   OH231565   5.870   3.894   6.464
10541TIP3    H131566   5.824   3.807   6.461
10541TIP3    H231567   5.943   3.869   6.524
10542TIP3   OH231568   5.913   3.573   7.038
10542TIP3    H131569   5.843   3.583   7.104
10542TIP3    H231570   5.958   3.660   7.042
10543TIP3   OH231571   5.733   3.084   5.656
10543TIP3    H131572   5.799   3.149   5.627
10543TIP3    H231573   5.776   3.046   5.736
10544TIP3   OH231574   5.860   2.952   5.860
10544TIP3    H131575   5.793   2.911   5.920
10544TIP3    H231576   5.925   2.988   5.923
10545TIP3   OH231577   5.911   3.345   6.289
10545TIP3    H131578   5.968   3.278   6.245
10545TIP3    H231579   5.907   3.416   6.223
10546TIP3   OH231580   5.742   3.647   6.484
10546TIP3    H131581   5.670   3.686   6.538
10546TIP3    H231582   5.692   3.599   6.414
10547TIP3   OH231583   5.796   2.861   5.506
10547TIP3    H131584   5.725   2.863   5.439
10547TIP3    H231585   5.768   2.936   5.562
10548TIP3   OH231586   5.668   2.533   5.458
10548TIP3    H131587   5.621   2.569   5.383
10548TIP3    H231588   5.645   2.438   5.450
10549TIP3   OH231589   5.671   2.812   6.006
10549TIP3    H131590   5.679   2.715   5.999
10549TIP3    H231591   5.657   2.825   6.102
10550TIP3   OH231592   4.298   2.882   6.752
10550TIP3    H131593   4.295   2.850   6.660
10550TIP3    H231594   4.395   2.883   6.768
10551TIP3   OH231595   5.963   3.238   6.863
10551TIP3    H131596   6.033   3.168   6.855
10551TIP3    H231597   5.995   3.305   6.801
10552TIP3   OH231598   6.136   3.032   6.882
10552TIP3    H131599   6.066   2.978   6.924
10552TIP3    H231600   6.215   2.975   6.894
10553TIP3   OH231601   5.611   2.267   5.442
10553TIP3    H131602   5.684   2.235   5.500
10553TIP3    H231603   5.536   2.209   5.465
10554TIP3   OH231604   5.669   2.527   5.899
10554TIP3    H131605   5.710   2.438   5.913
10554TIP3    H231606   5.727   2.560   5.828
10555TIP3   OH231607   5.828   2.696   6.396
10555TIP3    H131608   5.914   2.721   6.355
10555TIP3    H231609   5.843   2.734   6.485
10556TIP3   OH231610   5.899   2.840   6.628
10556TIP3    H131611   5.822   2.877   6.676
10556TIP3    H231612   5.931   2.919   6.579
10557TIP3   OH231613   4.509   2.568   7.415
10557TIP3    H131614   4.606   2.565   7.424
10557TIP3    H231615   4.484   2.486   7.462
10558TIP3   OH231616   6.350   2.435   7.183
10558TIP3    H131617   6.411   2.372   7.140
10558TIP3    H231618   6.319   2.488   7.107
10559TIP3   OH231619   5.778   2.277   5.937
10559TIP3    H131620   5.826   2.261   6.022
10559TIP3    H231621   5.717   2.201   5.937
10560TIP3   OH231622   4.478   2.261   6.756
10560TIP3    H131623   4.542   2.188   6.765
10560TIP3    H231624   4.539   2.337   6.749
10561TIP3   OH231625   4.279   2.532   6.834
10561TIP3    H131626   4.329   2.536   6.750
10561TIP3    H231627   4.295   2.620   6.871
10562TIP3   OH231628   6.219   2.571   6.989
10562TIP3    H131629   6.135   2.616   7.011
10562TIP3    H231630   6.185   2.501   6.930
10563TIP3   OH231631   5.855   2.208   5.573
10563TIP3    H131632   5.896   2.138   5.517
10563TIP3    H231633   5.923   2.279   5.570
10564TIP3   OH231634   4.264   2.033   6.328
10564TIP3    H131635   4.172   2.032   6.360
10564TIP3    H231636   4.259   2.095   6.252
10565TIP3   OH231637   5.423   3.743   5.837
10565TIP3    H131638   5.477   3.733   5.756
10565TIP3    H231639   5.477   3.805   5.889
10566TIP3   OH231640   4.482   2.109   7.143
10566TIP3    H131641   4.435   2.117   7.227
10566TIP3    H231642   4.420   2.154   7.083
10567TIP3   OH231643   4.523   3.549   7.222
10567TIP3    H131644   4.430   3.522   7.204
10567TIP3    H231645   4.532   3.525   7.315
10568TIP3   OH231646   4.704   3.582   6.772
10568TIP3    H131647   4.654   3.656   6.732
10568TIP3    H231648   4.790   3.597   6.726
10569TIP3   OH231649   5.144   3.823   6.908
10569TIP3    H131650   5.186   3.823   6.997
10569TIP3    H231651   5.210   3.875   6.857
10570TIP3   OH231652   5.324   3.977   6.769
10570TIP3    H131653   5.395   3.925   6.728
10570TIP3    H231654   5.376   4.034   6.830
10571TIP3   OH231655   6.120   2.337   6.867
10571TIP3    H131656   6.031   2.332   6.830
10571TIP3    H231657   6.152   2.244   6.856
10572TIP3   OH231658   4.379   3.838   6.794
10572TIP3    H131659   4.289   3.870   6.770
10572TIP3    H231660   4.387   3.876   6.882
10573TIP3   OH231661   4.615   3.816   6.654
10573TIP3    H131662   4.528   3.828   6.698
10573TIP3    H231663   4.595   3.847   6.563
10574TIP3   OH231664   5.040   3.842   6.451
10574TIP3    H131665   4.968   3.860   6.387
10574TIP3    H231666   5.051   3.930   6.493
10575TIP3   OH231667   5.309   3.781   6.503
10575TIP3    H131668   5.215   3.798   6.483
10575TIP3    H231669   5.352   3.856   6.460
10576TIP3   OH231670   5.517   3.973   6.417
10576TIP3    H131671   5.502   4.057   6.368
10576TIP3    H231672   5.542   3.912   6.345
10577TIP3   OH231673   4.290   3.631   6.540
10577TIP3    H131674   4.317   3.603   6.630
10577TIP3    H231675   4.361   3.587   6.488
10578TIP3   OH231676   4.484   3.502   6.399
10578TIP3    H131677   4.499   3.418   6.449
10578TIP3    H231678   4.575   3.537   6.394
10579TIP3   OH231679   4.753   3.594   6.402
10579TIP3    H131680   4.782   3.502   6.392
10579TIP3    H231681   4.799   3.617   6.485
10580TIP3   OH231682   5.327   2.252   6.489
10580TIP3    H131683   5.284   2.181   6.539
10580TIP3    H231684   5.401   2.206   6.445
10581TIP3   OH231685   5.845   2.128   6.390
10581TIP3    H131686   5.883   2.182   6.317
10581TIP3    H231687   5.751   2.153   6.386
10582TIP3   OH231688   5.942   2.230   6.155
10582TIP3    H131689   6.016   2.179   6.116
10582TIP3    H231690   5.975   2.322   6.141
10583TIP3   OH231691   4.573   1.960   6.501
10583TIP3    H131692   4.481   1.928   6.504
10583TIP3    H231693   4.621   1.874   6.497
10584TIP3   OH231694   4.364   1.831   6.152
10584TIP3    H131695   4.392   1.888   6.079
10584TIP3    H231696   4.334   1.896   6.219
10585TIP3   OH231697   5.021   1.989   6.385
10585TIP3    H131698   5.075   2.038   6.321
10585TIP3    H231699   5.043   2.034   6.467
10586TIP3   OH231700   5.560   2.140   6.367
10586TIP3    H131701   5.563   2.102   6.278
10586TIP3    H231702   5.549   2.060   6.423
10587TIP3   OH231703   5.594   2.065   5.930
10587TIP3    H131704   5.509   2.109   5.947
10587TIP3    H231705   5.579   1.979   5.974
10588TIP3   OH231706   4.080   3.398   5.923
10588TIP3    H131707   3.991   3.370   5.895
10588TIP3    H231708   4.066   3.494   5.928
10589TIP3   OH231709   4.480   1.987   5.915
10589TIP3    H131710   4.528   1.926   5.856
10589TIP3    H231711   4.552   2.042   5.949
10590TIP3   OH231712   4.989   2.166   6.013
10590TIP3    H131713   5.051   2.121   6.073
10590TIP3    H231714   5.009   2.259   6.037
10591TIP3   OH231715   4.850   3.586   5.512
10591TIP3    H131716   4.938   3.610   5.475
10591TIP3    H231717   4.828   3.512   5.451
10592TIP3   OH231718   5.573   3.711   5.606
10592TIP3    H131719   5.565   3.613   5.597
10592TIP3    H231720   5.523   3.740   5.527
10593TIP3   OH231721   4.782   2.237   7.389
10593TIP3    H131722   4.745   2.170   7.450
10593TIP3    H231723   4.875   2.238   7.419
10594TIP3   OH231724   5.031   2.237   7.511
10594TIP3    H131725   5.117   2.217   7.471
10594TIP3    H231726   5.022   2.164   7.576
10595TIP3   OH231727   4.151   3.425   5.567
10595TIP3    H131728   4.144   3.445   5.662
10595TIP3    H231729   4.241   3.385   5.560
10596TIP3   OH231730   5.858   2.301   7.300
10596TIP3    H131731   5.876   2.271   7.392
10596TIP3    H231732   5.947   2.297   7.260
10597TIP3   OH231733   5.791   3.852   6.793
10597TIP3    H131734   5.713   3.822   6.743
10597TIP3    H231735   5.772   3.948   6.800
10598TIP3   OH231736   7.063   3.226   5.555
10598TIP3    H131737   7.032   3.317   5.535
10598TIP3    H231738   6.986   3.175   5.525
10599TIP3   OH231739   7.063   3.225   5.943
10599TIP3    H131740   7.097   3.201   6.031
10599TIP3    H231741   7.019   3.143   5.915
10600TIP3   OH231742   6.358   3.120   6.305
10600TIP3    H131743   6.385   3.053   6.371
10600TIP3    H231744   6.435   3.179   6.306
10601TIP3   OH231745   7.307   3.530   5.623
10601TIP3    H131746   7.288   3.460   5.688
10601TIP3    H231747   7.335   3.604   5.679
10602TIP3   OH231748   6.328   3.529   6.023
10602TIP3    H131749   6.321   3.431   6.025
10602TIP3    H231750   6.423   3.540   6.038
10603TIP3   OH231751   6.039   2.730   5.810
10603TIP3    H131752   5.992   2.813   5.830
10603TIP3    H231753   5.966   2.680   5.769
10604TIP3   OH231754   6.095   3.019   5.989
10604TIP3    H131755   6.145   2.941   6.024
10604TIP3    H231756   6.159   3.057   5.928
10605TIP3   OH231757   6.955   3.990   5.639
10605TIP3    H131758   6.999   3.918   5.590
10605TIP3    H231759   6.945   3.952   5.727
10606TIP3   OH231760   6.859   3.454   5.985
10606TIP3    H131761   6.899   3.376   5.944
10606TIP3    H231762   6.941   3.500   6.012
10607TIP3   OH231763   7.874   2.771   5.985
10607TIP3    H131764   7.903   2.854   6.026
10607TIP3    H231765   7.899   2.785   5.892
10608TIP3   OH231766   7.273   2.951   6.018
10608TIP3    H131767   7.315   2.865   6.039
10608TIP3    H231768   7.240   2.934   5.927
10609TIP3   OH231769   6.613   2.611   5.983
10609TIP3    H131770   6.592   2.685   5.922
10609TIP3    H231771   6.563   2.538   5.941
10610TIP3   OH231772   7.306   2.704   5.605
10610TIP3    H131773   7.377   2.688   5.671
10610TIP3    H231774   7.360   2.738   5.531
10611TIP3   OH231775   6.243   2.814   6.092
10611TIP3    H131776   6.326   2.796   6.141
10611TIP3    H231777   6.258   2.758   6.013
10612TIP3   OH231778   6.684   3.011   5.883
10612TIP3    H131779   6.778   2.986   5.898
10612TIP3    H231780   6.646   2.926   5.853
10613TIP3   OH231781   7.948   2.980   6.157
10613TIP3    H131782   7.863   3.025   6.138
10613TIP3    H231783   7.968   3.016   6.245
10614TIP3   OH231784   6.606   2.595   6.420
10614TIP3    H131785   6.547   2.633   6.352
10614TIP3    H231786   6.553   2.612   6.501
10615TIP3   OH231787   6.951   3.447   5.426
10615TIP3    H131788   6.908   3.429   5.341
10615TIP3    H231789   6.907   3.530   5.452
10616TIP3   OH231790   6.713   3.368   6.212
10616TIP3    H131791   6.652   3.431   6.256
10616TIP3    H231792   6.753   3.424   6.143
10617TIP3   OH231793   7.511   2.708   5.783
10617TIP3    H131794   7.494   2.665   5.867
10617TIP3    H231795   7.563   2.786   5.810
10618TIP3   OH231796   6.478   2.710   6.203
10618TIP3    H131797   6.538   2.784   6.228
10618TIP3    H231798   6.529   2.671   6.129
10619TIP3   OH231799   6.534   3.561   6.300
10619TIP3    H131800   6.511   3.654   6.280
10619TIP3    H231801   6.468   3.542   6.371
10620TIP3   OH231802   5.933   3.256   5.547
10620TIP3    H131803   5.891   3.286   5.465
10620TIP3    H231804   5.966   3.341   5.584
10621TIP3   OH231805   7.374   3.773   5.786
10621TIP3    H131806   7.285   3.762   5.828
10621TIP3    H231807   7.363   3.860   5.743
10622TIP3   OH231808   7.667   2.669   6.152
10622TIP3    H131809   7.580   2.696   6.120
10622TIP3    H231810   7.727   2.702   6.082
10623TIP3   OH231811   6.959   2.312   6.135
10623TIP3    H131812   6.943   2.217   6.153
10623TIP3    H231813   6.883   2.352   6.182
10624TIP3   OH231814   7.075   3.817   5.460
10624TIP3    H131815   7.124   3.733   5.442
10624TIP3    H231816   7.137   3.881   5.419
10625TIP3   OH231817   7.219   3.602   5.372
10625TIP3    H131818   7.180   3.521   5.335
10625TIP3    H231819   7.257   3.568   5.456
10626TIP3   OH231820   7.600   3.683   6.131
10626TIP3    H131821   7.586   3.605   6.074
10626TIP3    H231822   7.581   3.757   6.070
10627TIP3   OH231823   6.891   3.076   5.391
10627TIP3    H131824   6.812   3.129   5.370
10627TIP3    H231825   6.937   3.073   5.305
10628TIP3   OH231826   6.849   2.865   5.101
10628TIP3    H131827   6.916   2.916   5.151
10628TIP3    H231828   6.907   2.801   5.055
10629TIP3   OH231829   7.795   3.323   5.979
10629TIP3    H131830   7.710   3.373   5.984
10629TIP3    H231831   7.824   3.346   5.888
10630TIP3   OH231832   7.241   3.160   5.359
10630TIP3    H131833   7.186   3.183   5.437
10630TIP3    H231834   7.325   3.135   5.403
10631TIP3   OH231835   7.473   3.198   6.276
10631TIP3    H131836   7.469   3.281   6.326
10631TIP3    H231837   7.386   3.200   6.231
10632TIP3   OH231838   6.473   3.156   5.778
10632TIP3    H131839   6.433   3.098   5.710
10632TIP3    H231840   6.549   3.103   5.808
10633TIP3   OH231841   6.608   3.577   5.920
10633TIP3    H131842   6.583   3.529   5.841
10633TIP3    H231843   6.695   3.539   5.942
10634TIP3   OH231844   6.608   3.127   6.130
10634TIP3    H131845   6.643   3.106   6.041
10634TIP3    H231846   6.651   3.213   6.151
10635TIP3   OH231847   7.135   3.765   5.911
10635TIP3    H131848   7.122   3.845   5.965
10635TIP3    H231849   7.117   3.693   5.974
10636TIP3   OH231850   6.739   3.700   6.440
10636TIP3    H131851   6.680   3.751   6.498
10636TIP3    H231852   6.682   3.624   6.416
10637TIP3   OH231853   7.077   3.019   5.188
10637TIP3    H131854   7.137   3.079   5.237
10637TIP3    H231855   7.104   3.039   5.095
10638TIP3   OH231856   6.826   3.694   5.456
10638TIP3    H131857   6.907   3.746   5.472
10638TIP3    H231858   6.763   3.761   5.426
10639TIP3   OH231859   6.535   3.858   6.545
10639TIP3    H131860   6.502   3.852   6.454
10639TIP3    H231861   6.456   3.835   6.598
10640TIP3   OH231862   7.595   2.256   5.237
10640TIP3    H131863   7.513   2.278   5.287
10640TIP3    H231864   7.609   2.339   5.187
10641TIP3   OH231865   6.340   2.999   5.578
10641TIP3    H131866   6.269   3.042   5.526
10641TIP3    H231867   6.302   2.913   5.596
10642TIP3   OH231868   7.403   3.659   4.784
10642TIP3    H131869   7.345   3.653   4.706
10642TIP3    H231870   7.482   3.609   4.759
10643TIP3   OH231871   6.124   3.388   6.487
10643TIP3    H131872   6.058   3.357   6.422
10643TIP3    H231873   6.159   3.304   6.524
10644TIP3   OH231874   5.974   3.579   6.116
10644TIP3    H131875   6.070   3.568   6.113
10644TIP3    H231876   5.966   3.652   6.180
10645TIP3   OH231877   7.837   4.030   6.180
10645TIP3    H131878   7.836   3.934   6.194
10645TIP3    H231879   7.753   4.055   6.226
10646TIP3   OH231880   6.942   3.816   6.307
10646TIP3    H131881   6.939   3.906   6.344
10646TIP3    H231882   6.870   3.773   6.359
10647TIP3   OH231883   6.706   3.944   5.265
10647TIP3    H131884   6.655   3.928   5.184
10647TIP3    H231885   6.673   4.031   5.295
10648TIP3   OH231886   6.143   3.791   5.652
10648TIP3    H131887   6.190   3.783   5.738
10648TIP3    H231888   6.093   3.708   5.651
10649TIP3   OH231889   6.918   3.826   4.900
10649TIP3    H131890   6.994   3.768   4.884
10649TIP3    H231891   6.935   3.850   4.995
10650TIP3   OH231892   6.953   3.891   5.167
10650TIP3    H131893   6.867   3.902   5.213
10650TIP3    H231894   7.007   3.852   5.239
10651TIP3   OH231895   7.726   3.157   6.454
10651TIP3    H131896   7.643   3.169   6.406
10651TIP3    H231897   7.742   3.061   6.444
10652TIP3   OH231898   6.338   3.559   6.493
10652TIP3    H131899   6.394   3.519   6.561
10652TIP3    H231900   6.261   3.499   6.492
10653TIP3   OH231901   6.723   2.390   6.265
10653TIP3    H131902   6.634   2.360   6.236
10653TIP3    H231903   6.697   2.471   6.313
10654TIP3   OH231904   7.257   2.504   6.458
10654TIP3    H131905   7.325   2.475   6.522
10654TIP3    H231906   7.173   2.485   6.506
10655TIP3   OH231907   7.497   2.936   6.379
10655TIP3    H131908   7.443   2.931   6.461
10655TIP3    H231909   7.470   3.022   6.341
10656TIP3   OH231910   7.156   3.059   4.933
10656TIP3    H131911   7.122   3.036   4.845
10656TIP3    H231912   7.237   3.108   4.909
10657TIP3   OH231913   6.867   2.437   5.235
10657TIP3    H131914   6.833   2.434   5.327
10657TIP3    H231915   6.828   2.355   5.200
10658TIP3   OH231916   6.653   2.907   6.283
10658TIP3    H131917   6.607   2.932   6.365
10658TIP3    H231918   6.638   2.988   6.228
10659TIP3   OH231919   6.538   2.792   5.796
10659TIP3    H131920   6.446   2.766   5.815
10659TIP3    H231921   6.550   2.750   5.707
10660TIP3   OH231922   7.029   2.877   5.525
10660TIP3    H131923   6.978   2.948   5.482
10660TIP3    H231924   7.084   2.843   5.452
10661TIP3   OH231925   7.210   3.148   6.601
10661TIP3    H131926   7.182   3.081   6.667
10661TIP3    H231927   7.302   3.164   6.630
10662TIP3   OH231928   7.185   2.903   5.761
10662TIP3    H131929   7.122   2.931   5.692
10662TIP3    H231930   7.221   2.824   5.717
10663TIP3   OH231931   6.472   2.938   6.493
10663TIP3    H131932   6.519   2.997   6.554
10663TIP3    H231933   6.461   2.857   6.546
10664TIP3   OH231934   6.524   2.413   5.200
10664TIP3    H131935   6.514   2.411   5.297
10664TIP3    H231936   6.446   2.466   5.175
10665TIP3   OH231937   6.067   2.453   6.072
10665TIP3    H131938   6.140   2.487   6.127
10665TIP3    H231939   6.112   2.426   5.990
10666TIP3   OH231940   6.033   2.436   5.590
10666TIP3    H131941   6.079   2.473   5.512
10666TIP3    H231942   5.973   2.510   5.610
10667TIP3   OH231943   7.199   3.150   6.182
10667TIP3    H131944   7.231   3.078   6.124
10667TIP3    H231945   7.166   3.097   6.258
10668TIP3   OH231946   6.870   2.612   5.856
10668TIP3    H131947   6.788   2.612   5.909
10668TIP3    H231948   6.938   2.609   5.924
10669TIP3   OH231949   6.300   2.671   5.863
10669TIP3    H131950   6.206   2.679   5.835
10669TIP3    H231951   6.323   2.579   5.841
10670TIP3   OH231952   6.565   2.664   5.555
10670TIP3    H131953   6.659   2.679   5.533
10670TIP3    H231954   6.519   2.686   5.471
10671TIP3   OH231955   7.359   2.689   6.057
10671TIP3    H131956   7.329   2.702   6.150
10671TIP3    H231957   7.289   2.629   6.024
10672TIP3   OH231958   6.415   2.700   5.331
10672TIP3    H131959   6.343   2.655   5.283
10672TIP3    H231960   6.466   2.737   5.256
10673TIP3   OH231961   7.531   4.378   6.279
10673TIP3    H131962   7.527   4.402   6.185
10673TIP3    H231963   7.608   4.429   6.309
10674TIP3   OH231964   6.947   2.943   5.955
10674TIP3    H131965   7.022   2.903   5.908
10674TIP3    H231966   6.952   2.901   6.043
10675TIP3   OH231967   6.468   2.429   5.836
10675TIP3    H131968   6.432   2.352   5.885
10675TIP3    H231969   6.515   2.386   5.764
10676TIP3   OH231970   6.924   2.844   6.243
10676TIP3    H131971   6.834   2.879   6.258
10676TIP3    H231972   6.980   2.905   6.293
10677TIP3   OH231973   6.662   3.230   5.336
10677TIP3    H131974   6.590   3.163   5.326
10677TIP3    H231975   6.642   3.263   5.427
10678TIP3   OH231976   7.560   3.466   5.966
10678TIP3    H131977   7.583   3.517   5.885
10678TIP3    H231978   7.476   3.422   5.941
10679TIP3   OH231979   7.119   2.539   5.205
10679TIP3    H131980   7.022   2.520   5.213
10679TIP3    H231981   7.126   2.634   5.230
10680TIP3   OH231982   7.068   3.556   6.340
10680TIP3    H131983   7.066   3.527   6.432
10680TIP3    H231984   7.016   3.638   6.345
10681TIP3   OH231985   7.187   2.790   5.307
10681TIP3    H131986   7.284   2.796   5.322
10681TIP3    H231987   7.169   2.871   5.255
10682TIP3   OH231988   6.353   3.251   6.013
10682TIP3    H131989   6.395   3.221   5.930
10682TIP3    H231990   6.397   3.196   6.079
10683TIP3   OH231991   6.805   3.378   5.153
10683TIP3    H131992   6.757   3.463   5.160
10683TIP3    H231993   6.754   3.323   5.217
10684TIP3   OH231994   6.214   3.184   6.643
10684TIP3    H131995   6.269   3.173   6.723
10684TIP3    H231996   6.167   3.100   6.638
10685TIP3   OH231997   6.973   3.287   6.663
10685TIP3    H131998   6.893   3.262   6.613
10685TIP3    H231999   7.044   3.243   6.613
10686TIP3   OH232000   7.220   3.817   6.227
10686TIP3    H132001   7.124   3.806   6.244
10686TIP3    H232002   7.247   3.863   6.309
10687TIP3   OH232003   7.628   2.882   5.141
10687TIP3    H132004   7.567   2.838   5.078
10687TIP3    H232005   7.626   2.971   5.102
10688TIP3   OH232006   7.851   3.742   6.219
10688TIP3    H132007   7.753   3.734   6.212
10688TIP3    H232008   7.877   3.710   6.130
10689TIP3   OH232009   7.324   3.703   5.062
10689TIP3    H132010   7.300   3.628   5.118
10689TIP3    H232011   7.347   3.661   4.977
10690TIP3   OH232012   7.328   3.329   5.881
10690TIP3    H132013   7.234   3.305   5.897
10690TIP3    H232014   7.360   3.248   5.838
10691TIP3   OH232015   6.455   3.555   5.634
10691TIP3    H132016   6.449   3.638   5.583
10691TIP3    H232017   6.363   3.539   5.656
10692TIP3   OH232018   6.021   2.859   5.346
10692TIP3    H132019   6.065   2.944   5.368
10692TIP3    H232020   5.943   2.863   5.406
10693TIP3   OH232021   6.589   3.319   5.580
10693TIP3    H132022   6.555   3.409   5.600
10693TIP3    H232023   6.556   3.268   5.656
10694TIP3   OH232024   6.724   3.899   6.107
10694TIP3    H132025   6.771   3.970   6.060
10694TIP3    H232026   6.797   3.860   6.159
10695TIP3   OH232027   6.372   3.797   5.490
10695TIP3    H132028   6.287   3.805   5.539
10695TIP3    H232029   6.404   3.890   5.494
10696TIP3   OH232030   7.110   3.533   6.071
10696TIP3    H132031   7.100   3.536   6.169
10696TIP3    H232032   7.189   3.478   6.062
10697TIP3   OH232033   7.073   3.408   4.957
10697TIP3    H132034   7.135   3.393   5.032
10697TIP3    H232035   6.989   3.390   5.001
10698TIP3   OH232036   7.362   4.064   6.118
10698TIP3    H132037   7.284   4.005   6.117
10698TIP3    H232038   7.341   4.126   6.046
10699TIP3   OH232039   6.446   2.675   6.635
10699TIP3    H132040   6.350   2.680   6.650
10699TIP3    H232041   6.475   2.621   6.710
10700TIP3   OH232042   7.250   3.362   5.167
10700TIP3    H132043   7.239   3.296   5.238
10700TIP3    H232044   7.347   3.358   5.154
10701TIP3   OH232045   6.162   3.760   6.266
10701TIP3    H132046   6.217   3.687   6.298
10701TIP3    H232047   6.189   3.830   6.327
10702TIP3   OH232048   6.447   3.414   4.945
10702TIP3    H132049   6.466   3.322   4.921
10702TIP3    H232050   6.433   3.405   5.042
10703TIP3   OH232051   6.397   3.413   5.219
10703TIP3    H132052   6.467   3.382   5.277
10703TIP3    H232053   6.401   3.511   5.232
10704TIP3   OH232054   6.131   3.104   5.427
10704TIP3    H132055   6.064   3.149   5.484
10704TIP3    H232056   6.144   3.173   5.359
10705TIP3   OH232057   7.289   2.738   6.317
10705TIP3    H132058   7.366   2.778   6.361
10705TIP3    H232059   7.273   2.658   6.372
10706TIP3   OH232060   7.166   2.489   5.487
10706TIP3    H132061   7.152   2.512   5.393
10706TIP3    H232062   7.205   2.572   5.522
10707TIP3   OH232063   6.664   3.609   5.165
10707TIP3    H132064   6.576   3.629   5.204
10707TIP3    H232065   6.682   3.693   5.121
10708TIP3   OH232066   6.850   2.674   5.586
10708TIP3    H132067   6.914   2.747   5.570
10708TIP3    H232068   6.856   2.665   5.684
10709TIP3   OH232069   7.123   2.989   6.388
10709TIP3    H132070   7.146   3.044   6.466
10709TIP3    H232071   7.175   2.909   6.405
10710TIP3   OH232072   6.994   2.395   5.686
10710TIP3    H132073   6.986   2.472   5.745
10710TIP3    H232074   7.057   2.429   5.618
10711TIP3   OH232075   6.410   3.685   5.241
10711TIP3    H132076   6.379   3.755   5.180
10711TIP3    H232077   6.393   3.727   5.328
10712TIP3   OH232078   6.508   2.399   5.476
10712TIP3    H132079   6.506   2.489   5.515
10712TIP3    H232080   6.604   2.381   5.484
10713TIP3   OH232081   7.763   2.889   6.378
10713TIP3    H132082   7.665   2.889   6.384
10713TIP3    H232083   7.774   2.849   6.290
10714TIP3   OH232084   7.413   3.084   5.761
10714TIP3    H132085   7.336   3.026   5.774
10714TIP3    H232086   7.483   3.037   5.810
10715TIP3   OH232087   6.128   3.310   5.230
10715TIP3    H132088   6.199   3.376   5.241
10715TIP3    H232089   6.171   3.252   5.164
10716TIP3   OH232090   6.068   2.589   5.365
10716TIP3    H132091   6.070   2.687   5.363
10716TIP3    H232092   5.986   2.570   5.319
10717TIP3   OH232093   7.382   4.044   5.709
10717TIP3    H132094   7.339   4.090   5.634
10717TIP3    H232095   7.476   4.062   5.688
10718TIP3   OH232096   6.459   2.309   6.236
10718TIP3    H132097   6.428   2.275   6.149
10718TIP3    H232098   6.447   2.231   6.294
10719TIP3   OH232099   5.995   3.529   5.615
10719TIP3    H132100   5.931   3.557   5.682
10719TIP3    H232101   5.959   3.572   5.534
10720TIP3   OH232102   6.155   4.074   6.690
10720TIP3    H132103   6.242   4.073   6.735
10720TIP3    H232104   6.136   3.979   6.687
10721TIP3   OH232105   6.635   4.035   6.732
10721TIP3    H132106   6.726   4.007   6.743
10721TIP3    H232107   6.605   3.974   6.661
10722TIP3   OH232108   6.610   3.616   4.848
10722TIP3    H132109   6.542   3.556   4.886
10722TIP3    H232110   6.681   3.553   4.833
10723TIP3   OH232111   7.276   3.942   6.466
10723TIP3    H132112   7.266   3.872   6.535
10723TIP3    H232113   7.351   3.994   6.500
10724TIP3   OH232114   6.278   3.490   6.897
10724TIP3    H132115   6.325   3.409   6.871
10724TIP3    H232116   6.195   3.483   6.844
10725TIP3   OH232117   6.263   3.125   5.085
10725TIP3    H132118   6.319   3.093   5.159
10725TIP3    H232119   6.330   3.130   5.014
10726TIP3   OH232120   6.917   3.562   6.632
10726TIP3    H132121   6.830   3.551   6.590
10726TIP3    H232122   6.935   3.471   6.659
10727TIP3   OH232123   6.766   3.332   4.880
10727TIP3    H132124   6.772   3.344   4.977
10727TIP3    H232125   6.772   3.234   4.876
10728TIP3   OH232126   7.385   3.569   6.272
10728TIP3    H132127   7.456   3.620   6.228
10728TIP3    H232128   7.309   3.630   6.262
10729TIP3   OH232129   6.410   3.196   6.867
10729TIP3    H132130   6.493   3.215   6.820
10729TIP3    H232131   6.428   3.232   6.955
10730TIP3   OH232132   6.467   3.033   5.304
10730TIP3    H132133   6.440   2.994   5.388
10730TIP3    H232134   6.504   2.956   5.256
10731TIP3   OH232135   6.729   3.092   6.536
10731TIP3    H132136   6.690   3.178   6.566
10731TIP3    H232137   6.786   3.126   6.463
10732TIP3   OH232138   6.571   2.827   5.145
10732TIP3    H132139   6.546   2.834   5.051
10732TIP3    H232140   6.669   2.829   5.138
10733TIP3   OH232141   7.266   3.502   6.672
10733TIP3    H132142   7.334   3.462   6.617
10733TIP3    H232143   7.246   3.432   6.737
10734TIP3   OH232144   7.392   3.155   4.813
10734TIP3    H132145   7.371   3.112   4.727
10734TIP3    H232146   7.358   3.245   4.795
10735TIP3   OH232147   6.866   2.887   6.654
10735TIP3    H132148   6.863   2.808   6.597
10735TIP3    H232149   6.817   2.953   6.601
10736TIP3   OH232150   6.865   2.670   6.465
10736TIP3    H132151   6.892   2.713   6.382
10736TIP3    H232152   6.771   2.648   6.447
10737TIP3   OH232153   6.888   3.203   6.345
10737TIP3    H132154   6.970   3.222   6.297
10737TIP3    H232155   6.826   3.268   6.305
10738TIP3   OH232156   7.474   3.169   6.721
10738TIP3    H132157   7.523   3.086   6.725
10738TIP3    H232158   7.540   3.229   6.682
10739TIP3   OH232159   7.514   3.426   6.460
10739TIP3    H132160   7.455   3.479   6.401
10739TIP3    H232161   7.601   3.448   6.419
10740TIP3   OH232162   6.748   2.987   6.899
10740TIP3    H132163   6.673   2.926   6.909
10740TIP3    H232164   6.774   2.971   6.806
10741TIP3   OH232165   6.996   2.433   6.537
10741TIP3    H132166   6.946   2.514   6.513
10741TIP3    H232167   6.927   2.364   6.526
10742TIP3   OH232168   7.123   2.936   6.750
10742TIP3    H132169   7.104   2.923   6.845
10742TIP3    H232170   7.034   2.916   6.714
10743TIP3   OH232171   7.360   2.883   6.605
10743TIP3    H132172   7.284   2.889   6.667
10743TIP3    H232173   7.433   2.857   6.664
10744TIP3   OH232174   7.596   2.839   6.755
10744TIP3    H132175   7.604   2.741   6.765
10744TIP3    H232176   7.588   2.869   6.848
10745TIP3   OH232177   6.574   2.772   6.947
10745TIP3    H132178   6.581   2.681   6.914
10745TIP3    H232179   6.612   2.763   7.037
10746TIP3   OH232180   7.090   2.443   6.794
10746TIP3    H132181   7.155   2.370   6.786
10746TIP3    H232182   7.049   2.439   6.705
10747TIP3   OH232183   7.158   2.659   6.950
10747TIP3    H132184   7.134   2.588   6.886
10747TIP3    H232185   7.080   2.718   6.944
10748TIP3   OH232186   6.380   3.890   5.054
10748TIP3    H132187   6.474   3.880   5.033
10748TIP3    H232188   6.351   3.941   4.975
10749TIP3   OH232189   5.857   3.271   5.263
10749TIP3    H132190   5.953   3.291   5.251
10749TIP3    H232191   5.851   3.181   5.225
10750TIP3   OH232192   5.774   3.884   5.684
10750TIP3    H132193   5.708   3.822   5.646
10750TIP3    H232194   5.818   3.825   5.749
10751TIP3   OH232195   5.908   3.730   5.870
10751TIP3    H132196   5.896   3.658   5.935
10751TIP3    H232197   5.961   3.791   5.923
10752TIP3   OH232198   7.638   4.130   5.669
10752TIP3    H132199   7.660   4.159   5.759
10752TIP3    H232200   7.701   4.181   5.615
10753TIP3   OH232201   7.665   4.150   5.950
10753TIP3    H132202   7.618   4.064   5.947
10753TIP3    H232203   7.737   4.127   6.010
10754TIP3   OH232204   7.712   3.828   6.525
10754TIP3    H132205   7.639   3.838   6.589
10754TIP3    H232206   7.753   3.917   6.529
10755TIP3   OH232207   7.528   3.341   5.145
10755TIP3    H132208   7.596   3.404   5.116
10755TIP3    H232209   7.572   3.302   5.224
10756TIP3   OH232210   7.656   3.210   5.350
10756TIP3    H132211   7.588   3.167   5.407
10756TIP3    H232212   7.719   3.246   5.415
10757TIP3   OH232213   7.713   3.604   5.780
10757TIP3    H132214   7.765   3.535   5.734
10757TIP3    H232215   7.702   3.672   5.711
10758TIP3   OH232216   7.538   3.903   5.972
10758TIP3    H132217   7.467   3.943   6.025
10758TIP3    H232218   7.488   3.856   5.902
10759TIP3   OH232219   7.594   3.117   4.994
10759TIP3    H132220   7.523   3.118   4.926
10759TIP3    H232221   7.564   3.193   5.049
10760TIP3   OH232222   7.464   2.791   4.946
10760TIP3    H132223   7.418   2.825   4.868
10760TIP3    H232224   7.441   2.695   4.940
10761TIP3   OH232225   7.468   3.067   5.492
10761TIP3    H132226   7.475   2.971   5.485
10761TIP3    H232227   7.453   3.079   5.589
10762TIP3   OH232228   6.094   3.143   6.240
10762TIP3    H132229   6.093   3.108   6.149
10762TIP3    H232230   6.191   3.143   6.258
10763TIP3   OH232231   7.759   3.493   6.352
10763TIP3    H132232   7.830   3.425   6.340
10763TIP3    H232233   7.783   3.559   6.285
10764TIP3   OH232234   7.941   3.294   6.361
10764TIP3    H132235   7.867   3.244   6.401
10764TIP3    H232236   8.014   3.230   6.377
10765TIP3   OH232237   7.406   2.525   4.932
10765TIP3    H132238   7.479   2.492   4.987
10765TIP3    H232239   7.332   2.465   4.952
10766TIP3   OH232240   7.466   2.784   5.385
10766TIP3    H132241   7.506   2.695   5.401
10766TIP3    H232242   7.524   2.816   5.314
10767TIP3   OH232243   7.625   2.953   5.883
10767TIP3    H132244   7.710   2.978   5.842
10767TIP3    H232245   7.639   2.991   5.972
10768TIP3   OH232246   7.697   3.100   6.114
10768TIP3    H132247   7.619   3.134   6.162
10768TIP3    H232248   7.729   3.182   6.069
10769TIP3   OH232249   6.307   2.819   6.903
10769TIP3    H132250   6.404   2.820   6.911
10769TIP3    H232251   6.287   2.735   6.949
10770TIP3   OH232252   8.184   2.697   6.657
10770TIP3    H132253   8.197   2.611   6.610
10770TIP3    H232254   8.130   2.745   6.591
10771TIP3   OH232255   7.573   2.534   5.425
10771TIP3    H132256   7.622   2.518   5.508
10771TIP3    H232257   7.513   2.457   5.424
10772TIP3   OH232258   6.274   2.518   6.244
10772TIP3    H132259   6.336   2.443   6.253
10772TIP3    H232260   6.335   2.593   6.237
10773TIP3   OH232261   6.074   2.787   6.318
10773TIP3    H132262   6.126   2.791   6.235
10773TIP3    H232263   6.095   2.873   6.358
10774TIP3   OH232264   8.012   2.821   6.487
10774TIP3    H132265   7.928   2.871   6.495
10774TIP3    H232266   7.984   2.754   6.421
10775TIP3   OH232267   7.652   2.464   5.059
10775TIP3    H132268   7.691   2.394   5.003
10775TIP3    H232269   7.719   2.535   5.056
10776TIP3   OH232270   6.060   2.291   5.816
10776TIP3    H132271   5.968   2.289   5.847
10776TIP3    H232272   6.055   2.352   5.740
10777TIP3   OH232273   7.219   3.999   5.320
10777TIP3    H132274   7.276   3.990   5.241
10777TIP3    H232275   7.267   4.065   5.372
10778TIP3   OH232276   6.279   2.369   6.630
10778TIP3    H132277   6.230   2.371   6.714
10778TIP3    H232278   6.215   2.411   6.570
10779TIP3   OH232279   6.316   3.814   6.710
10779TIP3    H132280   6.228   3.777   6.693
10779TIP3    H232281   6.341   3.771   6.792
10780TIP3   OH232282   6.495   3.837   6.259
10780TIP3    H132283   6.453   3.916   6.218
10780TIP3    H232284   6.583   3.846   6.218
10781TIP3   OH232285   6.940   4.081   6.396
10781TIP3    H132286   6.982   4.078   6.485
10781TIP3    H232287   7.007   4.132   6.346
10782TIP3   OH232288   7.120   4.234   6.255
10782TIP3    H132289   7.190   4.181   6.216
10782TIP3    H232290   7.172   4.291   6.316
10783TIP3   OH232291   7.915   2.592   6.354
10783TIP3    H132292   7.825   2.581   6.318
10783TIP3    H232293   7.950   2.501   6.344
10784TIP3   OH232294   6.173   4.095   6.279
10784TIP3    H132295   6.083   4.129   6.260
10784TIP3    H232296   6.188   4.131   6.367
10785TIP3   OH232297   6.411   4.074   6.141
10785TIP3    H132298   6.324   4.085   6.184
10785TIP3    H232299   6.391   4.104   6.050
10786TIP3   OH232300   6.838   4.100   5.936
10786TIP3    H132301   6.765   4.118   5.874
10786TIP3    H232302   6.848   4.187   5.980
10787TIP3   OH232303   7.106   4.038   5.988
10787TIP3    H132304   7.011   4.055   5.970
10787TIP3    H232305   7.148   4.116   5.947
10788TIP3   OH232306   7.313   4.230   5.903
10788TIP3    H132307   7.299   4.314   5.855
10788TIP3    H232308   7.338   4.168   5.831
10789TIP3   OH232309   6.087   3.886   6.026
10789TIP3    H132310   6.113   3.858   6.117
10789TIP3    H232311   6.158   3.842   5.976
10790TIP3   OH232312   6.282   3.759   5.884
10790TIP3    H132313   6.295   3.674   5.933
10790TIP3    H232314   6.374   3.793   5.882
10791TIP3   OH232315   6.550   3.851   5.890
10791TIP3    H132316   6.578   3.757   5.882
10791TIP3    H232317   6.597   3.873   5.973
10792TIP3   OH232318   7.122   2.508   5.975
10792TIP3    H132319   7.079   2.437   6.026
10792TIP3    H232320   7.196   2.461   5.931
10793TIP3   OH232321   7.642   2.389   5.877
10793TIP3    H132322   7.678   2.441   5.802
10793TIP3    H232323   7.547   2.409   5.871
10794TIP3   OH232324   7.738   2.488   5.641
10794TIP3    H132325   7.813   2.437   5.604
10794TIP3    H232326   7.772   2.580   5.627
10795TIP3   OH232327   6.369   2.216   5.988
10795TIP3    H132328   6.277   2.184   5.992
10795TIP3    H232329   6.417   2.130   5.984
10796TIP3   OH232330   6.158   2.088   5.639
10796TIP3    H132331   6.187   2.145   5.566
10796TIP3    H232332   6.130   2.154   5.706
10797TIP3   OH232333   6.816   2.247   5.871
10797TIP3    H132334   6.872   2.296   5.808
10797TIP3    H232335   6.840   2.288   5.955
10798TIP3   OH232336   7.358   2.396   5.853
10798TIP3    H132337   7.359   2.356   5.765
10798TIP3    H232338   7.346   2.317   5.911
10799TIP3   OH232339   7.390   2.321   5.417
10799TIP3    H132340   7.304   2.364   5.433
10799TIP3    H232341   7.376   2.235   5.462
10800TIP3   OH232342   5.874   3.660   5.412
10800TIP3    H132343   5.788   3.626   5.381
10800TIP3    H232344   5.863   3.754   5.389
10801TIP3   OH232345   6.276   2.245   5.400
10801TIP3    H132346   6.324   2.182   5.342
10801TIP3    H232347   6.350   2.299   5.435
10802TIP3   OH232348   6.785   2.424   5.499
10802TIP3    H132349   6.845   2.376   5.559
10802TIP3    H232350   6.807   2.516   5.525
10803TIP3   OH232351   6.648   3.842   4.999
10803TIP3    H132352   6.736   3.861   4.963
10803TIP3    H232353   6.621   3.770   4.937
10804TIP3   OH232354   7.373   3.967   5.089
10804TIP3    H132355   7.360   3.869   5.086
10804TIP3    H232356   7.321   3.994   5.011
10805TIP3   OH232357   6.578   2.494   6.878
10805TIP3    H132358   6.541   2.425   6.937
10805TIP3    H232359   6.671   2.495   6.908
10806TIP3   OH232360   6.827   2.494   7.000
10806TIP3    H132361   6.912   2.468   6.962
10806TIP3    H232362   6.814   2.425   7.067
10807TIP3   OH232363   5.950   3.683   5.056
10807TIP3    H132364   5.948   3.700   5.151
10807TIP3    H232365   6.038   3.641   5.043
10808TIP3   OH232366   7.647   2.567   6.770
10808TIP3    H132367   7.657   2.533   6.861
10808TIP3    H232368   7.738   2.559   6.735
10809TIP3   OH232369   7.590   4.108   6.279
10809TIP3    H132370   7.511   4.077   6.230
10809TIP3    H232371   7.569   4.203   6.286
10810TIP3   OH232372   8.154   3.373   5.791
10810TIP3    H132373   8.178   3.303   5.854
10810TIP3    H232374   8.229   3.433   5.800
10811TIP3   OH232375   8.125   3.790   5.512
10811TIP3    H132376   8.118   3.692   5.515
10811TIP3    H232377   8.221   3.800   5.510
10812TIP3   OH232378   7.834   2.990   5.296
10812TIP3    H132379   7.783   3.071   5.316
10812TIP3    H232380   7.763   2.935   5.257
10813TIP3   OH232381   7.893   3.276   5.478
10813TIP3    H132382   7.941   3.197   5.513
10813TIP3    H232383   7.949   3.300   5.403
10814TIP3   OH232384   8.758   4.211   5.107
10814TIP3    H132385   8.852   4.183   5.107
10814TIP3    H232386   8.742   4.219   5.202
10815TIP3   OH232387   8.658   3.702   5.479
10815TIP3    H132388   8.671   3.665   5.391
10815TIP3    H232389   8.739   3.755   5.492
10816TIP3   OH232390   8.381   2.869   5.484
10816TIP3    H132391   8.395   2.935   5.414
10816TIP3    H232392   8.347   2.794   5.432
10817TIP3   OH232393   8.040   3.070   5.578
10817TIP3    H132394   8.121   3.049   5.629
10817TIP3    H232395   8.057   3.014   5.498
10818TIP3   OH232396   8.465   3.271   5.367
10818TIP3    H132397   8.556   3.237   5.382
10818TIP3    H232398   8.420   3.188   5.339
10819TIP3   OH232399   8.406   2.861   5.917
10819TIP3    H132400   8.348   2.891   5.844
10819TIP3    H232401   8.348   2.879   5.993
10820TIP3   OH232402   8.512   3.626   5.708
10820TIP3    H132403   8.448   3.691   5.744
10820TIP3    H232404   8.554   3.677   5.636
10821TIP3   OH232405   8.267   2.970   5.703
10821TIP3    H132406   8.332   3.040   5.723
10821TIP3    H232407   8.311   2.928   5.625
10822TIP3   OH232408   8.339   3.822   5.798
10822TIP3    H132409   8.313   3.910   5.764
10822TIP3    H232410   8.260   3.803   5.854
10823TIP3   OH232411   7.726   3.510   5.029
10823TIP3    H132412   7.676   3.537   4.950
10823TIP3    H232413   7.751   3.598   5.065
10824TIP3   OH232414   8.257   3.416   5.262
10824TIP3    H132415   8.217   3.357   5.195
10824TIP3    H232416   8.333   3.363   5.293
10825TIP3   OH232417   8.391   3.830   5.410
10825TIP3    H132418   8.368   3.794   5.322
10825TIP3    H232419   8.476   3.787   5.430
10826TIP3   OH232420   8.406   3.385   5.617
10826TIP3    H132421   8.432   3.362   5.526
10826TIP3    H232422   8.446   3.473   5.631
10827TIP3   OH232423   8.539   3.937   5.952
10827TIP3    H132424   8.477   4.001   5.993
10827TIP3    H232425   8.475   3.885   5.899
10828TIP3   OH232426   8.295   3.504   6.041
10828TIP3    H132427   8.298   3.589   6.090
10828TIP3    H232428   8.203   3.477   6.062
10829TIP3   OH232429   8.635   3.990   4.972
10829TIP3    H132430   8.652   4.080   5.006
10829TIP3    H232431   8.575   4.005   4.898
10830TIP3   OH232432   8.335   4.108   6.031
10830TIP3    H132433   8.299   4.110   5.940
10830TIP3    H232434   8.255   4.087   6.085
10831TIP3   OH232435   8.134   3.255   5.068
10831TIP3    H132436   8.065   3.297   5.012
10831TIP3    H232437   8.095   3.169   5.086
10832TIP3   OH232438   7.916   3.642   5.976
10832TIP3    H132439   7.847   3.619   5.911
10832TIP3    H232440   7.953   3.554   6.000
10833TIP3   OH232441   7.769   3.839   5.599
10833TIP3    H132442   7.865   3.830   5.603
10833TIP3    H232443   7.754   3.912   5.662
10834TIP3   OH232444   8.727   4.054   5.793
10834TIP3    H132445   8.732   4.145   5.827
10834TIP3    H232446   8.657   4.017   5.851
10835TIP3   OH232447   8.507   4.199   4.752
10835TIP3    H132448   8.463   4.174   4.668
10835TIP3    H232449   8.467   4.285   4.772
10836TIP3   OH232450   7.918   4.032   5.148
10836TIP3    H132451   7.990   4.027   5.215
10836TIP3    H232452   7.842   4.014   5.208
10837TIP3   OH232453   8.771   4.161   4.689
10837TIP3    H132454   8.678   4.182   4.711
10837TIP3    H232455   8.771   4.066   4.702
10838TIP3   OH232456   8.121   3.823   5.962
10838TIP3    H132457   8.169   3.807   6.045
10838TIP3    H232458   8.046   3.760   5.970
10839TIP3   OH232459   8.506   2.632   5.778
10839TIP3    H132460   8.421   2.610   5.736
10839TIP3    H232461   8.489   2.723   5.807
10840TIP3   OH232462   8.444   3.167   5.772
10840TIP3    H132463   8.392   3.187   5.852
10840TIP3    H232464   8.427   3.247   5.718
10841TIP3   OH232465   8.336   3.049   5.276
10841TIP3    H132466   8.246   3.017   5.301
10841TIP3    H232467   8.347   3.007   5.189
10842TIP3   OH232468   8.260   3.189   5.979
10842TIP3    H132469   8.307   3.244   6.045
10842TIP3    H232470   8.250   3.105   6.028
10843TIP3   OH232471   8.303   2.623   4.674
10843TIP3    H132472   8.290   2.646   4.767
10843TIP3    H232473   8.249   2.691   4.631
10844TIP3   OH232474   7.863   2.711   5.556
10844TIP3    H132475   7.936   2.745   5.613
10844TIP3    H232476   7.909   2.677   5.478
10845TIP3   OH232477   7.829   2.693   5.077
10845TIP3    H132478   7.875   2.731   4.999
10845TIP3    H232479   7.768   2.766   5.097
10846TIP3   OH232480   8.097   2.930   5.346
10846TIP3    H132481   8.002   2.935   5.320
10846TIP3    H232482   8.119   2.836   5.332
10847TIP3   OH232483   8.375   2.928   5.029
10847TIP3    H132484   8.455   2.929   4.975
10847TIP3    H232485   8.307   2.944   4.960
10848TIP3   OH232486   8.212   2.952   4.818
10848TIP3    H132487   8.142   2.906   4.768
10848TIP3    H232488   8.265   2.988   4.744
10849TIP3   OH232489   8.283   3.748   6.186
10849TIP3    H132490   8.362   3.775   6.236
10849TIP3    H232491   8.217   3.742   6.258
10850TIP3   OH232492   8.257   2.685   5.318
10850TIP3    H132493   8.224   2.613   5.377
10850TIP3    H232494   8.301   2.633   5.250
10851TIP3   OH232495   8.713   3.094   5.785
10851TIP3    H132496   8.621   3.118   5.760
10851TIP3    H232497   8.760   3.179   5.780
10852TIP3   OH232498   8.433   3.508   4.830
10852TIP3    H132499   8.380   3.426   4.822
10852TIP3    H232500   8.433   3.524   4.927
10853TIP3   OH232501   8.823   3.779   5.853
10853TIP3    H132502   8.846   3.764   5.946
10853TIP3    H232503   8.797   3.873   5.852
10854TIP3   OH232504   8.154   3.516   5.502
10854TIP3    H132505   8.187   3.480   5.417
10854TIP3    H232506   8.185   3.450   5.566
10855TIP3   OH232507   8.559   3.631   4.622
10855TIP3    H132508   8.541   3.722   4.652
10855TIP3    H232509   8.529   3.580   4.701
10856TIP3   OH232510   8.034   3.431   6.115
10856TIP3    H132511   8.058   3.414   6.208
10856TIP3    H232512   7.966   3.362   6.100
10857TIP3   OH232513   8.762   3.549   6.133
10857TIP3    H132514   8.713   3.497   6.067
10857TIP3    H232515   8.851   3.510   6.128
10858TIP3   OH232516   8.259   3.813   5.129
10858TIP3    H132517   8.258   3.891   5.072
10858TIP3    H232518   8.165   3.792   5.135
10859TIP3   OH232519   7.817   3.116   4.832
10859TIP3    H132520   7.861   3.201   4.854
10859TIP3    H232521   7.740   3.119   4.893
10860TIP3   OH232522   8.407   3.578   5.094
10860TIP3    H132523   8.365   3.666   5.097
10860TIP3    H232524   8.351   3.528   5.156
10861TIP3   OH232525   8.519   4.153   5.595
10861TIP3    H132526   8.556   4.230   5.547
10861TIP3    H232527   8.598   4.121   5.643
10862TIP3   OH232528   8.171   4.051   4.981
10862TIP3    H132529   8.084   4.064   5.022
10862TIP3    H232530   8.207   4.142   4.983
10863TIP3   OH232531   8.233   2.938   6.120
10863TIP3    H132532   8.136   2.941   6.131
10863TIP3    H232533   8.259   2.878   6.192
10864TIP3   OH232534   7.960   4.016   5.752
10864TIP3    H132535   8.014   3.945   5.791
10864TIP3    H232536   7.981   4.090   5.810
10865TIP3   OH232537   8.231   3.662   4.442
10865TIP3    H132538   8.250   3.573   4.409
10865TIP3    H232539   8.220   3.647   4.537
10866TIP3   OH232540   8.195   3.666   4.718
10866TIP3    H132541   8.280   3.639   4.757
10866TIP3    H232542   8.201   3.764   4.723
10867TIP3   OH232543   7.929   3.361   4.913
10867TIP3    H132544   7.861   3.407   4.967
10867TIP3    H232545   7.946   3.430   4.846
10868TIP3   OH232546   8.467   3.879   4.678
10868TIP3    H132547   8.377   3.909   4.700
10868TIP3    H232548   8.471   3.898   4.583
10869TIP3   OH232549   8.202   3.942   4.724
10869TIP3    H132550   8.170   4.011   4.661
10869TIP3    H232551   8.190   3.986   4.810
10870TIP3   OH232552   8.313   2.662   4.956
10870TIP3    H132553   8.298   2.744   5.007
10870TIP3    H232554   8.397   2.685   4.911
10871TIP3   OH232555   7.928   3.567   4.716
10871TIP3    H132556   8.003   3.628   4.728
10871TIP3    H232557   7.967   3.509   4.647
10872TIP3   OH232558   7.866   2.846   4.854
10872TIP3    H132559   7.864   2.944   4.850
10872TIP3    H232560   7.789   2.822   4.802
10873TIP3   OH232561   8.238   2.569   5.723
10873TIP3    H132562   8.223   2.531   5.634
10873TIP3    H232563   8.236   2.489   5.780
10874TIP3   OH232564   7.769   3.776   5.088
10874TIP3    H132565   7.722   3.816   5.162
10874TIP3    H232566   7.834   3.843   5.065
10875TIP3   OH232567   7.951   4.331   6.177
10875TIP3    H132568   8.038   4.329   6.223
10875TIP3    H232569   7.930   4.236   6.175
10876TIP3   OH232570   8.428   4.289   6.219
10876TIP3    H132571   8.521   4.267   6.230
10876TIP3    H232572   8.401   4.227   6.148
10877TIP3   OH232573   8.408   3.865   4.393
10877TIP3    H132574   8.337   3.798   4.404
10877TIP3    H232575   8.447   3.834   4.310
10878TIP3   OH232576   8.081   3.737   6.376
10878TIP3    H132577   8.094   3.642   6.394
10878TIP3    H232578   7.994   3.736   6.331
10879TIP3   OH232579   8.061   3.381   4.567
10879TIP3    H132580   8.116   3.352   4.643
10879TIP3    H232581   8.130   3.390   4.499
10880TIP3   OH232582   8.704   3.825   6.146
10880TIP3    H132583   8.647   3.839   6.068
10880TIP3    H232584   8.718   3.727   6.145
10881TIP3   OH232585   8.555   3.559   4.363
10881TIP3    H132586   8.569   3.602   4.451
10881TIP3    H232587   8.481   3.501   4.387
10882TIP3   OH232588   8.215   3.458   6.351
10882TIP3    H132589   8.299   3.412   6.333
10882TIP3    H232590   8.232   3.494   6.440
10883TIP3   OH232591   8.266   3.285   4.790
10883TIP3    H132592   8.236   3.241   4.871
10883TIP3    H232593   8.309   3.212   4.741
10884TIP3   OH232594   8.506   3.329   6.042
10884TIP3    H132595   8.437   3.399   6.048
10884TIP3    H232596   8.564   3.369   5.974
10885TIP3   OH232597   8.372   3.077   4.631
10885TIP3    H132598   8.335   3.086   4.541
10885TIP3    H232599   8.464   3.053   4.607
10886TIP3   OH232600   8.667   3.136   6.151
10886TIP3    H132601   8.663   3.054   6.097
10886TIP3    H232602   8.608   3.196   6.099
10887TIP3   OH232603   8.669   2.914   5.981
10887TIP3    H132604   8.679   2.968   5.899
10887TIP3    H232605   8.580   2.876   5.965
10888TIP3   OH232606   8.660   3.458   5.867
10888TIP3    H132607   8.728   3.447   5.798
10888TIP3    H232608   8.601   3.523   5.822
10889TIP3   OH232609   8.459   3.279   6.332
10889TIP3    H132610   8.425   3.192   6.362
10889TIP3    H232611   8.514   3.256   6.256
10890TIP3   OH232612   8.370   3.035   6.418
10890TIP3    H132613   8.372   2.940   6.396
10890TIP3    H232614   8.412   3.033   6.507
10891TIP3   OH232615   8.165   4.148   4.541
10891TIP3    H132616   8.262   4.144   4.529
10891TIP3    H232617   8.142   4.196   4.459
10892TIP3   OH232618   7.651   3.534   4.728
10892TIP3    H132619   7.748   3.553   4.729
10892TIP3    H232620   7.650   3.440   4.698
10893TIP3   OH232621   7.575   4.134   5.169
10893TIP3    H132622   7.505   4.077   5.131
10893TIP3    H232623   7.613   4.074   5.236
10894TIP3   OH232624   7.723   3.979   5.345
10894TIP3    H132625   7.700   3.911   5.410
10894TIP3    H232626   7.764   4.044   5.406
10895TIP3   OH232627   7.889   3.397   5.727
10895TIP3    H132628   7.886   3.362   5.636
10895TIP3    H232629   7.986   3.397   5.744
10896TIP3   OH232630   8.101   3.076   6.398
10896TIP3    H132631   8.199   3.078   6.398
10896TIP3    H232632   8.085   2.993   6.447
10897TIP3   OH232633   8.063   2.779   5.735
10897TIP3    H132634   8.122   2.701   5.739
10897TIP3    H232635   8.129   2.851   5.731
10898TIP3   OH232636   7.869   3.048   5.803
10898TIP3    H132637   7.920   3.041   5.720
10898TIP3    H232638   7.903   3.130   5.840
10899TIP3   OH232639   7.856   2.548   5.304
10899TIP3    H132640   7.764   2.545   5.334
10899TIP3    H232641   7.851   2.609   5.227
10900TIP3   OH232642   8.075   2.637   6.122
10900TIP3    H132643   8.021   2.630   6.203
10900TIP3    H232644   8.010   2.673   6.059
10901TIP3   OH232645   8.115   4.064   6.195
10901TIP3    H132646   8.022   4.037   6.180
10901TIP3    H232647   8.129   4.037   6.286
10902TIP3   OH232648   8.296   4.092   5.745
10902TIP3    H132649   8.247   4.168   5.706
10902TIP3    H232650   8.381   4.107   5.699
10903TIP3   OH232651   8.725   4.319   5.885
10903TIP3    H132652   8.772   4.327   5.971
10903TIP3    H232653   8.774   4.381   5.828
10904TIP3   OH232654   8.863   4.486   5.708
10904TIP3    H132655   8.912   4.480   5.623
10904TIP3    H232656   8.908   4.562   5.749
10905TIP3   OH232657   7.969   4.349   5.769
10905TIP3    H132658   7.879   4.381   5.746
10905TIP3    H232659   7.982   4.392   5.854
10906TIP3   OH232660   8.205   4.325   5.627
10906TIP3    H132661   8.118   4.338   5.671
10906TIP3    H232662   8.186   4.360   5.537
10907TIP3   OH232663   8.604   4.363   5.429
10907TIP3    H132664   8.531   4.376   5.365
10907TIP3    H232665   8.617   4.455   5.461
10908TIP3   OH232666   8.854   4.260   5.405
10908TIP3    H132667   8.764   4.296   5.414
10908TIP3    H232668   8.908   4.335   5.434
10909TIP3   OH232669   7.883   4.142   5.509
10909TIP3    H132670   7.906   4.114   5.601
10909TIP3    H232671   7.957   4.099   5.461
10910TIP3   OH232672   8.078   4.015   5.366
10910TIP3    H132673   8.091   3.932   5.418
10910TIP3    H232674   8.169   4.052   5.366
10911TIP3   OH232675   8.341   4.109   5.376
10911TIP3    H132676   8.371   4.016   5.365
10911TIP3    H232677   8.389   4.131   5.458
10912TIP3   OH232678   8.166   2.475   5.469
10912TIP3    H132679   8.075   2.440   5.477
10912TIP3    H232680   8.215   2.390   5.464
10913TIP3   OH232681   7.956   2.345   5.117
10913TIP3    H132682   7.983   2.407   5.046
10913TIP3    H232683   7.929   2.408   5.188
10914TIP3   OH232684   8.069   2.504   4.892
10914TIP3    H132685   8.111   2.444   4.826
10914TIP3    H232686   8.144   2.556   4.923
10915TIP3   OH232687   8.431   4.117   4.494
10915TIP3    H132688   8.523   4.124   4.460
10915TIP3    H232689   8.407   4.034   4.447
10916TIP3   OH232690   8.378   2.763   6.370
10916TIP3    H132691   8.350   2.700   6.438
10916TIP3    H232692   8.471   2.740   6.357
10917TIP3   OH232693   1.311   4.269   6.735
10917TIP3    H132694   1.279   4.359   6.713
10917TIP3    H232695   1.237   4.216   6.700
10918TIP3   OH232696   1.310   4.273   7.120
10918TIP3    H132697   1.343   4.242   7.206
10918TIP3    H232698   1.268   4.193   7.084
10919TIP3   OH232699   0.641   4.142   7.438
10919TIP3    H132700   0.610   4.100   7.520
10919TIP3    H232701   0.685   4.221   7.471
10920TIP3   OH232702   1.554   4.573   6.799
10920TIP3    H132703   1.538   4.502   6.863
10920TIP3    H232704   1.585   4.645   6.856
10921TIP3   OH232705   0.586   4.558   7.143
10921TIP3    H132706   0.571   4.463   7.164
10921TIP3    H232707   0.675   4.569   7.179
10922TIP3   OH232708   0.354   4.056   7.122
10922TIP3    H132709   0.394   4.013   7.199
10922TIP3    H232710   0.415   4.129   7.105
10923TIP3   OH232711   1.181   5.032   6.809
10923TIP3    H132712   1.230   4.965   6.755
10923TIP3    H232713   1.192   4.992   6.897
10924TIP3   OH232714   1.109   4.496   7.166
10924TIP3    H132715   1.147   4.417   7.124
10924TIP3    H232716   1.192   4.542   7.190
10925TIP3   OH232717   2.123   3.814   7.162
10925TIP3    H132718   2.153   3.898   7.202
10925TIP3    H232719   2.147   3.827   7.069
10926TIP3   OH232720   1.520   3.996   7.194
10926TIP3    H132721   1.563   3.911   7.215
10926TIP3    H232722   1.488   3.979   7.104
10927TIP3   OH232723   0.864   3.656   7.160
10927TIP3    H132724   0.843   3.728   7.097
10927TIP3    H232725   0.817   3.581   7.117
10928TIP3   OH232726   1.554   3.750   6.781
10928TIP3    H132727   1.626   3.735   6.847
10928TIP3    H232728   1.607   3.783   6.706
10929TIP3   OH232729   0.497   3.860   7.271
10929TIP3    H132730   0.579   3.850   7.323
10929TIP3    H232731   0.521   3.814   7.189
10930TIP3   OH232732   0.935   4.055   7.049
10930TIP3    H132733   1.028   4.030   7.071
10930TIP3    H232734   0.896   3.969   7.024
10931TIP3   OH232735   2.197   4.024   7.333
10931TIP3    H132736   2.112   4.069   7.313
10931TIP3    H232737   2.214   4.057   7.423
10932TIP3   OH232738   0.853   3.628   7.592
10932TIP3    H132739   0.800   3.677   7.526
10932TIP3    H232740   0.806   3.650   7.674
10933TIP3   OH232741   1.193   4.484   6.608
10933TIP3    H132742   1.160   4.475   6.517
10933TIP3    H232743   1.149   4.566   6.638
10934TIP3   OH232744   0.961   4.423   7.393
10934TIP3    H132745   0.901   4.489   7.432
10934TIP3    H232746   1.000   4.472   7.318
10935TIP3   OH232747   1.760   3.753   6.959
10935TIP3    H132748   1.751   3.705   7.041
10935TIP3    H232749   1.813   3.830   6.986
10936TIP3   OH232750   0.734   3.753   7.380
10936TIP3    H132751   0.792   3.830   7.404
10936TIP3    H232752   0.785   3.718   7.303
10937TIP3   OH232753   0.775   4.599   7.511
10937TIP3    H132754   0.718   4.655   7.455
10937TIP3    H232755   0.707   4.557   7.566
10938TIP3   OH232756   1.622   4.819   6.968
10938TIP3    H132757   1.531   4.808   7.005
10938TIP3    H232758   1.612   4.903   6.919
10939TIP3   OH232759   1.916   3.714   7.330
10939TIP3    H132760   1.828   3.739   7.296
10939TIP3    H232761   1.976   3.746   7.259
10940TIP3   OH232762   1.212   3.351   7.310
10940TIP3    H132763   1.194   3.257   7.328
10940TIP3    H232764   1.135   3.393   7.356
10941TIP3   OH232765   1.330   4.863   6.655
10941TIP3    H132766   1.375   4.779   6.630
10941TIP3    H232767   1.387   4.926   6.607
10942TIP3   OH232768   1.459   4.647   6.551
10942TIP3    H132769   1.444   4.566   6.500
10942TIP3    H232770   1.498   4.611   6.634
10943TIP3   OH232771   1.848   4.727   7.308
10943TIP3    H132772   1.836   4.649   7.249
10943TIP3    H232773   1.831   4.801   7.246
10944TIP3   OH232774   1.142   4.123   6.567
10944TIP3    H132775   1.063   4.175   6.545
10944TIP3    H232776   1.187   4.117   6.480
10945TIP3   OH232777   1.101   3.904   6.281
10945TIP3    H132778   1.168   3.959   6.325
10945TIP3    H232779   1.159   3.842   6.233
10946TIP3   OH232780   2.043   4.367   7.156
10946TIP3    H132781   1.959   4.418   7.159
10946TIP3    H232782   2.074   4.389   7.066
10947TIP3   OH232783   1.488   4.204   6.536
10947TIP3    H132784   1.434   4.227   6.615
10947TIP3    H232785   1.573   4.179   6.579
10948TIP3   OH232786   1.722   4.243   7.452
10948TIP3    H132787   1.717   4.327   7.500
10948TIP3    H232788   1.635   4.243   7.407
10949TIP3   OH232789   0.722   4.197   6.954
10949TIP3    H132790   0.680   4.138   6.888
10949TIP3    H232791   0.801   4.144   6.981
10950TIP3   OH232792   0.869   4.624   7.097
10950TIP3    H132793   0.836   4.576   7.019
10950TIP3    H232794   0.956   4.582   7.112
10951TIP3   OH232795   0.911   4.163   7.307
10951TIP3    H132796   0.910   4.153   7.210
10951TIP3    H232797   0.918   4.260   7.320
10952TIP3   OH232798   1.379   4.812   7.087
10952TIP3    H132799   1.372   4.888   7.146
10952TIP3    H232800   1.365   4.736   7.147
10953TIP3   OH232801   0.992   4.729   7.632
10953TIP3    H132802   0.934   4.789   7.684
10953TIP3    H232803   0.925   4.674   7.588
10954TIP3   OH232804   1.326   4.064   6.359
10954TIP3    H132805   1.386   4.124   6.409
10954TIP3    H232806   1.352   4.084   6.266
10955TIP3   OH232807   0.727   4.258   7.714
10955TIP3    H132808   0.744   4.338   7.768
10955TIP3    H232809   0.633   4.270   7.698
10956TIP3   OH232810   1.076   4.748   6.655
10956TIP3    H132811   1.166   4.786   6.654
10956TIP3    H232812   1.039   4.781   6.572
10957TIP3   OH232813   0.777   4.889   7.714
10957TIP3    H132814   0.753   4.901   7.620
10957TIP3    H232815   0.696   4.854   7.753
10958TIP3   OH232816   1.844   3.300   6.414
10958TIP3    H132817   1.762   3.324   6.462
10958TIP3    H232818   1.861   3.382   6.363
10959TIP3   OH232819   0.596   4.036   6.761
10959TIP3    H132820   0.532   4.077   6.699
10959TIP3    H232821   0.556   3.950   6.776
10960TIP3   OH232822   1.643   4.672   5.963
10960TIP3    H132823   1.652   4.767   5.945
10960TIP3    H232824   1.735   4.640   5.949
10961TIP3   OH232825   2.083   5.075   7.355
10961TIP3    H132826   2.084   4.978   7.368
10961TIP3    H232827   2.000   5.098   7.402
10962TIP3   OH232828   1.189   4.857   7.488
10962TIP3    H132829   1.188   4.949   7.520
10962TIP3    H232830   1.118   4.817   7.543
10963TIP3   OH232831   0.900   5.065   6.434
10963TIP3    H132832   0.864   4.984   6.391
10963TIP3    H232833   0.956   5.094   6.360
10964TIP3   OH232834   1.156   4.945   6.427
10964TIP3    H132835   1.121   4.915   6.343
10964TIP3    H232836   1.249   4.921   6.420
10965TIP3   OH232837   1.972   4.201   7.632
10965TIP3    H132838   1.891   4.212   7.579
10965TIP3    H232839   1.990   4.106   7.621
10966TIP3   OH232840   0.974   3.433   7.432
10966TIP3    H132841   0.885   3.401   7.404
10966TIP3    H232842   0.947   3.515   7.478
10967TIP3   OH232843   1.510   3.558   7.619
10967TIP3    H132844   1.580   3.518   7.677
10967TIP3    H232845   1.426   3.533   7.662
10968TIP3   OH232846   1.745   3.979   7.550
10968TIP3    H132847   1.696   3.975   7.636
10968TIP3    H232848   1.719   4.066   7.515
10969TIP3   OH232849   1.405   4.109   6.102
10969TIP3    H132850   1.376   4.093   6.012
10969TIP3    H232851   1.492   4.149   6.085
10970TIP3   OH232852   1.116   3.481   6.413
10970TIP3    H132853   1.080   3.477   6.503
10970TIP3    H232854   1.077   3.400   6.375
10971TIP3   OH232855   0.906   3.946   7.464
10971TIP3    H132856   0.854   3.971   7.543
10971TIP3    H232857   0.900   4.028   7.409
10972TIP3   OH232858   0.786   3.833   6.973
10972TIP3    H132859   0.691   3.813   6.987
10972TIP3    H232860   0.799   3.795   6.883
10973TIP3   OH232861   1.277   3.921   6.702
10973TIP3    H132862   1.227   3.992   6.657
10973TIP3    H232863   1.333   3.888   6.629
10974TIP3   OH232864   1.463   4.211   7.780
10974TIP3    H132865   1.437   4.130   7.828
10974TIP3    H232866   1.558   4.215   7.801
10975TIP3   OH232867   1.433   3.949   6.938
10975TIP3    H132868   1.371   3.976   6.867
10975TIP3    H232869   1.470   3.869   6.893
10976TIP3   OH232870   0.735   3.970   7.684
10976TIP3    H132871   0.754   4.060   7.717
10976TIP3    H232872   0.649   3.952   7.725
10977TIP3   OH232873   0.773   3.456   6.376
10977TIP3    H132874   0.761   3.457   6.473
10977TIP3    H232875   0.694   3.505   6.346
10978TIP3   OH232876   0.330   3.538   7.245
10978TIP3    H132877   0.413   3.529   7.295
10978TIP3    H232878   0.337   3.467   7.178
10979TIP3   OH232879   0.311   3.531   6.800
10979TIP3    H132880   0.337   3.540   6.706
10979TIP3    H232881   0.297   3.624   6.821
10980TIP3   OH232882   1.450   4.196   7.359
10980TIP3    H132883   1.481   4.124   7.299
10980TIP3    H232884   1.416   4.142   7.433
10981TIP3   OH232885   1.120   3.658   7.033
10981TIP3    H132886   1.039   3.657   7.088
10981TIP3    H232887   1.190   3.652   7.100
10982TIP3   OH232888   0.547   3.702   7.040
10982TIP3    H132889   0.455   3.671   7.041
10982TIP3    H232890   0.596   3.619   7.024
10983TIP3   OH232891   0.814   3.710   6.730
10983TIP3    H132892   0.908   3.724   6.709
10983TIP3    H232893   0.769   3.733   6.645
10984TIP3   OH232894   1.607   3.734   7.239
10984TIP3    H132895   1.571   3.749   7.329
10984TIP3    H232896   1.541   3.674   7.202
10985TIP3   OH232897   0.662   3.749   6.504
10985TIP3    H132898   0.599   3.700   6.448
10985TIP3    H232899   0.718   3.789   6.435
10986TIP3   OH232900   1.780   5.421   7.456
10986TIP3    H132901   1.781   5.439   7.360
10986TIP3    H232902   1.859   5.469   7.487
10987TIP3   OH232903   0.730   4.493   7.854
10987TIP3    H132904   0.806   4.547   7.886
10987TIP3    H232905   0.656   4.552   7.877
10988TIP3   OH232906   1.196   3.988   7.130
10988TIP3    H132907   1.270   3.949   7.081
10988TIP3    H232908   1.202   3.943   7.216
10989TIP3   OH232909   0.715   3.477   7.013
10989TIP3    H132910   0.679   3.398   7.059
10989TIP3    H232911   0.759   3.437   6.937
10990TIP3   OH232912   1.173   3.886   7.417
10990TIP3    H132913   1.083   3.923   7.430
10990TIP3    H232914   1.230   3.949   7.466
10991TIP3   OH232915   0.907   4.276   6.513
10991TIP3    H132916   0.837   4.208   6.502
10991TIP3    H232917   0.890   4.306   6.606
10992TIP3   OH232918   1.808   4.511   7.143
10992TIP3    H132919   1.832   4.561   7.062
10992TIP3    H232920   1.725   4.467   7.116
10993TIP3   OH232921   1.369   3.580   6.389
10993TIP3    H132922   1.272   3.563   6.391
10993TIP3    H232923   1.375   3.677   6.405
10994TIP3   OH232924   1.314   4.597   7.511
10994TIP3    H132925   1.332   4.571   7.602
10994TIP3    H232926   1.271   4.684   7.520
10995TIP3   OH232927   1.436   3.837   6.485
10995TIP3    H132928   1.532   3.841   6.497
10995TIP3    H232929   1.417   3.915   6.429
10996TIP3   OH232930   0.615   4.291   7.197
10996TIP3    H132931   0.655   4.245   7.121
10996TIP3    H232932   0.618   4.225   7.269
10997TIP3   OH232933   1.056   4.429   6.343
10997TIP3    H132934   1.009   4.515   6.349
10997TIP3    H232935   1.001   4.372   6.401
10998TIP3   OH232936   1.212   4.334   7.807
10998TIP3    H132937   1.148   4.272   7.767
10998TIP3    H232938   1.297   4.295   7.777
10999TIP3   OH232939   1.468   4.860   7.403
10999TIP3    H132940   1.373   4.851   7.420
10999TIP3    H232941   1.497   4.910   7.482
11000TIP3   OH232942   1.875   3.927   6.316
11000TIP3    H132943   1.813   3.883   6.253
11000TIP3    H232944   1.873   4.017   6.276
11001TIP3   OH232945   2.099   4.788   7.395
11001TIP3    H132946   2.001   4.778   7.387
11001TIP3    H232947   2.126   4.755   7.306
11002TIP3   OH232948   1.587   4.743   6.229
11002TIP3    H132949   1.555   4.670   6.283
11002TIP3    H232950   1.598   4.701   6.141
11003TIP3   OH232951   1.575   4.373   7.060
11003TIP3    H132952   1.482   4.348   7.074
11003TIP3    H232953   1.609   4.293   7.016
11004TIP3   OH232954   0.710   4.594   6.818
11004TIP3    H132955   0.696   4.671   6.759
11004TIP3    H232956   0.625   4.586   6.863
11005TIP3   OH232957   0.274   3.910   6.532
11005TIP3    H132958   0.331   3.988   6.549
11005TIP3    H232959   0.187   3.948   6.546
11006TIP3   OH232960   0.841   4.360   6.759
11006TIP3    H132961   0.806   4.449   6.780
11006TIP3    H232962   0.806   4.309   6.835
11007TIP3   OH232963   0.982   4.945   7.285
11007TIP3    H132964   1.028   5.013   7.233
11007TIP3    H232965   1.056   4.903   7.332
11008TIP3   OH232966   0.606   4.827   6.675
11008TIP3    H132967   0.521   4.823   6.721
11008TIP3    H232968   0.640   4.912   6.706
11009TIP3   OH232969   1.361   4.579   7.243
11009TIP3    H132970   1.351   4.577   7.341
11009TIP3    H232971   1.436   4.520   7.230
11010TIP3   OH232972   1.341   4.469   6.134
11010TIP3    H132973   1.391   4.443   6.215
11010TIP3    H232974   1.251   4.442   6.158
11011TIP3   OH232975   1.610   5.112   7.296
11011TIP3    H132976   1.532   5.053   7.293
11011TIP3    H232977   1.591   5.173   7.222
11012TIP3   OH232978   1.670   4.949   5.950
11012TIP3    H132979   1.700   5.021   5.892
11012TIP3    H232980   1.591   4.991   5.988
11013TIP3   OH232981   1.500   4.414   6.356
11013TIP3    H132982   1.489   4.341   6.420
11013TIP3    H232983   1.595   4.405   6.336
11014TIP3   OH232984   0.700   4.452   6.125
11014TIP3    H132985   0.716   4.360   6.096
11014TIP3    H232986   0.678   4.438   6.219
11015TIP3   OH232987   0.651   4.456   6.402
11015TIP3    H132988   0.729   4.426   6.451
11015TIP3    H232989   0.658   4.553   6.408
11016TIP3   OH232990   0.399   4.143   6.605
11016TIP3    H132991   0.351   4.193   6.672
11016TIP3    H232992   0.413   4.212   6.537
11017TIP3   OH232993   1.531   3.799   7.498
11017TIP3    H132994   1.618   3.830   7.528
11017TIP3    H232995   1.521   3.714   7.546
11018TIP3   OH232996   1.412   3.534   6.665
11018TIP3    H132997   1.398   3.554   6.570
11018TIP3    H232998   1.452   3.618   6.697
11019TIP3   OH232999   0.922   4.666   6.358
11019TIP3    H133000   0.829   4.683   6.381
11019TIP3    H233001   0.931   4.718   6.276
11020TIP3   OH233002   1.097   3.719   6.763
11020TIP3    H133003   1.162   3.791   6.745
11020TIP3    H233004   1.105   3.711   6.861
11021TIP3   OH233005   1.369   4.032   7.559
11021TIP3    H133006   1.387   4.075   7.644
11021TIP3    H233007   1.421   3.950   7.564
11022TIP3   OH233008   1.242   3.439   6.863
11022TIP3    H133009   1.235   3.518   6.920
11022TIP3    H233010   1.305   3.473   6.794
11023TIP3   OH233011   0.662   4.728   6.415
11023TIP3    H133012   0.634   4.796   6.349
11023TIP3    H233013   0.631   4.769   6.499
11024TIP3   OH233014   0.756   3.445   6.655
11024TIP3    H133015   0.756   3.535   6.690
11024TIP3    H233016   0.852   3.425   6.660
11025TIP3   OH233017   2.011   3.936   7.552
11025TIP3    H133018   1.913   3.935   7.557
11025TIP3    H233019   2.024   3.893   7.467
11026TIP3   OH233020   1.661   4.130   6.939
11026TIP3    H133021   1.585   4.070   6.949
11026TIP3    H233022   1.732   4.082   6.987
11027TIP3   OH233023   0.385   4.365   6.447
11027TIP3    H133024   0.470   4.413   6.433
11027TIP3    H233025   0.385   4.313   6.364
11028TIP3   OH233026   0.294   3.632   6.548
11028TIP3    H133027   0.299   3.729   6.541
11028TIP3    H233028   0.274   3.606   6.457
11029TIP3   OH233029   1.629   5.091   6.885
11029TIP3    H133030   1.587   5.142   6.813
11029TIP3    H233031   1.723   5.109   6.866
11030TIP3   OH233032   0.710   3.350   7.411
11030TIP3    H133033   0.680   3.319   7.323
11030TIP3    H233034   0.695   3.270   7.466
11031TIP3   OH233035   0.862   5.097   7.881
11031TIP3    H133036   0.943   5.088   7.933
11031TIP3    H233037   0.864   5.017   7.826
11032TIP3   OH233038   0.871   4.658   6.047
11032TIP3    H133039   0.814   4.583   6.075
11032TIP3    H233040   0.944   4.611   6.002
11033TIP3   OH233041   1.524   4.993   7.636
11033TIP3    H133042   1.510   4.918   7.698
11033TIP3    H233043   1.600   5.040   7.675
11034TIP3   OH233044   1.288   4.674   5.934
11034TIP3    H133045   1.338   4.641   6.010
11034TIP3    H233046   1.356   4.692   5.867
11035TIP3   OH233047   0.507   4.175   6.269
11035TIP3    H133048   0.569   4.144   6.338
11035TIP3    H233049   0.569   4.177   6.192
11036TIP3   OH233050   1.151   4.607   7.829
11036TIP3    H133051   1.109   4.629   7.743
11036TIP3    H233052   1.177   4.513   7.817
11037TIP3   OH233053   1.018   4.373   6.073
11037TIP3    H133054   1.026   4.384   6.170
11037TIP3    H233055   1.020   4.275   6.066
11038TIP3   OH233056   1.633   4.619   7.451
11038TIP3    H133057   1.708   4.663   7.404
11038TIP3    H233058   1.561   4.682   7.432
11039TIP3   OH233059   0.717   4.076   6.482
11039TIP3    H133060   0.697   4.028   6.564
11039TIP3    H233061   0.756   4.005   6.426
11040TIP3   OH233062   0.993   4.148   7.715
11040TIP3    H133063   0.908   4.195   7.708
11040TIP3    H233064   1.040   4.177   7.633
11041TIP3   OH233065   0.822   3.875   6.323
11041TIP3    H133066   0.796   3.878   6.229
11041TIP3    H233067   0.919   3.873   6.315
11042TIP3   OH233068   1.509   4.537   7.846
11042TIP3    H133069   1.579   4.508   7.786
11042TIP3    H233070   1.503   4.463   7.908
11043TIP3   OH233071   1.640   4.188   5.978
11043TIP3    H133072   1.657   4.146   5.892
11043TIP3    H233073   1.603   4.275   5.951
11044TIP3   OH233074   1.106   3.922   7.833
11044TIP3    H133075   1.096   3.848   7.771
11044TIP3    H233076   1.050   3.992   7.794
11045TIP3   OH233077   1.106   3.722   7.637
11045TIP3    H133078   1.133   3.771   7.556
11045TIP3    H233079   1.013   3.700   7.617
11046TIP3   OH233080   1.141   4.255   7.518
11046TIP3    H133081   1.221   4.261   7.465
11046TIP3    H233082   1.080   4.316   7.469
11047TIP3   OH233083   1.732   4.209   7.890
11047TIP3    H133084   1.770   4.120   7.902
11047TIP3    H233085   1.805   4.256   7.847
11048TIP3   OH233086   1.761   4.472   7.635
11048TIP3    H133087   1.704   4.527   7.576
11048TIP3    H233088   1.849   4.491   7.596
11049TIP3   OH233089   1.247   3.485   7.663
11049TIP3    H133090   1.198   3.569   7.650
11049TIP3    H233091   1.176   3.419   7.654
11050TIP3   OH233092   1.363   3.979   7.883
11050TIP3    H133093   1.343   4.021   7.969
11050TIP3    H233094   1.272   3.949   7.858
11051TIP3   OH233095   1.621   3.937   7.785
11051TIP3    H133096   1.533   3.932   7.828
11051TIP3    H233097   1.682   3.913   7.858
11052TIP3   OH233098   1.832   3.899   7.973
11052TIP3    H133099   1.860   3.805   7.965
11052TIP3    H233100   1.824   3.906   8.071
11053TIP3   OH233101   1.263   3.334   7.902
11053TIP3    H133102   1.312   3.378   7.973
11053TIP3    H233103   1.258   3.404   7.835
11054TIP3   OH233104   0.646   4.931   6.233
11054TIP3    H133105   0.738   4.932   6.202
11054TIP3    H233106   0.604   4.981   6.161
11055TIP3   OH233107   1.883   5.183   6.846
11055TIP3    H133108   1.918   5.208   6.933
11055TIP3    H233109   1.954   5.210   6.786
11056TIP3   OH233110   1.915   5.197   7.131
11056TIP3    H133111   1.867   5.112   7.124
11056TIP3    H233112   1.990   5.168   7.185
11057TIP3   OH233113   1.958   4.875   7.703
11057TIP3    H133114   1.884   4.884   7.766
11057TIP3    H233115   2.000   4.963   7.707
11058TIP3   OH233116   1.775   4.386   6.320
11058TIP3    H133117   1.842   4.450   6.289
11058TIP3    H233118   1.821   4.348   6.398
11059TIP3   OH233119   1.904   4.255   6.525
11059TIP3    H133120   1.837   4.212   6.583
11059TIP3    H233121   1.969   4.290   6.589
11060TIP3   OH233122   1.961   4.648   6.956
11060TIP3    H133123   2.012   4.578   6.910
11060TIP3    H233124   1.956   4.718   6.889
11061TIP3   OH233125   1.788   4.949   7.149
11061TIP3    H133126   1.715   4.987   7.201
11061TIP3    H233127   1.740   4.901   7.078
11062TIP3   OH233128   1.839   4.163   6.169
11062TIP3    H133129   1.768   4.160   6.100
11062TIP3    H233130   1.808   4.239   6.222
11063TIP3   OH233131   1.710   3.835   6.121
11063TIP3    H133132   1.675   3.865   6.036
11063TIP3    H233133   1.686   3.740   6.117
11064TIP3   OH233134   1.716   4.112   6.669
11064TIP3    H133135   1.724   4.016   6.659
11064TIP3    H233136   1.702   4.123   6.766
11065TIP3   OH233137   2.007   4.537   7.529
11065TIP3    H133138   2.078   4.469   7.519
11065TIP3    H233139   2.030   4.601   7.460
11066TIP3   OH233140   2.189   4.338   7.542
11066TIP3    H133141   2.114   4.286   7.579
11066TIP3    H233142   2.262   4.275   7.558
11067TIP3   OH233143   1.656   3.568   6.113
11067TIP3    H133144   1.728   3.533   6.168
11067TIP3    H233145   1.582   3.508   6.129
11068TIP3   OH233146   1.715   3.829   6.562
11068TIP3    H133147   1.756   3.741   6.577
11068TIP3    H233148   1.772   3.860   6.489
11069TIP3   OH233149   1.874   3.999   7.060
11069TIP3    H133150   1.959   4.024   7.018
11069TIP3    H233151   1.890   4.036   7.149
11070TIP3   OH233152   1.947   4.146   7.291
11070TIP3    H133153   1.868   4.180   7.337
11070TIP3    H233154   1.979   4.226   7.245
11071TIP3   OH233155   2.393   3.736   7.847
11071TIP3    H133156   2.459   3.677   7.803
11071TIP3    H233157   2.366   3.795   7.774
11072TIP3   OH233158   1.821   3.579   6.603
11072TIP3    H133159   1.870   3.561   6.686
11072TIP3    H233160   1.761   3.502   6.600
11073TIP3   OH233161   0.537   3.563   7.431
11073TIP3    H133162   0.599   3.487   7.430
11073TIP3    H233163   0.598   3.636   7.408
11074TIP3   OH233164   2.265   3.873   7.649
11074TIP3    H133165   2.178   3.915   7.665
11074TIP3    H233166   2.237   3.802   7.588
11075TIP3   OH233167   1.903   3.507   6.240
11075TIP3    H133168   1.941   3.439   6.180
11075TIP3    H233169   1.968   3.580   6.232
11076TIP3   OH233170   0.332   3.370   7.020
11076TIP3    H133171   0.242   3.336   7.024
11076TIP3    H233172   0.331   3.423   6.938
11077TIP3   OH233173   1.474   5.048   6.510
11077TIP3    H133174   1.515   5.024   6.424
11077TIP3    H233175   1.541   5.108   6.545
11078TIP3   OH233176   0.747   4.916   7.433
11078TIP3    H133177   0.728   4.993   7.376
11078TIP3    H233178   0.837   4.895   7.402
11079TIP3   OH233179   1.189   5.121   7.567
11079TIP3    H133180   1.228   5.121   7.657
11079TIP3    H233181   1.255   5.176   7.519
11080TIP3   OH233182   1.369   5.280   7.432
11080TIP3    H133183   1.438   5.226   7.392
11080TIP3    H233184   1.422   5.336   7.493
11081TIP3   OH233185   2.166   3.636   7.524
11081TIP3    H133186   2.075   3.628   7.488
11081TIP3    H233187   2.198   3.544   7.513
11082TIP3   OH233188   0.662   5.140   7.293
11082TIP3    H133189   0.633   5.230   7.313
11082TIP3    H233190   0.625   5.125   7.205
11083TIP3   OH233191   1.092   5.143   7.122
11083TIP3    H133192   1.030   5.168   7.053
11083TIP3    H233193   1.105   5.228   7.170
11084TIP3   OH233194   1.359   5.084   7.170
11084TIP3    H133195   1.264   5.099   7.150
11084TIP3    H233196   1.402   5.157   7.122
11085TIP3   OH233197   1.561   5.276   7.078
11085TIP3    H133198   1.547   5.359   7.028
11085TIP3    H233199   1.588   5.214   7.007
11086TIP3   OH233200   0.532   4.803   7.043
11086TIP3    H133201   0.537   4.714   7.086
11086TIP3    H233202   0.624   4.833   7.053
11087TIP3   OH233203   0.798   4.888   7.071
11087TIP3    H133204   0.828   4.795   7.062
11087TIP3    H233205   0.855   4.915   7.144
11088TIP3   OH233206   1.370   3.553   7.152
11088TIP3    H133207   1.329   3.480   7.203
11088TIP3    H233208   1.443   3.508   7.107
11089TIP3   OH233209   1.890   3.437   7.058
11089TIP3    H133210   1.927   3.486   6.981
11089TIP3    H233211   1.794   3.453   7.048
11090TIP3   OH233212   1.986   3.531   6.820
11090TIP3    H133213   2.059   3.479   6.780
11090TIP3    H233214   2.020   3.622   6.805
11091TIP3   OH233215   0.616   3.263   7.167
11091TIP3    H133216   0.521   3.238   7.162
11091TIP3    H233217   0.659   3.175   7.161
11092TIP3   OH233218   0.435   3.123   6.822
11092TIP3    H133219   0.451   3.180   6.745
11092TIP3    H233220   0.375   3.177   6.875
11093TIP3   OH233221   1.065   3.293   7.049
11093TIP3    H133222   1.119   3.340   6.983
11093TIP3    H233223   1.097   3.332   7.132
11094TIP3   OH233224   1.606   3.442   7.030
11094TIP3    H133225   1.608   3.403   6.942
11094TIP3    H233226   1.595   3.362   7.087
11095TIP3   OH233227   1.639   3.366   6.594
11095TIP3    H133228   1.552   3.408   6.607
11095TIP3    H233229   1.624   3.279   6.638
11096TIP3   OH233230   0.525   3.287   6.584
11096TIP3    H133231   0.570   3.223   6.524
11096TIP3    H233232   0.601   3.339   6.617
11097TIP3   OH233233   1.032   3.468   6.677
11097TIP3    H133234   1.094   3.420   6.735
11097TIP3    H233235   1.056   3.561   6.701
11098TIP3   OH233236   0.926   4.904   6.184
11098TIP3    H133237   0.989   4.964   6.137
11098TIP3    H233238   0.913   4.834   6.116
11099TIP3   OH233239   1.608   5.012   6.273
11099TIP3    H133240   1.606   4.914   6.258
11099TIP3    H233241   1.555   5.043   6.197
11100TIP3   OH233242   1.932   3.636   7.959
11100TIP3    H133243   1.973   3.576   8.026
11100TIP3    H233244   2.003   3.633   7.890
11101TIP3   OH233245   1.836   5.151   7.459
11101TIP3    H133246   1.759   5.120   7.407
11101TIP3    H233247   1.816   5.247   7.465
11102TIP3   OH233248   3.107   4.529   6.220
11102TIP3    H133249   3.074   4.618   6.198
11102TIP3    H233250   3.033   4.474   6.188
11103TIP3   OH233251   3.102   4.530   6.609
11103TIP3    H133252   3.139   4.500   6.694
11103TIP3    H233253   3.067   4.447   6.572
11104TIP3   OH233254   2.402   4.422   6.973
11104TIP3    H133255   2.432   4.352   7.034
11104TIP3    H233256   2.486   4.465   6.951
11105TIP3   OH233257   3.349   4.833   6.286
11105TIP3    H133258   3.335   4.760   6.349
11105TIP3    H233259   3.382   4.904   6.344
11106TIP3   OH233260   2.377   4.832   6.693
11106TIP3    H133261   2.369   4.734   6.693
11106TIP3    H233262   2.474   4.841   6.684
11107TIP3   OH233263   2.081   4.031   6.474
11107TIP3    H133264   2.033   4.114   6.491
11107TIP3    H233265   2.011   3.979   6.431
11108TIP3   OH233266   2.141   4.321   6.655
11108TIP3    H133267   2.190   4.242   6.688
11108TIP3    H233268   2.198   4.352   6.584
11109TIP3   OH233269   3.002   5.291   6.305
11109TIP3    H133270   3.043   5.221   6.250
11109TIP3    H233271   2.996   5.246   6.390
11110TIP3   OH233272   2.903   4.753   6.653
11110TIP3    H133273   2.943   4.675   6.612
11110TIP3    H233274   2.985   4.800   6.676
11111TIP3   OH233275   3.920   4.071   6.650
11111TIP3    H133276   3.950   4.156   6.688
11111TIP3    H233277   3.948   4.082   6.557
11112TIP3   OH233278   3.315   4.252   6.683
11112TIP3    H133279   3.363   4.169   6.703
11112TIP3    H233280   3.285   4.234   6.592
11113TIP3   OH233281   2.654   3.913   6.649
11113TIP3    H133282   2.638   3.985   6.585
11113TIP3    H233283   2.608   3.839   6.604
11114TIP3   OH233284   3.343   4.007   6.273
11114TIP3    H133285   3.414   3.985   6.338
11114TIP3    H233286   3.399   4.031   6.197
11115TIP3   OH233287   2.288   4.113   6.756
11115TIP3    H133288   2.371   4.094   6.803
11115TIP3    H233289   2.302   4.058   6.676
11116TIP3   OH233290   2.726   4.312   6.557
11116TIP3    H133291   2.822   4.289   6.565
11116TIP3    H233292   2.690   4.228   6.521
11117TIP3   OH233293   3.996   4.283   6.818
11117TIP3    H133294   3.911   4.327   6.797
11117TIP3    H233295   4.004   4.306   6.912
11118TIP3   OH233296   2.651   3.897   7.083
11118TIP3    H133297   2.592   3.933   7.014
11118TIP3    H233298   2.597   3.916   7.163
11119TIP3   OH233299   2.993   4.747   6.091
11119TIP3    H133300   2.953   4.731   6.005
11119TIP3    H233301   2.948   4.830   6.118
11120TIP3   OH233302   2.758   4.672   6.874
11120TIP3    H133303   2.699   4.741   6.911
11120TIP3    H233304   2.802   4.719   6.801
11121TIP3   OH233305   3.549   4.020   6.449
11121TIP3    H133306   3.580   3.940   6.492
11121TIP3    H233307   3.610   4.089   6.482
11122TIP3   OH233308   2.522   4.011   6.867
11122TIP3    H133309   2.586   4.083   6.890
11122TIP3    H233310   2.570   3.971   6.791
11123TIP3   OH233311   2.587   4.869   6.977
11123TIP3    H133312   2.561   4.955   6.938
11123TIP3    H233313   2.507   4.851   7.032
11124TIP3   OH233314   1.975   4.557   6.210
11124TIP3    H133315   1.936   4.582   6.125
11124TIP3    H233316   2.008   4.642   6.244
11125TIP3   OH233317   3.417   5.075   6.453
11125TIP3    H133318   3.327   5.065   6.490
11125TIP3    H233319   3.409   5.160   6.406
11126TIP3   OH233320   3.710   3.974   6.817
11126TIP3    H133321   3.621   3.995   6.781
11126TIP3    H233322   3.769   4.004   6.745
11127TIP3   OH233323   3.003   3.611   6.796
11127TIP3    H133324   2.989   3.516   6.815
11127TIP3    H233325   2.926   3.650   6.844
11128TIP3   OH233326   3.115   5.119   6.120
11128TIP3    H133327   3.165   5.035   6.104
11128TIP3    H233328   3.179   5.183   6.082
11129TIP3   OH233329   3.261   4.904   6.036
11129TIP3    H133330   3.228   4.822   5.996
11129TIP3    H233331   3.299   4.870   6.120
11130TIP3   OH233332   3.644   4.983   6.796
11130TIP3    H133333   3.632   4.906   6.736
11130TIP3    H233334   3.628   5.058   6.734
11131TIP3   OH233335   2.937   4.380   6.054
11131TIP3    H133336   2.858   4.432   6.030
11131TIP3    H233337   2.984   4.374   5.969
11132TIP3   OH233338   2.893   4.167   5.765
11132TIP3    H133339   2.961   4.216   5.815
11132TIP3    H233340   2.949   4.102   5.718
11133TIP3   OH233341   3.840   4.626   6.644
11133TIP3    H133342   3.755   4.675   6.646
11133TIP3    H233343   3.869   4.646   6.553
11134TIP3   OH233344   3.285   4.463   6.023
11134TIP3    H133345   3.231   4.485   6.102
11134TIP3    H233346   3.369   4.435   6.066
11135TIP3   OH233347   3.518   4.498   6.940
11135TIP3    H133348   3.514   4.582   6.989
11135TIP3    H233349   3.432   4.501   6.893
11136TIP3   OH233350   2.517   4.458   6.443
11136TIP3    H133351   2.475   4.400   6.376
11136TIP3    H233352   2.592   4.403   6.474
11137TIP3   OH233353   2.645   4.869   6.590
11137TIP3    H133354   2.626   4.834   6.502
11137TIP3    H233355   2.734   4.833   6.607
11138TIP3   OH233356   2.645   4.431   6.798
11138TIP3    H133357   2.680   4.402   6.711
11138TIP3    H233358   2.694   4.515   6.814
11139TIP3   OH233359   3.175   5.069   6.573
11139TIP3    H133360   3.166   5.147   6.630
11139TIP3    H233361   3.162   4.994   6.634
11140TIP3   OH233362   2.792   4.987   7.120
11140TIP3    H133363   2.730   5.048   7.166
11140TIP3    H233364   2.728   4.933   7.070
11141TIP3   OH233365   3.120   4.324   5.850
11141TIP3    H133366   3.182   4.382   5.901
11141TIP3    H233367   3.148   4.344   5.757
11142TIP3   OH233368   2.548   4.541   7.228
11142TIP3    H133369   2.550   4.630   7.269
11142TIP3    H233370   2.452   4.521   7.233
11143TIP3   OH233371   2.868   4.997   6.127
11143TIP3    H133372   2.952   5.047   6.135
11143TIP3    H233373   2.810   5.061   6.084
11144TIP3   OH233374   2.584   5.153   7.207
11144TIP3    H133375   2.551   5.155   7.115
11144TIP3    H233376   2.503   5.132   7.258
11145TIP3   OH233377   3.627   3.567   5.911
11145TIP3    H133378   3.585   3.604   5.991
11145TIP3    H233379   3.640   3.646   5.857
11146TIP3   OH233380   2.381   4.303   6.249
11146TIP3    H133381   2.313   4.344   6.192
11146TIP3    H233382   2.350   4.212   6.255
11147TIP3   OH233383   3.440   4.925   5.448
11147TIP3    H133384   3.449   5.021   5.433
11147TIP3    H233385   3.533   4.895   5.436
11148TIP3   OH233386   2.163   4.687   7.153
11148TIP3    H133387   2.097   4.664   7.085
11148TIP3    H233388   2.201   4.599   7.176
11149TIP3   OH233389   2.019   4.878   6.785
11149TIP3    H133390   2.114   4.866   6.772
11149TIP3    H233391   2.017   4.955   6.844
11150TIP3   OH233392   3.881   5.331   6.844
11150TIP3    H133393   3.881   5.235   6.857
11150TIP3    H233394   3.798   5.356   6.890
11151TIP3   OH233395   2.987   5.116   6.977
11151TIP3    H133396   2.984   5.208   7.010
11151TIP3    H233397   2.916   5.074   7.031
11152TIP3   OH233398   2.751   5.242   5.930
11152TIP3    H133399   2.704   5.224   5.846
11152TIP3    H233400   2.717   5.330   5.955
11153TIP3   OH233401   2.187   5.092   6.315
11153TIP3    H133402   2.233   5.082   6.401
11153TIP3    H233403   2.139   5.007   6.310
11154TIP3   OH233404   2.950   5.145   5.567
11154TIP3    H133405   3.009   5.075   5.532
11154TIP3    H233406   2.985   5.156   5.658
11155TIP3   OH233407   3.002   5.194   5.837
11155TIP3    H133408   2.914   5.203   5.880
11155TIP3    H233409   3.054   5.154   5.909
11156TIP3   OH233410   3.769   4.458   7.118
11156TIP3    H133411   3.688   4.468   7.065
11156TIP3    H233412   3.787   4.362   7.106
11157TIP3   OH233413   2.367   4.870   7.142
11157TIP3    H133414   2.418   4.850   7.223
11157TIP3    H233415   2.293   4.806   7.147
11158TIP3   OH233416   2.767   3.689   6.930
11158TIP3    H133417   2.679   3.660   6.899
11158TIP3    H233418   2.741   3.771   6.975
11159TIP3   OH233419   3.304   3.806   7.121
11159TIP3    H133420   3.374   3.776   7.183
11159TIP3    H233421   3.222   3.785   7.170
11160TIP3   OH233422   3.539   4.235   7.041
11160TIP3    H133423   3.487   4.233   7.124
11160TIP3    H233424   3.516   4.322   7.003
11161TIP3   OH233425   3.197   4.365   5.593
11161TIP3    H133426   3.166   4.338   5.504
11161TIP3    H233427   3.283   4.405   5.571
11162TIP3   OH233428   2.911   3.740   5.899
11162TIP3    H133429   2.881   3.737   5.992
11162TIP3    H233430   2.873   3.657   5.866
11163TIP3   OH233431   2.698   4.208   6.945
11163TIP3    H133432   2.649   4.229   7.027
11163TIP3    H233433   2.683   4.289   6.892
11164TIP3   OH233434   2.582   4.095   6.460
11164TIP3    H133435   2.490   4.066   6.478
11164TIP3    H233436   2.596   4.053   6.372
11165TIP3   OH233437   3.075   4.179   6.191
11165TIP3    H133438   3.025   4.248   6.143
11165TIP3    H233439   3.130   4.140   6.120
11166TIP3   OH233440   3.249   4.456   7.274
11166TIP3    H133441   3.227   4.381   7.335
11166TIP3    H233442   3.344   4.467   7.294
11167TIP3   OH233443   3.227   4.206   6.425
11167TIP3    H133444   3.166   4.227   6.352
11167TIP3    H233445   3.268   4.126   6.385
11168TIP3   OH233446   2.517   4.236   7.154
11168TIP3    H133447   2.556   4.297   7.220
11168TIP3    H233448   2.508   4.154   7.206
11169TIP3   OH233449   2.567   3.712   5.864
11169TIP3    H133450   2.560   3.712   5.961
11169TIP3    H233451   2.490   3.766   5.839
11170TIP3   OH233452   2.111   3.755   6.739
11170TIP3    H133453   2.188   3.788   6.789
11170TIP3    H233454   2.149   3.727   6.654
11171TIP3   OH233455   2.078   3.737   6.254
11171TIP3    H133456   2.124   3.773   6.175
11171TIP3    H233457   2.017   3.811   6.272
11172TIP3   OH233458   3.240   4.450   6.847
11172TIP3    H133459   3.273   4.379   6.787
11172TIP3    H233460   3.210   4.396   6.923
11173TIP3   OH233461   2.914   3.920   6.521
11173TIP3    H133462   2.836   3.915   6.580
11173TIP3    H233463   2.988   3.905   6.583
11174TIP3   OH233464   2.344   3.971   6.528
11174TIP3    H133465   2.250   3.977   6.498
11174TIP3    H233466   2.369   3.880   6.504
11175TIP3   OH233467   2.607   3.966   6.220
11175TIP3    H133468   2.703   3.979   6.203
11175TIP3    H233469   2.565   3.988   6.134
11176TIP3   OH233470   3.408   3.996   6.737
11176TIP3    H133471   3.358   4.003   6.821
11176TIP3    H233472   3.354   3.934   6.686
11177TIP3   OH233473   2.457   4.004   5.994
11177TIP3    H133474   2.388   3.957   5.944
11177TIP3    H233475   2.511   4.040   5.919
11178TIP3   OH233476   3.575   5.681   6.943
11178TIP3    H133477   3.574   5.703   6.848
11178TIP3    H233478   3.656   5.726   6.973
11179TIP3   OH233479   2.529   4.792   7.362
11179TIP3    H133480   2.610   4.819   7.410
11179TIP3    H233481   2.466   4.788   7.437
11180TIP3   OH233482   2.993   4.246   6.617
11180TIP3    H133483   3.064   4.208   6.562
11180TIP3    H233484   3.003   4.196   6.700
11181TIP3   OH233485   2.513   3.732   6.498
11181TIP3    H133486   2.479   3.653   6.546
11181TIP3    H233487   2.563   3.692   6.426
11182TIP3   OH233488   2.969   4.139   6.911
11182TIP3    H133489   2.880   4.177   6.922
11182TIP3    H233490   3.027   4.202   6.958
11183TIP3   OH233491   2.703   4.533   6.000
11183TIP3    H133492   2.633   4.465   5.990
11183TIP3    H233493   2.685   4.565   6.091
11184TIP3   OH233494   3.604   4.768   6.629
11184TIP3    H133495   3.629   4.818   6.548
11184TIP3    H233496   3.521   4.724   6.602
11185TIP3   OH233497   3.159   3.849   5.852
11185TIP3    H133498   3.067   3.824   5.877
11185TIP3    H233499   3.171   3.935   5.898
11186TIP3   OH233500   3.102   4.848   6.999
11186TIP3    H133501   3.138   4.830   7.087
11186TIP3    H233502   3.068   4.938   7.007
11187TIP3   OH233503   3.233   4.093   5.971
11187TIP3    H133504   3.329   4.095   5.988
11187TIP3    H233505   3.218   4.173   5.918
11188TIP3   OH233506   2.400   4.556   6.675
11188TIP3    H133507   2.436   4.527   6.589
11188TIP3    H233508   2.446   4.496   6.736
11189TIP3   OH233509   2.850   4.680   5.822
11189TIP3    H133510   2.802   4.766   5.828
11189TIP3    H233511   2.797   4.625   5.884
11190TIP3   OH233512   2.279   4.476   7.293
11190TIP3    H133513   2.299   4.458   7.387
11190TIP3    H233514   2.212   4.408   7.273
11191TIP3   OH233515   3.008   4.589   7.311
11191TIP3    H133516   2.949   4.531   7.261
11191TIP3    H233517   3.096   4.553   7.284
11192TIP3   OH233518   3.264   5.112   6.897
11192TIP3    H133519   3.168   5.109   6.910
11192TIP3    H233520   3.292   5.163   6.975
11193TIP3   OH233521   3.671   4.180   5.806
11193TIP3    H133522   3.609   4.139   5.742
11193TIP3    H233523   3.672   4.270   5.769
11194TIP3   OH233524   3.895   5.042   6.884
11194TIP3    H133525   3.797   5.034   6.876
11194TIP3    H233526   3.921   5.010   6.794
11195TIP3   OH233527   3.374   5.000   5.712
11195TIP3    H133528   3.351   4.930   5.775
11195TIP3    H233529   3.389   4.952   5.629
11196TIP3   OH233530   3.371   4.629   6.547
11196TIP3    H133531   3.278   4.605   6.559
11196TIP3    H233532   3.406   4.548   6.504
11197TIP3   OH233533   2.501   4.860   6.308
11197TIP3    H133534   2.499   4.939   6.251
11197TIP3    H233535   2.408   4.837   6.311
11198TIP3   OH233536   2.066   4.159   6.013
11198TIP3    H133537   2.109   4.245   6.033
11198TIP3    H233538   1.987   4.164   6.071
11199TIP3   OH233539   2.632   4.622   6.244
11199TIP3    H133540   2.601   4.711   6.267
11199TIP3    H233541   2.600   4.570   6.320
11200TIP3   OH233542   2.771   5.200   6.772
11200TIP3    H133543   2.813   5.272   6.721
11200TIP3    H233544   2.847   5.162   6.817
11201TIP3   OH233545   2.417   5.098   6.154
11201TIP3    H133546   2.332   5.106   6.202
11201TIP3    H233547   2.450   5.190   6.157
11202TIP3   OH233548   3.156   4.837   6.731
11202TIP3    H133549   3.146   4.832   6.828
11202TIP3    H233550   3.233   4.780   6.717
11203TIP3   OH233551   3.135   4.730   5.615
11203TIP3    H133552   3.190   4.705   5.693
11203TIP3    H233553   3.048   4.700   5.645
11204TIP3   OH233554   3.404   5.368   6.782
11204TIP3    H133555   3.325   5.311   6.776
11204TIP3    H233556   3.389   5.431   6.709
11205TIP3   OH233557   3.471   5.201   5.432
11205TIP3    H133558   3.511   5.276   5.385
11205TIP3    H233559   3.391   5.245   5.466
11206TIP3   OH233560   2.488   3.980   7.297
11206TIP3    H133561   2.391   3.980   7.307
11206TIP3    H233562   2.516   3.921   7.369
11207TIP3   OH233563   3.295   4.663   5.830
11207TIP3    H133564   3.284   4.596   5.901
11207TIP3    H233565   3.392   4.658   5.818
11208TIP3   OH233566   2.206   5.062   6.932
11208TIP3    H133567   2.259   4.986   6.959
11208TIP3    H233568   2.244   5.131   6.989
11209TIP3   OH233569   2.496   4.707   5.614
11209TIP3    H133570   2.511   4.614   5.589
11209TIP3    H233571   2.475   4.698   5.709
11210TIP3   OH233572   2.441   4.714   5.886
11210TIP3    H133573   2.516   4.684   5.939
11210TIP3    H233574   2.447   4.812   5.895
11211TIP3   OH233575   2.176   4.406   6.091
11211TIP3    H133576   2.108   4.450   6.146
11211TIP3    H233577   2.189   4.474   6.022
11212TIP3   OH233578   3.319   4.052   6.996
11212TIP3    H133579   3.410   4.081   7.016
11212TIP3    H233580   3.313   3.966   7.044
11213TIP3   OH233581   3.169   3.817   6.154
11213TIP3    H133582   3.203   3.803   6.065
11213TIP3    H233583   3.237   3.876   6.192
11214TIP3   OH233584   2.709   4.910   5.833
11214TIP3    H133585   2.622   4.935   5.871
11214TIP3    H233586   2.725   4.986   5.775
11215TIP3   OH233587   2.886   3.980   6.251
11215TIP3    H133588   2.959   4.042   6.231
11215TIP3    H233589   2.899   3.967   6.348
11216TIP3   OH233590   3.166   4.289   7.054
11216TIP3    H133591   3.195   4.336   7.135
11216TIP3    H233592   3.219   4.207   7.056
11217TIP3   OH233593   3.034   3.693   6.352
11217TIP3    H133594   3.042   3.766   6.416
11217TIP3    H233595   3.087   3.733   6.278
11218TIP3   OH233596   2.455   4.987   5.904
11218TIP3    H133597   2.424   5.057   5.842
11218TIP3    H233598   2.438   5.029   5.991
11219TIP3   OH233599   2.553   3.701   6.140
11219TIP3    H133600   2.551   3.791   6.178
11219TIP3    H233601   2.649   3.683   6.148
11220TIP3   OH233602   3.806   4.192   7.036
11220TIP3    H133603   3.708   4.192   7.044
11220TIP3    H233604   3.814   4.142   6.953
11221TIP3   OH233605   3.456   4.387   6.427
11221TIP3    H133606   3.382   4.325   6.435
11221TIP3    H233607   3.528   4.339   6.473
11222TIP3   OH233608   2.172   4.612   5.894
11222TIP3    H133609   2.244   4.677   5.903
11222TIP3    H233610   2.215   4.552   5.827
11223TIP3   OH233611   2.110   3.889   6.029
11223TIP3    H133612   2.113   3.987   6.027
11223TIP3    H233613   2.029   3.871   5.980
11224TIP3   OH233614   3.426   5.346   6.373
11224TIP3    H133615   3.384   5.393   6.298
11224TIP3    H233616   3.521   5.366   6.353
11225TIP3   OH233617   2.500   3.612   6.901
11225TIP3    H133618   2.472   3.578   6.813
11225TIP3    H233619   2.490   3.532   6.957
11226TIP3   OH233620   2.041   4.835   6.279
11226TIP3    H133621   1.971   4.860   6.341
11226TIP3    H233622   2.007   4.875   6.195
11227TIP3   OH233623   2.200   5.376   7.355
11227TIP3    H133624   2.287   5.375   7.400
11227TIP3    H233625   2.181   5.281   7.351
11228TIP3   OH233626   2.675   5.333   7.398
11228TIP3    H133627   2.770   5.315   7.406
11228TIP3    H233628   2.651   5.272   7.325
11229TIP3   OH233629   2.659   4.910   5.524
11229TIP3    H133630   2.603   4.838   5.563
11229TIP3    H233631   2.736   4.858   5.495
11230TIP3   OH233632   3.314   5.245   7.135
11230TIP3    H133633   3.309   5.173   7.202
11230TIP3    H233634   3.394   5.294   7.162
11231TIP3   OH233635   3.095   4.949   5.439
11231TIP3    H133636   3.136   4.885   5.500
11231TIP3    H233637   3.155   4.945   5.362
11232TIP3   OH233638   2.327   4.779   7.555
11232TIP3    H133639   2.345   4.683   7.560
11232TIP3    H233640   2.241   4.780   7.507
11233TIP3   OH233641   2.308   4.426   5.750
11233TIP3    H133642   2.363   4.393   5.823
11233TIP3    H233643   2.375   4.431   5.678
11234TIP3   OH233644   2.932   4.864   7.329
11234TIP3    H133645   2.896   4.884   7.240
11234TIP3    H233646   2.966   4.772   7.318
11235TIP3   OH233647   2.819   4.627   5.554
11235TIP3    H133648   2.822   4.639   5.651
11235TIP3    H233649   2.821   4.529   5.548
11236TIP3   OH233650   3.428   4.877   6.936
11236TIP3    H133651   3.505   4.917   6.891
11236TIP3    H233652   3.360   4.945   6.917
11237TIP3   OH233653   2.448   4.516   7.537
11237TIP3    H133654   2.525   4.467   7.506
11237TIP3    H233655   2.478   4.546   7.625
11238TIP3   OH233656   2.512   4.334   5.967
11238TIP3    H133657   2.487   4.291   6.050
11238TIP3    H233658   2.551   4.259   5.917
11239TIP3   OH233659   2.780   4.394   7.197
11239TIP3    H133660   2.705   4.456   7.198
11239TIP3    H233661   2.834   4.429   7.122
11240TIP3   OH233662   2.616   4.130   5.809
11240TIP3    H133663   2.593   4.134   5.714
11240TIP3    H233664   2.714   4.130   5.803
11241TIP3   OH233665   3.302   4.799   7.330
11241TIP3    H133666   3.378   4.768   7.280
11241TIP3    H233667   3.297   4.733   7.401
11242TIP3   OH233668   3.432   4.456   5.475
11242TIP3    H133669   3.414   4.410   5.391
11242TIP3    H233670   3.398   4.546   5.453
11243TIP3   OH233671   2.905   4.186   7.323
11243TIP3    H133672   2.908   4.107   7.265
11243TIP3    H233673   2.862   4.252   7.265
11244TIP3   OH233674   2.909   3.973   7.134
11244TIP3    H133675   2.939   4.014   7.050
11244TIP3    H233676   2.816   3.950   7.112
11245TIP3   OH233677   2.932   4.508   7.008
11245TIP3    H133678   3.018   4.514   6.964
11245TIP3    H233679   2.878   4.573   6.959
11246TIP3   OH233680   3.517   4.474   7.384
11246TIP3    H133681   3.562   4.388   7.389
11246TIP3    H233682   3.587   4.529   7.346
11247TIP3   OH233683   3.557   4.730   7.123
11247TIP3    H133684   3.500   4.784   7.063
11247TIP3    H233685   3.645   4.749   7.083
11248TIP3   OH233686   2.784   4.294   7.556
11248TIP3    H133687   2.717   4.225   7.571
11248TIP3    H233688   2.818   4.270   7.468
11249TIP3   OH233689   3.041   3.735   7.202
11249TIP3    H133690   2.992   3.817   7.178
11249TIP3    H233691   2.974   3.666   7.188
11250TIP3   OH233692   3.166   4.237   7.415
11250TIP3    H133693   3.152   4.222   7.510
11250TIP3    H233694   3.077   4.213   7.381
11251TIP3   OH233695   3.408   4.197   7.274
11251TIP3    H133696   3.333   4.191   7.335
11251TIP3    H233697   3.482   4.162   7.328
11252TIP3   OH233698   3.636   4.131   7.421
11252TIP3    H133699   3.649   4.035   7.435
11252TIP3    H233700   3.633   4.166   7.512
11253TIP3   OH233701   2.623   4.074   7.611
11253TIP3    H133702   2.628   3.983   7.576
11253TIP3    H233703   2.661   4.061   7.700
11254TIP3   OH233704   3.132   3.743   7.461
11254TIP3    H133705   3.200   3.673   7.454
11254TIP3    H233706   3.095   3.740   7.370
11255TIP3   OH233707   3.201   3.960   7.614
11255TIP3    H133708   3.181   3.888   7.551
11255TIP3    H233709   3.123   4.018   7.606
11256TIP3   OH233710   2.425   5.192   5.717
11256TIP3    H133711   2.520   5.181   5.697
11256TIP3    H233712   2.397   5.241   5.638
11257TIP3   OH233713   1.902   4.570   5.931
11257TIP3    H133714   1.997   4.590   5.915
11257TIP3    H233715   1.894   4.482   5.889
11258TIP3   OH233716   1.816   5.183   6.347
11258TIP3    H133717   1.752   5.121   6.307
11258TIP3    H233718   1.863   5.124   6.410
11259TIP3   OH233719   1.949   5.032   6.534
11259TIP3    H133720   1.940   4.958   6.597
11259TIP3    H233721   2.006   5.092   6.586
11260TIP3   OH233722   3.678   5.440   6.333
11260TIP3    H133723   3.711   5.468   6.420
11260TIP3    H233724   3.751   5.467   6.274
11261TIP3   OH233725   3.708   5.454   6.617
11261TIP3    H133726   3.664   5.367   6.612
11261TIP3    H233727   3.787   5.429   6.668
11262TIP3   OH233728   3.755   5.131   7.189
11262TIP3    H133729   3.684   5.141   7.255
11262TIP3    H233730   3.798   5.218   7.193
11263TIP3   OH233731   3.572   4.644   5.806
11263TIP3    H133732   3.641   4.707   5.777
11263TIP3    H233733   3.616   4.606   5.886
11264TIP3   OH233734   3.697   4.513   6.012
11264TIP3    H133735   3.632   4.469   6.071
11264TIP3    H233736   3.764   4.546   6.075
11265TIP3   OH233737   3.756   4.904   6.442
11265TIP3    H133738   3.809   4.836   6.396
11265TIP3    H233739   3.754   4.976   6.376
11266TIP3   OH233740   3.584   5.204   6.637
11266TIP3    H133741   3.511   5.244   6.688
11266TIP3    H233742   3.536   5.157   6.565
11267TIP3   OH233743   3.637   4.420   5.656
11267TIP3    H133744   3.564   4.421   5.590
11267TIP3    H233745   3.609   4.494   5.712
11268TIP3   OH233746   3.504   4.092   5.609
11268TIP3    H133747   3.464   4.120   5.527
11268TIP3    H233748   3.485   3.996   5.606
11269TIP3   OH233749   3.511   4.368   6.157
11269TIP3    H133750   3.519   4.271   6.149
11269TIP3    H233751   3.497   4.380   6.253
11270TIP3   OH233752   2.137   4.441   6.906
11270TIP3    H133753   2.136   4.406   6.814
11270TIP3    H233754   2.235   4.443   6.922
11271TIP3   OH233755   3.803   4.793   7.015
11271TIP3    H133756   3.874   4.725   7.005
11271TIP3    H233757   3.828   4.859   6.949
11272TIP3   OH233758   3.985   4.594   7.027
11272TIP3    H133759   3.911   4.544   7.065
11272TIP3    H233760   4.059   4.531   7.044
11273TIP3   OH233761   3.453   3.825   5.592
11273TIP3    H133762   3.526   3.793   5.649
11273TIP3    H233763   3.378   3.767   5.616
11274TIP3   OH233764   3.512   4.077   6.055
11274TIP3    H133765   3.552   3.994   6.086
11274TIP3    H233766   3.572   4.102   5.983
11275TIP3   OH233767   3.672   4.262   6.548
11275TIP3    H133768   3.758   4.285   6.506
11275TIP3    H233769   3.688   4.295   6.638
11276TIP3   OH233770   3.745   4.403   6.779
11276TIP3    H133771   3.665   4.436   6.825
11276TIP3    H233772   3.777   4.484   6.733
11277TIP3   OH233773   2.356   4.127   7.580
11277TIP3    H133774   2.454   4.122   7.582
11277TIP3    H233775   2.334   4.040   7.618
11278TIP3   OH233776   4.192   3.995   7.332
11278TIP3    H133777   4.252   3.930   7.290
11278TIP3    H233778   4.162   4.047   7.254
11279TIP3   OH233779   2.318   3.821   6.915
11279TIP3    H133780   2.379   3.745   6.919
11279TIP3    H233781   2.381   3.894   6.902
11280TIP3   OH233782   2.119   4.093   6.981
11280TIP3    H133783   2.168   4.084   6.897
11280TIP3    H233784   2.152   4.178   7.013
11281TIP3   OH233785   4.060   4.130   7.135
11281TIP3    H133786   3.973   4.172   7.150
11281TIP3    H233787   4.031   4.055   7.078
11282TIP3   OH233788   3.696   3.768   5.724
11282TIP3    H133789   3.735   3.694   5.673
11282TIP3    H233790   3.767   3.836   5.720
11283TIP3   OH233791   2.105   3.600   6.485
11283TIP3    H133792   2.011   3.592   6.509
11283TIP3    H233793   2.101   3.656   6.405
11284TIP3   OH233794   3.262   5.304   5.988
11284TIP3    H133795   3.314   5.290   5.906
11284TIP3    H233796   3.319   5.365   6.037
11285TIP3   OH233797   2.327   3.679   7.296
11285TIP3    H133798   2.273   3.674   7.377
11285TIP3    H233799   2.261   3.715   7.233
11286TIP3   OH233800   2.362   5.113   7.372
11286TIP3    H133801   2.271   5.081   7.355
11286TIP3    H233802   2.378   5.083   7.462
11287TIP3   OH233803   2.543   5.142   6.922
11287TIP3    H133804   2.499   5.218   6.881
11287TIP3    H233805   2.630   5.152   6.878
11288TIP3   OH233806   2.984   5.383   7.060
11288TIP3    H133807   3.028   5.381   7.147
11288TIP3    H233808   3.050   5.433   7.007
11289TIP3   OH233809   3.164   5.535   6.920
11289TIP3    H133810   3.233   5.484   6.875
11289TIP3    H233811   3.218   5.591   6.980
11290TIP3   OH233812   3.961   3.892   7.018
11290TIP3    H133813   3.871   3.881   6.983
11290TIP3    H233814   3.995   3.800   7.009
11291TIP3   OH233815   2.217   5.396   6.943
11291TIP3    H133816   2.128   5.433   6.922
11291TIP3    H233817   2.229   5.430   7.032
11292TIP3   OH233818   2.456   5.374   6.804
11292TIP3    H133819   2.367   5.387   6.846
11292TIP3    H233820   2.438   5.404   6.713
11293TIP3   OH233821   2.880   5.399   6.603
11293TIP3    H133822   2.812   5.418   6.536
11293TIP3    H233823   2.892   5.488   6.644
11294TIP3   OH233824   3.150   5.340   6.657
11294TIP3    H133825   3.057   5.357   6.634
11294TIP3    H233826   3.196   5.411   6.609
11295TIP3   OH233827   3.354   5.530   6.566
11295TIP3    H133828   3.342   5.614   6.517
11295TIP3    H233829   3.383   5.470   6.494
11296TIP3   OH233830   2.128   5.185   6.692
11296TIP3    H133831   2.158   5.159   6.782
11296TIP3    H233832   2.201   5.144   6.639
11297TIP3   OH233833   2.324   5.061   6.551
11297TIP3    H133834   2.341   4.976   6.598
11297TIP3    H233835   2.416   5.096   6.544
11298TIP3   OH233836   2.593   5.152   6.553
11298TIP3    H133837   2.623   5.061   6.539
11298TIP3    H233838   2.642   5.173   6.635
11299TIP3   OH233839   3.159   3.807   6.629
11299TIP3    H133840   3.126   3.733   6.682
11299TIP3    H233841   3.239   3.770   6.588
11300TIP3   OH233842   3.682   3.705   6.535
11300TIP3    H133843   3.701   3.708   6.439
11300TIP3    H233844   3.585   3.711   6.534
11301TIP3   OH233845   2.414   3.518   6.653
11301TIP3    H133846   2.321   3.486   6.655
11301TIP3    H233847   2.462   3.432   6.648
11302TIP3   OH233848   2.207   3.389   6.304
11302TIP3    H133849   2.235   3.444   6.229
11302TIP3    H233850   2.178   3.456   6.369
11303TIP3   OH233851   2.859   3.550   6.536
11303TIP3    H133852   2.913   3.593   6.467
11303TIP3    H233853   2.896   3.590   6.616
11304TIP3   OH233854   3.400   3.704   6.512
11304TIP3    H133855   3.426   3.687   6.419
11304TIP3    H233856   3.384   3.614   6.548
11305TIP3   OH233857   1.917   4.963   6.077
11305TIP3    H133858   1.830   4.929   6.046
11305TIP3    H233859   1.908   5.056   6.048
11306TIP3   OH233860   2.321   3.545   6.065
11306TIP3    H133861   2.369   3.483   6.006
11306TIP3    H233862   2.395   3.599   6.099
11307TIP3   OH233863   2.829   3.726   6.164
11307TIP3    H133864   2.893   3.680   6.221
11307TIP3    H233865   2.853   3.819   6.187
11308TIP3   OH233866   2.691   5.145   5.663
11308TIP3    H133867   2.779   5.167   5.627
11308TIP3    H233868   2.668   5.070   5.603
11309TIP3   OH233869   3.409   5.267   5.757
11309TIP3    H133870   3.401   5.169   5.746
11309TIP3    H233871   3.364   5.297   5.675
11310TIP3   OH233872   2.622   3.798   7.546
11310TIP3    H133873   2.588   3.727   7.602
11310TIP3    H233874   2.716   3.798   7.572
11311TIP3   OH233875   2.872   3.795   7.664
11311TIP3    H133876   2.956   3.774   7.621
11311TIP3    H233877   2.866   3.724   7.731
11312TIP3   OH233878   1.995   4.985   5.717
11312TIP3    H133879   1.995   5.002   5.812
11312TIP3    H233880   2.082   4.942   5.704
11313TIP3   OH233881   3.698   3.860   7.449
11313TIP3    H133882   3.717   3.828   7.540
11313TIP3    H233883   3.787   3.855   7.408
11314TIP3   OH233884   3.632   5.410   6.945
11314TIP3    H133885   3.555   5.380   6.893
11314TIP3    H233886   3.614   5.506   6.949
11315TIP3   OH233887   4.896   4.791   5.704
11315TIP3    H133888   4.866   4.882   5.684
11315TIP3    H233889   4.819   4.740   5.676
11316TIP3   OH233890   4.910   4.777   6.089
11316TIP3    H133891   4.939   4.759   6.180
11316TIP3    H233892   4.861   4.696   6.068
11317TIP3   OH233893   4.198   4.677   6.458
11317TIP3    H133894   4.230   4.607   6.518
11317TIP3    H233895   4.278   4.730   6.447
11318TIP3   OH233896   5.150   5.084   5.772
11318TIP3    H133897   5.126   5.023   5.843
11318TIP3    H233898   5.175   5.164   5.823
11319TIP3   OH233899   4.169   5.084   6.184
11319TIP3    H133900   4.164   4.986   6.184
11319TIP3    H233901   4.265   5.094   6.167
11320TIP3   OH233902   3.884   4.302   5.955
11320TIP3    H133903   3.827   4.379   5.972
11320TIP3    H233904   3.817   4.234   5.935
11321TIP3   OH233905   3.934   4.577   6.141
11321TIP3    H133906   3.983   4.498   6.174
11321TIP3    H233907   3.995   4.610   6.073
11322TIP3   OH233908   4.702   5.006   6.140
11322TIP3    H133909   4.741   4.934   6.089
11322TIP3    H233910   4.784   5.052   6.168
11323TIP3   OH233911   5.715   4.330   6.136
11323TIP3    H133912   5.744   4.410   6.184
11323TIP3    H233913   5.742   4.351   6.046
11324TIP3   OH233914   5.121   4.512   6.167
11324TIP3    H133915   5.155   4.423   6.187
11324TIP3    H233916   5.082   4.497   6.078
11325TIP3   OH233917   4.456   4.170   6.132
11325TIP3    H133918   4.431   4.242   6.071
11325TIP3    H233919   4.408   4.095   6.091
11326TIP3   OH233920   5.137   4.253   5.768
11326TIP3    H133921   5.215   4.242   5.827
11326TIP3    H233922   5.178   4.285   5.687
11327TIP3   OH233923   4.083   4.370   6.243
11327TIP3    H133924   4.167   4.350   6.288
11327TIP3    H233925   4.091   4.311   6.165
11328TIP3   OH233926   4.523   4.568   6.038
11328TIP3    H133927   4.616   4.543   6.051
11328TIP3    H233928   4.483   4.484   6.005
11329TIP3   OH233929   5.786   4.539   6.303
11329TIP3    H133930   5.700   4.584   6.289
11329TIP3    H233931   5.804   4.564   6.395
11330TIP3   OH233932   4.448   4.154   6.570
11330TIP3    H133933   4.387   4.188   6.502
11330TIP3    H233934   4.394   4.170   6.651
11331TIP3   OH233935   4.805   5.018   5.566
11331TIP3    H133936   4.749   4.995   5.491
11331TIP3    H233937   4.758   5.098   5.599
11332TIP3   OH233938   4.554   4.929   6.363
11332TIP3    H133939   4.492   4.997   6.398
11332TIP3    H233940   4.592   4.975   6.286
11333TIP3   OH233941   5.362   4.271   5.928
11333TIP3    H133942   5.333   4.219   6.005
11333TIP3    H233943   5.399   4.350   5.972
11334TIP3   OH233944   4.319   4.265   6.352
11334TIP3    H133945   4.381   4.338   6.376
11334TIP3    H233946   4.368   4.225   6.277
11335TIP3   OH233947   4.384   5.124   6.465
11335TIP3    H133948   4.358   5.207   6.420
11335TIP3    H233949   4.303   5.110   6.519
11336TIP3   OH233950   3.774   4.814   5.698
11336TIP3    H133951   3.734   4.844   5.614
11336TIP3    H233952   3.807   4.898   5.735
11337TIP3   OH233953   5.222   5.329   5.929
11337TIP3    H133954   5.138   5.319   5.979
11337TIP3    H233955   5.209   5.416   5.888
11338TIP3   OH233956   5.508   4.229   6.303
11338TIP3    H133957   5.419   4.255   6.272
11338TIP3    H233958   5.566   4.261   6.232
11339TIP3   OH233959   4.802   3.871   6.288
11339TIP3    H133960   4.785   3.776   6.303
11339TIP3    H233961   4.724   3.910   6.333
11340TIP3   OH233962   4.918   5.371   5.595
11340TIP3    H133963   4.977   5.296   5.581
11340TIP3    H233964   4.976   5.446   5.570
11341TIP3   OH233965   5.066   5.147   5.517
11341TIP3    H133966   4.986   5.092   5.512
11341TIP3    H233967   5.104   5.120   5.603
11342TIP3   OH233968   5.441   5.240   6.282
11342TIP3    H133969   5.427   5.163   6.223
11342TIP3    H233970   5.420   5.315   6.223
11343TIP3   OH233971   4.732   4.634   5.541
11343TIP3    H133972   4.649   4.685   5.525
11343TIP3    H233973   4.768   4.627   5.451
11344TIP3   OH233974   4.691   4.422   5.263
11344TIP3    H133975   4.765   4.473   5.300
11344TIP3    H233976   4.740   4.357   5.208
11345TIP3   OH233977   5.635   4.876   6.124
11345TIP3    H133978   5.552   4.929   6.131
11345TIP3    H233979   5.666   4.904   6.035
11346TIP3   OH233980   5.080   4.719   5.523
11346TIP3    H133981   5.008   4.754   5.579
11346TIP3    H233982   5.139   4.690   5.593
11347TIP3   OH233983   5.315   4.756   6.426
11347TIP3    H133984   5.312   4.839   6.476
11347TIP3    H233985   5.227   4.759   6.382
11348TIP3   OH233986   4.312   4.714   5.928
11348TIP3    H133987   4.271   4.655   5.861
11348TIP3    H233988   4.388   4.660   5.959
11349TIP3   OH233989   4.430   5.078   6.092
11349TIP3    H133990   4.420   5.086   5.996
11349TIP3    H233991   4.527   5.069   6.102
11350TIP3   OH233992   4.448   4.686   6.285
11350TIP3    H133993   4.479   4.664   6.194
11350TIP3    H233994   4.490   4.773   6.301
11351TIP3   OH233995   4.998   5.321   6.073
11351TIP3    H133996   4.954   5.400   6.108
11351TIP3    H233997   4.964   5.249   6.130
11352TIP3   OH233998   4.588   5.242   6.609
11352TIP3    H133999   4.526   5.304   6.652
11352TIP3    H234000   4.525   5.189   6.556
11353TIP3   OH234001   4.925   4.570   5.340
11353TIP3    H134002   4.980   4.635   5.388
11353TIP3    H234003   4.949   4.591   5.246
11354TIP3   OH234004   4.344   4.795   6.714
11354TIP3    H134005   4.347   4.884   6.753
11354TIP3    H234006   4.248   4.776   6.723
11355TIP3   OH234007   4.670   5.253   5.619
11355TIP3    H134008   4.748   5.307   5.640
11355TIP3    H234009   4.603   5.321   5.603
11356TIP3   OH234010   4.382   5.410   6.694
11356TIP3    H134011   4.349   5.413   6.601
11356TIP3    H234012   4.300   5.387   6.744
11357TIP3   OH234013   5.436   3.813   5.388
11357TIP3    H134014   5.353   3.834   5.437
11357TIP3    H234015   5.449   3.897   5.338
11358TIP3   OH234016   4.181   4.557   5.729
11358TIP3    H134017   4.110   4.599   5.676
11358TIP3    H234018   4.142   4.470   5.749
11359TIP3   OH234019   5.235   5.181   4.933
11359TIP3    H134020   5.243   5.278   4.921
11359TIP3    H234021   5.329   5.154   4.924
11360TIP3   OH234022   3.959   4.942   6.641
11360TIP3    H134023   3.893   4.920   6.572
11360TIP3    H234024   3.997   4.854   6.662
11361TIP3   OH234025   3.817   5.135   6.272
11361TIP3    H134026   3.912   5.121   6.258
11361TIP3    H234027   3.817   5.211   6.331
11362TIP3   OH234028   5.679   5.588   6.332
11362TIP3    H134029   5.676   5.492   6.347
11362TIP3    H234030   5.595   5.614   6.377
11363TIP3   OH234031   4.787   5.369   6.467
11363TIP3    H134032   4.782   5.462   6.498
11363TIP3    H234033   4.713   5.329   6.518
11364TIP3   OH234034   4.546   5.503   5.407
11364TIP3    H134035   4.494   5.491   5.326
11364TIP3    H234036   4.513   5.588   5.442
11365TIP3   OH234037   3.981   5.348   5.800
11365TIP3    H134038   4.029   5.339   5.886
11365TIP3    H234039   3.931   5.265   5.800
11366TIP3   OH234040   4.745   5.403   5.056
11366TIP3    H134041   4.805   5.333   5.021
11366TIP3    H234042   4.779   5.413   5.148
11367TIP3   OH234043   4.799   5.448   5.328
11367TIP3    H134044   4.708   5.459   5.365
11367TIP3    H234045   4.845   5.413   5.407
11368TIP3   OH234046   5.568   4.716   6.605
11368TIP3    H134047   5.483   4.727   6.559
11368TIP3    H234048   5.583   4.620   6.595
11369TIP3   OH234049   4.163   5.125   6.628
11369TIP3    H134050   4.214   5.106   6.709
11369TIP3    H234051   4.089   5.061   6.634
11370TIP3   OH234052   4.564   3.948   6.414
11370TIP3    H134053   4.475   3.917   6.385
11370TIP3    H234054   4.536   4.028   6.463
11371TIP3   OH234055   5.098   4.062   6.609
11371TIP3    H134056   5.167   4.034   6.673
11371TIP3    H234057   5.015   4.043   6.656
11372TIP3   OH234058   5.336   4.494   6.528
11372TIP3    H134059   5.284   4.490   6.612
11372TIP3    H234060   5.310   4.580   6.492
11373TIP3   OH234061   5.002   4.620   5.087
11373TIP3    H134062   4.965   4.596   5.000
11373TIP3    H234063   5.080   4.671   5.061
11374TIP3   OH234064   4.713   3.989   5.386
11374TIP3    H134065   4.675   3.988   5.476
11374TIP3    H234066   4.668   3.911   5.349
11375TIP3   OH234067   4.497   4.463   6.432
11375TIP3    H134068   4.445   4.483   6.513
11375TIP3    H234069   4.481   4.545   6.379
11376TIP3   OH234070   4.379   4.350   5.945
11376TIP3    H134071   4.287   4.322   5.965
11376TIP3    H234072   4.390   4.308   5.857
11377TIP3   OH234073   4.873   4.437   5.677
11377TIP3    H134074   4.820   4.507   5.633
11377TIP3    H234075   4.932   4.409   5.605
11378TIP3   OH234076   5.045   4.711   6.758
11378TIP3    H134077   5.022   4.638   6.821
11378TIP3    H234078   5.138   4.725   6.782
11379TIP3   OH234079   5.024   4.462   5.914
11379TIP3    H134080   4.960   4.490   5.845
11379TIP3    H234081   5.055   4.379   5.873
11380TIP3   OH234082   4.317   4.491   6.639
11380TIP3    H134083   4.342   4.555   6.707
11380TIP3    H234084   4.303   4.409   6.691
11381TIP3   OH234085   4.368   3.972   5.350
11381TIP3    H134086   4.355   3.970   5.446
11381TIP3    H234087   4.288   4.023   5.323
11382TIP3   OH234088   3.930   4.055   6.186
11382TIP3    H134089   3.979   4.053   6.269
11382TIP3    H234090   3.934   3.964   6.154
11383TIP3   OH234091   3.874   3.994   5.740
11383TIP3    H134092   3.921   4.031   5.663
11383TIP3    H234093   3.814   4.068   5.760
11384TIP3   OH234094   5.040   4.708   6.334
11384TIP3    H134095   5.073   4.637   6.274
11384TIP3    H234096   5.007   4.653   6.409
11385TIP3   OH234097   4.712   4.170   6.007
11385TIP3    H134098   4.627   4.170   6.056
11385TIP3    H234099   4.776   4.167   6.079
11386TIP3   OH234100   4.143   4.229   6.013
11386TIP3    H134101   4.047   4.239   5.989
11386TIP3    H234102   4.156   4.134   6.002
11387TIP3   OH234103   4.408   4.223   5.704
11387TIP3    H134104   4.500   4.239   5.677
11387TIP3    H234105   4.357   4.244   5.622
11388TIP3   OH234106   5.196   4.246   6.204
11388TIP3    H134107   5.169   4.260   6.298
11388TIP3    H234108   5.125   4.185   6.175
11389TIP3   OH234109   4.255   4.258   5.482
11389TIP3    H134110   4.183   4.212   5.436
11389TIP3    H234111   4.306   4.294   5.406
11390TIP3   OH234112   5.373   5.935   6.430
11390TIP3    H134113   5.369   5.961   6.336
11390TIP3    H234114   5.452   5.984   6.460
11391TIP3   OH234115   4.326   5.046   6.849
11391TIP3    H134116   4.406   5.076   6.896
11391TIP3    H234117   4.261   5.044   6.922
11392TIP3   OH234118   4.787   4.502   6.109
11392TIP3    H134119   4.859   4.457   6.062
11392TIP3    H234120   4.789   4.458   6.196
11393TIP3   OH234121   4.316   3.984   5.989
11393TIP3    H134122   4.273   3.912   6.040
11393TIP3    H234123   4.349   3.936   5.912
11394TIP3   OH234124   4.766   4.403   6.388
11394TIP3    H134125   4.675   4.434   6.406
11394TIP3    H234126   4.821   4.463   6.442
11395TIP3   OH234127   4.503   4.785   5.490
11395TIP3    H134128   4.430   4.720   5.477
11395TIP3    H234129   4.482   4.819   5.580
11396TIP3   OH234130   5.402   5.022   6.116
11396TIP3    H134131   5.424   5.074   6.037
11396TIP3    H234132   5.317   4.981   6.091
11397TIP3   OH234133   4.957   4.098   5.365
11397TIP3    H134134   4.864   4.066   5.366
11397TIP3    H234135   4.945   4.194   5.361
11398TIP3   OH234136   4.902   5.106   6.488
11398TIP3    H134137   4.927   5.090   6.580
11398TIP3    H234138   4.864   5.196   6.492
11399TIP3   OH234139   5.054   4.362   5.462
11399TIP3    H134140   5.123   4.336   5.399
11399TIP3    H234141   5.009   4.434   5.414
11400TIP3   OH234142   4.191   4.806   6.163
11400TIP3    H134143   4.233   4.783   6.078
11400TIP3    H234144   4.238   4.748   6.224
11401TIP3   OH234145   4.648   4.936   5.313
11401TIP3    H134146   4.599   5.021   5.315
11401TIP3    H234147   4.593   4.881   5.374
11402TIP3   OH234148   4.078   4.729   6.779
11402TIP3    H134149   4.093   4.713   6.874
11402TIP3    H234150   4.008   4.664   6.759
11403TIP3   OH234151   4.803   4.845   6.798
11403TIP3    H134152   4.741   4.786   6.753
11403TIP3    H234153   4.889   4.809   6.768
11404TIP3   OH234154   5.065   5.361   6.390
11404TIP3    H134155   4.968   5.362   6.399
11404TIP3    H234156   5.090   5.417   6.466
11405TIP3   OH234157   5.479   4.452   5.297
11405TIP3    H134158   5.412   4.403   5.244
11405TIP3    H234159   5.473   4.538   5.249
11406TIP3   OH234160   5.691   5.297   6.371
11406TIP3    H134161   5.593   5.291   6.363
11406TIP3    H234162   5.717   5.267   6.281
11407TIP3   OH234163   5.180   5.257   5.203
11407TIP3    H134164   5.137   5.197   5.266
11407TIP3    H234165   5.183   5.206   5.121
11408TIP3   OH234166   5.170   4.884   6.032
11408TIP3    H134167   5.076   4.860   6.048
11408TIP3    H234168   5.200   4.806   5.982
11409TIP3   OH234169   4.301   5.113   5.786
11409TIP3    H134170   4.298   5.196   5.735
11409TIP3    H234171   4.208   5.101   5.808
11410TIP3   OH234172   3.859   4.418   5.493
11410TIP3    H134173   3.906   4.501   5.517
11410TIP3    H234174   3.784   4.421   5.556
11411TIP3   OH234175   4.432   4.876   5.733
11411TIP3    H134176   4.398   4.966   5.751
11411TIP3    H234177   4.396   4.827   5.809
11412TIP3   OH234178   4.569   5.453   6.274
11412TIP3    H134179   4.599   5.518   6.209
11412TIP3    H234180   4.652   5.421   6.312
11413TIP3   OH234181   4.213   5.353   5.641
11413TIP3    H134182   4.129   5.362   5.688
11413TIP3    H234183   4.247   5.445   5.646
11414TIP3   OH234184   4.951   5.086   6.222
11414TIP3    H134185   4.939   5.087   6.319
11414TIP3    H234186   5.035   5.039   6.213
11415TIP3   OH234187   4.928   4.986   5.098
11415TIP3    H134188   4.980   4.955   5.176
11415TIP3    H234189   4.839   4.960   5.125
11416TIP3   OH234190   5.199   5.621   6.265
11416TIP3    H134191   5.119   5.566   6.259
11416TIP3    H234192   5.184   5.686   6.193
11417TIP3   OH234193   5.267   5.457   4.920
11417TIP3    H134194   5.304   5.532   4.869
11417TIP3    H234195   5.187   5.501   4.955
11418TIP3   OH234196   4.284   4.236   6.784
11418TIP3    H134197   4.187   4.238   6.793
11418TIP3    H234198   4.310   4.176   6.856
11419TIP3   OH234199   5.092   4.900   5.303
11419TIP3    H134200   5.081   4.851   5.387
11419TIP3    H234201   5.189   4.908   5.300
11420TIP3   OH234202   4.000   5.319   6.419
11420TIP3    H134203   4.058   5.246   6.446
11420TIP3    H234204   4.038   5.393   6.469
11421TIP3   OH234205   4.293   4.964   5.101
11421TIP3    H134206   4.306   4.871   5.075
11421TIP3    H234207   4.274   4.955   5.197
11422TIP3   OH234208   4.236   4.971   5.373
11422TIP3    H134209   4.308   4.944   5.431
11422TIP3    H234210   4.240   5.069   5.380
11423TIP3   OH234211   3.971   4.662   5.577
11423TIP3    H134212   3.906   4.706   5.635
11423TIP3    H234213   3.986   4.731   5.510
11424TIP3   OH234214   5.132   4.295   6.465
11424TIP3    H134215   5.207   4.336   6.511
11424TIP3    H234216   5.114   4.216   6.521
11425TIP3   OH234217   5.006   4.040   5.636
11425TIP3    H134218   4.988   4.064   5.543
11425TIP3    H234219   5.037   4.125   5.674
11426TIP3   OH234220   4.504   5.164   5.317
11426TIP3    H134221   4.418   5.189   5.357
11426TIP3    H234222   4.525   5.246   5.270
11427TIP3   OH234223   4.697   4.230   5.737
11427TIP3    H134224   4.757   4.306   5.722
11427TIP3    H234225   4.697   4.223   5.835
11428TIP3   OH234226   4.964   4.548   6.541
11428TIP3    H134227   4.985   4.602   6.620
11428TIP3    H234228   5.016   4.467   6.558
11429TIP3   OH234229   4.834   3.953   5.841
11429TIP3    H134230   4.822   4.034   5.893
11429TIP3    H234231   4.896   3.985   5.771
11430TIP3   OH234232   4.249   5.242   5.390
11430TIP3    H134233   4.220   5.313   5.330
11430TIP3    H234234   4.234   5.284   5.478
11431TIP3   OH234235   4.349   3.957   5.627
11431TIP3    H134236   4.345   4.046   5.666
11431TIP3    H234237   4.446   3.940   5.634
11432TIP3   OH234238   5.602   4.448   6.523
11432TIP3    H134239   5.504   4.450   6.533
11432TIP3    H234240   5.609   4.397   6.441
11433TIP3   OH234241   5.259   4.637   5.892
11433TIP3    H134242   5.178   4.585   5.908
11433TIP3    H234243   5.324   4.593   5.949
11434TIP3   OH234244   3.968   4.868   5.380
11434TIP3    H134245   4.038   4.935   5.391
11434TIP3    H234246   4.011   4.811   5.314
11435TIP3   OH234247   3.912   4.148   5.514
11435TIP3    H134248   3.909   4.246   5.511
11435TIP3    H234249   3.831   4.124   5.469
11436TIP3   OH234250   5.225   5.602   5.861
11436TIP3    H134251   5.180   5.647   5.786
11436TIP3    H234252   5.318   5.620   5.838
11437TIP3   OH234253   4.300   3.868   6.385
11437TIP3    H134254   4.269   3.835   6.298
11437TIP3    H234255   4.287   3.790   6.442
11438TIP3   OH234256   3.834   5.083   5.765
11438TIP3    H134257   3.769   5.115   5.829
11438TIP3    H234258   3.803   5.127   5.682
11439TIP3   OH234259   3.996   5.633   6.842
11439TIP3    H134260   4.083   5.633   6.887
11439TIP3    H234261   3.978   5.537   6.838
11440TIP3   OH234262   4.472   5.588   6.887
11440TIP3    H134263   4.568   5.573   6.890
11440TIP3    H234264   4.446   5.528   6.814
11441TIP3   OH234265   4.455   5.166   5.007
11441TIP3    H134266   4.400   5.096   5.049
11441TIP3    H234267   4.532   5.113   4.979
11442TIP3   OH234268   5.113   5.502   6.622
11442TIP3    H134269   5.107   5.431   6.690
11442TIP3    H234270   5.191   5.553   6.651
11443TIP3   OH234271   4.892   5.208   4.926
11443TIP3    H134272   4.931   5.141   4.985
11443TIP3    H234273   4.950   5.203   4.847
11444TIP3   OH234274   4.124   5.035   7.041
11444TIP3    H134275   4.141   4.939   7.046
11444TIP3    H234276   4.037   5.038   6.995
11445TIP3   OH234277   4.102   4.682   5.235
11445TIP3    H134278   4.158   4.651   5.308
11445TIP3    H234279   4.171   4.688   5.164
11446TIP3   OH234280   4.731   5.122   6.815
11446TIP3    H134281   4.689   5.143   6.729
11446TIP3    H234282   4.760   5.030   6.803
11447TIP3   OH234283   4.621   4.885   5.044
11447TIP3    H134284   4.619   4.897   5.141
11447TIP3    H234285   4.619   4.788   5.038
11448TIP3   OH234286   5.225   5.131   6.421
11448TIP3    H134287   5.300   5.176   6.378
11448TIP3    H234288   5.155   5.198   6.409
11449TIP3   OH234289   4.243   4.773   7.025
11449TIP3    H134290   4.320   4.722   6.996
11449TIP3    H234291   4.273   4.804   7.113
11450TIP3   OH234292   4.308   4.591   5.454
11450TIP3    H134293   4.280   4.551   5.538
11450TIP3    H234294   4.345   4.514   5.406
11451TIP3   OH234295   4.582   4.655   6.686
11451TIP3    H134296   4.502   4.712   6.686
11451TIP3    H234297   4.631   4.689   6.608
11452TIP3   OH234298   4.411   4.385   5.295
11452TIP3    H134299   4.386   4.391   5.201
11452TIP3    H234300   4.509   4.387   5.289
11453TIP3   OH234301   5.097   5.056   6.819
11453TIP3    H134302   5.173   5.024   6.768
11453TIP3    H234303   5.091   4.990   6.890
11454TIP3   OH234304   5.235   4.710   4.957
11454TIP3    H134305   5.210   4.666   4.874
11454TIP3    H234306   5.201   4.800   4.938
11455TIP3   OH234307   4.705   4.444   6.808
11455TIP3    H134308   4.703   4.365   6.750
11455TIP3    H234309   4.660   4.511   6.752
11456TIP3   OH234310   4.706   4.231   6.617
11456TIP3    H134311   4.733   4.270   6.532
11456TIP3    H234312   4.612   4.207   6.599
11457TIP3   OH234313   4.730   4.765   6.491
11457TIP3    H134314   4.814   4.780   6.447
11457TIP3    H234315   4.671   4.829   6.446
11458TIP3   OH234316   5.312   4.729   6.869
11458TIP3    H134317   5.361   4.646   6.882
11458TIP3    H234318   5.380   4.788   6.835
11459TIP3   OH234319   5.354   4.984   6.607
11459TIP3    H134320   5.296   5.038   6.549
11459TIP3    H234321   5.441   5.006   6.568
11460TIP3   OH234322   4.583   4.549   7.044
11460TIP3    H134323   4.515   4.480   7.058
11460TIP3    H234324   4.615   4.526   6.954
11461TIP3   OH234325   4.837   3.991   6.687
11461TIP3    H134326   4.787   4.072   6.664
11461TIP3    H234327   4.768   3.922   6.675
11462TIP3   OH234328   4.964   4.493   6.901
11462TIP3    H134329   4.948   4.479   6.997
11462TIP3    H234330   4.874   4.471   6.867
11463TIP3   OH234331   5.201   4.443   6.756
11463TIP3    H134332   5.126   4.446   6.819
11463TIP3    H234333   5.275   4.414   6.813
11464TIP3   OH234334   5.433   4.388   6.905
11464TIP3    H134335   5.445   4.292   6.921
11464TIP3    H234336   5.428   4.424   6.996
11465TIP3   OH234337   4.421   4.331   7.097
11465TIP3    H134338   4.422   4.239   7.063
11465TIP3    H234339   4.458   4.318   7.186
11466TIP3   OH234340   4.931   4.002   6.944
11466TIP3    H134341   4.997   3.929   6.938
11466TIP3    H234342   4.891   3.997   6.856
11467TIP3   OH234343   4.999   4.216   7.103
11467TIP3    H134344   4.977   4.145   7.039
11467TIP3    H234345   4.920   4.274   7.096
11468TIP3   OH234346   4.219   5.445   5.201
11468TIP3    H134347   4.314   5.434   5.183
11468TIP3    H234348   4.193   5.498   5.123
11469TIP3   OH234349   3.698   4.829   5.414
11469TIP3    H134350   3.794   4.850   5.402
11469TIP3    H234351   3.693   4.739   5.376
11470TIP3   OH234352   3.613   5.439   5.835
11470TIP3    H134353   3.548   5.376   5.796
11470TIP3    H234354   3.659   5.380   5.899
11471TIP3   OH234355   3.747   5.286   6.020
11471TIP3    H134356   3.739   5.215   6.086
11471TIP3    H234357   3.802   5.349   6.070
11472TIP3   OH234358   5.481   5.684   5.820
11472TIP3    H134359   5.503   5.718   5.909
11472TIP3    H234360   5.541   5.736   5.763
11473TIP3   OH234361   5.505   5.709   6.101
11473TIP3    H134362   5.459   5.622   6.098
11473TIP3    H234363   5.579   5.686   6.159
11474TIP3   OH234364   5.553   5.386   6.675
11474TIP3    H134365   5.480   5.396   6.740
11474TIP3    H234366   5.595   5.475   6.679
11475TIP3   OH234367   5.380   4.900   5.303
11475TIP3    H134368   5.439   4.963   5.256
11475TIP3    H234369   5.402   4.920   5.395
11476TIP3   OH234370   5.556   5.161   5.932
11476TIP3    H134371   5.604   5.096   5.878
11476TIP3    H234372   5.545   5.236   5.869
11477TIP3   OH234373   5.379   5.460   6.124
11477TIP3    H134374   5.306   5.502   6.174
11477TIP3    H234375   5.331   5.415   6.051
11478TIP3   OH234376   5.435   4.679   5.141
11478TIP3    H134377   5.363   4.679   5.074
11478TIP3    H234378   5.406   4.753   5.198
11479TIP3   OH234379   5.306   4.344   5.108
11479TIP3    H134380   5.261   4.384   5.033
11479TIP3    H234381   5.286   4.250   5.092
11480TIP3   OH234382   3.934   4.697   6.392
11480TIP3    H134383   3.931   4.664   6.300
11480TIP3    H234384   4.031   4.699   6.408
11481TIP3   OH234385   5.600   5.050   6.502
11481TIP3    H134386   5.671   4.983   6.490
11481TIP3    H234387   5.624   5.119   6.438
11482TIP3   OH234388   5.783   4.850   6.508
11482TIP3    H134389   5.708   4.802   6.550
11482TIP3    H234390   5.856   4.787   6.526
11483TIP3   OH234391   5.255   4.075   5.073
11483TIP3    H134392   5.319   4.046   5.140
11483TIP3    H234393   5.172   4.028   5.099
11484TIP3   OH234394   5.468   4.508   6.032
11484TIP3    H134395   5.555   4.540   5.997
11484TIP3    H234396   5.473   4.547   6.122
11485TIP3   OH234397   5.534   4.657   6.261
11485TIP3    H134398   5.458   4.690   6.313
11485TIP3    H234399   5.567   4.740   6.219
11486TIP3   OH234400   4.154   4.385   7.072
11486TIP3    H134401   4.252   4.377   7.071
11486TIP3    H234402   4.130   4.297   7.106
11487TIP3   OH234403   5.988   4.251   6.819
11487TIP3    H134404   6.049   4.186   6.779
11487TIP3    H234405   5.959   4.303   6.741
11488TIP3   OH234406   5.424   4.086   5.570
11488TIP3    H134407   5.461   4.069   5.658
11488TIP3    H234408   5.353   4.018   5.567
11489TIP3   OH234409   4.110   4.073   6.410
11489TIP3    H134410   4.172   3.997   6.409
11489TIP3    H234411   4.170   4.146   6.391
11490TIP3   OH234412   3.918   4.350   6.468
11490TIP3    H134413   3.964   4.340   6.383
11490TIP3    H234414   3.952   4.436   6.497
11491TIP3   OH234415   5.857   4.387   6.622
11491TIP3    H134416   5.772   4.429   6.645
11491TIP3    H234417   5.825   4.313   6.567
11492TIP3   OH234418   5.497   4.021   5.213
11492TIP3    H134419   5.532   3.951   5.154
11492TIP3    H234420   5.562   4.093   5.202
11493TIP3   OH234421   3.917   3.843   5.963
11493TIP3    H134422   3.829   3.828   6.000
11493TIP3    H234423   3.901   3.908   5.892
11494TIP3   OH234424   5.063   5.563   5.473
11494TIP3    H134425   5.115   5.552   5.391
11494TIP3    H234426   5.114   5.628   5.523
11495TIP3   OH234427   4.123   3.935   6.785
11495TIP3    H134428   4.069   3.927   6.865
11495TIP3    H234429   4.057   3.972   6.722
11496TIP3   OH234430   4.159   5.366   6.859
11496TIP3    H134431   4.068   5.337   6.842
11496TIP3    H234432   4.170   5.342   6.952
11497TIP3   OH234433   4.337   5.397   6.411
11497TIP3    H134434   4.294   5.474   6.368
11497TIP3    H234435   4.424   5.404   6.366
11498TIP3   OH234436   4.780   5.636   6.547
11498TIP3    H134437   4.823   5.638   6.635
11498TIP3    H234438   4.844   5.689   6.494
11499TIP3   OH234439   4.961   5.788   6.410
11499TIP3    H134440   5.032   5.741   6.363
11499TIP3    H234441   5.014   5.846   6.468
11500TIP3   OH234442   5.758   4.148   6.504
11500TIP3    H134443   5.667   4.136   6.472
11500TIP3    H234444   5.793   4.056   6.496
11501TIP3   OH234445   4.012   5.648   6.431
11501TIP3    H134446   3.923   5.684   6.410
11501TIP3    H234447   4.028   5.692   6.515
11502TIP3   OH234448   4.254   5.629   6.291
11502TIP3    H134449   4.165   5.642   6.331
11502TIP3    H234450   4.239   5.662   6.200
11503TIP3   OH234451   4.931   5.599   6.131
11503TIP3    H134452   4.850   5.603   6.077
11503TIP3    H234453   4.979   5.676   6.098
11504TIP3   OH234454   5.156   5.789   6.054
11504TIP3    H134455   5.139   5.872   6.005
11504TIP3    H234456   5.179   5.727   5.981
11505TIP3   OH234457   3.922   5.443   6.178
11505TIP3    H134458   3.953   5.419   6.268
11505TIP3    H234459   3.992   5.398   6.126
11506TIP3   OH234460   4.106   5.304   6.038
11506TIP3    H134461   4.122   5.221   6.088
11506TIP3    H234462   4.198   5.340   6.037
11507TIP3   OH234463   4.360   5.395   6.043
11507TIP3    H134464   4.432   5.376   5.981
11507TIP3    H234465   4.405   5.457   6.102
11508TIP3   OH234466   4.967   4.066   6.131
11508TIP3    H134467   4.919   3.997   6.181
11508TIP3    H234468   5.033   4.015   6.082
11509TIP3   OH234469   5.485   3.945   6.024
11509TIP3    H134470   5.519   4.001   5.951
11509TIP3    H234471   5.389   3.961   6.020
11510TIP3   OH234472   5.585   4.056   5.791
11510TIP3    H134473   5.657   4.002   5.753
11510TIP3    H234474   5.620   4.146   5.784
11511TIP3   OH234475   4.218   3.778   6.138
11511TIP3    H134476   4.125   3.745   6.142
11511TIP3    H234477   4.264   3.692   6.132
11512TIP3   OH234478   3.992   3.646   5.781
11512TIP3    H134479   4.023   3.707   5.712
11512TIP3    H234480   3.972   3.708   5.854
11513TIP3   OH234481   4.660   3.802   6.019
11513TIP3    H134482   4.716   3.854   5.960
11513TIP3    H234483   4.673   3.846   6.104
11514TIP3   OH234484   5.206   3.954   5.999
11514TIP3    H134485   5.196   3.910   5.914
11514TIP3    H234486   5.192   3.878   6.061
11515TIP3   OH234487   5.231   3.879   5.567
11515TIP3    H134488   5.145   3.921   5.583
11515TIP3    H234489   5.217   3.793   5.612
11516TIP3   OH234490   3.714   5.219   5.565
11516TIP3    H134491   3.628   5.186   5.532
11516TIP3    H234492   3.705   5.313   5.544
11517TIP3   OH234493   4.117   3.806   5.547
11517TIP3    H134494   4.164   3.741   5.492
11517TIP3    H234495   4.191   3.858   5.585
11518TIP3   OH234496   4.626   3.981   5.649
11518TIP3    H134497   4.682   3.932   5.711
11518TIP3    H234498   4.649   4.073   5.675
11519TIP3   OH234499   4.484   5.402   5.145
11519TIP3    H134500   4.573   5.424   5.112
11519TIP3    H234501   4.464   5.324   5.087
11520TIP3   OH234502   5.211   5.525   5.242
11520TIP3    H134503   5.203   5.427   5.233
11520TIP3    H234504   5.161   5.555   5.163
11521TIP3   OH234505   4.417   4.057   7.034
11521TIP3    H134506   4.382   3.985   7.089
11521TIP3    H234507   4.512   4.056   7.061
11522TIP3   OH234508   4.669   4.054   7.151
11522TIP3    H134509   4.753   4.027   7.111
11522TIP3    H234510   4.655   3.983   7.218
11523TIP3   OH234511   3.790   5.240   5.204
11523TIP3    H134512   3.795   5.258   5.299
11523TIP3    H234513   3.877   5.197   5.188
11524TIP3   OH234514   5.495   4.117   6.937
11524TIP3    H134515   5.512   4.085   7.028
11524TIP3    H234516   5.584   4.111   6.897
11525TIP3   OH234517   5.430   5.666   6.429
11525TIP3    H134518   5.351   5.635   6.379
11525TIP3    H234519   5.410   5.761   6.435
11526TIP3   OH234520   6.699   5.039   5.193
11526TIP3    H134521   6.669   5.130   5.174
11526TIP3    H234522   6.622   4.989   5.160
11527TIP3   OH234523   6.699   5.040   5.580
11527TIP3    H134524   6.733   5.016   5.668
11527TIP3    H234525   6.657   4.957   5.552
11528TIP3   OH234526   5.995   4.930   5.944
11528TIP3    H134527   6.025   4.862   6.008
11528TIP3    H234528   6.070   4.991   5.945
11529TIP3   OH234529   6.943   5.342   5.261
11529TIP3    H134530   6.927   5.276   5.329
11529TIP3    H234531   6.973   5.419   5.313
11530TIP3   OH234532   5.969   5.341   5.662
11530TIP3    H134533   5.959   5.244   5.666
11530TIP3    H234534   6.066   5.350   5.657
11531TIP3   OH234535   5.731   4.812   5.610
11531TIP3    H134536   5.794   4.749   5.650
11531TIP3    H234537   5.789   4.875   5.565
11532TIP3   OH234538   6.593   5.804   5.276
11532TIP3    H134539   6.635   5.732   5.225
11532TIP3    H234540   6.583   5.764   5.363
11533TIP3   OH234541   6.496   5.266   5.626
11533TIP3    H134542   6.538   5.190   5.582
11533TIP3    H234543   6.577   5.313   5.652
11534TIP3   OH234544   7.513   4.585   5.623
11534TIP3    H134545   7.541   4.669   5.666
11534TIP3    H234546   7.533   4.605   5.530
11535TIP3   OH234547   6.909   4.765   5.655
11535TIP3    H134548   6.951   4.680   5.677
11535TIP3    H234549   6.877   4.748   5.565
11536TIP3   OH234550   6.250   4.427   5.624
11536TIP3    H134551   6.231   4.498   5.559
11536TIP3    H234552   6.205   4.352   5.580
11537TIP3   OH234553   6.944   4.518   5.243
11537TIP3    H134554   7.015   4.503   5.309
11537TIP3    H234555   6.996   4.554   5.169
11538TIP3   OH234556   5.885   4.617   5.723
11538TIP3    H134557   5.967   4.606   5.776
11538TIP3    H234558   5.908   4.564   5.644
11539TIP3   OH234559   6.321   4.824   5.524
11539TIP3    H134560   6.416   4.801   5.537
11539TIP3    H234561   6.284   4.739   5.492
11540TIP3   OH234562   7.585   4.795   5.793
11540TIP3    H134563   7.500   4.840   5.773
11540TIP3    H234564   7.600   4.827   5.884
11541TIP3   OH234565   6.244   4.408   6.057
11541TIP3    H134566   6.184   4.447   5.991
11541TIP3    H234567   6.193   4.424   6.139
11542TIP3   OH234568   6.585   5.259   5.064
11542TIP3    H134569   6.547   5.247   4.976
11542TIP3    H234570   6.542   5.343   5.092
11543TIP3   OH234571   6.349   5.185   5.848
11543TIP3    H134572   6.290   5.254   5.886
11543TIP3    H234573   6.393   5.234   5.775
11544TIP3   OH234574   7.150   4.521   5.421
11544TIP3    H134575   7.128   4.483   5.507
11544TIP3    H234576   7.200   4.600   5.447
11545TIP3   OH234577   6.115   4.524   5.842
11545TIP3    H134578   6.176   4.597   5.868
11545TIP3    H234579   6.168   4.484   5.769
11546TIP3   OH234580   6.179   5.381   5.948
11546TIP3    H134581   6.154   5.469   5.912
11546TIP3    H234582   6.100   5.365   6.003
11547TIP3   OH234583   5.568   5.071   5.184
11547TIP3    H134584   5.529   5.099   5.099
11547TIP3    H234585   5.599   5.156   5.220
11548TIP3   OH234586   7.010   5.587   5.423
11548TIP3    H134587   6.921   5.578   5.464
11548TIP3    H234588   7.002   5.673   5.379
11549TIP3   OH234589   7.304   4.483   5.787
11549TIP3    H134590   7.217   4.513   5.757
11549TIP3    H234591   7.364   4.518   5.718
11550TIP3   OH234592   6.594   4.124   5.771
11550TIP3    H134593   6.582   4.030   5.793
11550TIP3    H234594   6.519   4.164   5.819
11551TIP3   OH234595   6.710   5.630   5.096
11551TIP3    H134596   6.760   5.547   5.077
11551TIP3    H234597   6.773   5.695   5.058
11552TIP3   OH234598   6.855   5.415   5.010
11552TIP3    H134599   6.820   5.334   4.970
11552TIP3    H234600   6.893   5.380   5.094
11553TIP3   OH234601   7.235   5.497   5.769
11553TIP3    H134602   7.224   5.420   5.709
11553TIP3    H234603   7.218   5.572   5.708
11554TIP3   OH234604   6.528   4.890   5.028
11554TIP3    H134605   6.450   4.945   5.007
11554TIP3    H234606   6.575   4.889   4.943
11555TIP3   OH234607   6.487   4.677   4.741
11555TIP3    H134608   6.554   4.730   4.789
11555TIP3    H234609   6.546   4.615   4.693
11556TIP3   OH234610   7.431   5.135   5.615
11556TIP3    H134611   7.348   5.186   5.619
11556TIP3    H234612   7.462   5.160   5.525
11557TIP3   OH234613   6.877   4.974   4.997
11557TIP3    H134614   6.823   4.998   5.075
11557TIP3    H234615   6.962   4.951   5.040
11558TIP3   OH234616   7.111   5.011   5.913
11558TIP3    H134617   7.109   5.094   5.966
11558TIP3    H234618   7.024   5.018   5.868
11559TIP3   OH234619   6.110   4.971   5.417
11559TIP3    H134620   6.069   4.913   5.349
11559TIP3    H234621   6.187   4.918   5.446
11560TIP3   OH234622   6.238   5.380   5.564
11560TIP3    H134623   6.221   5.348   5.474
11560TIP3    H234624   6.328   5.345   5.581
11561TIP3   OH234625   6.240   4.945   5.766
11561TIP3    H134626   6.278   4.920   5.679
11561TIP3    H234627   6.287   5.029   5.787
11562TIP3   OH234628   6.771   5.580   5.547
11562TIP3    H134629   6.757   5.661   5.600
11562TIP3    H234630   6.754   5.509   5.611
11563TIP3   OH234631   6.384   5.499   6.093
11563TIP3    H134632   6.323   5.560   6.140
11563TIP3    H234633   6.319   5.446   6.043
11564TIP3   OH234634   6.715   4.832   4.825
11564TIP3    H134635   6.774   4.893   4.875
11564TIP3    H234636   6.741   4.853   4.732
11565TIP3   OH234637   6.137   5.053   6.196
11565TIP3    H134638   6.143   5.142   6.238
11565TIP3    H234639   6.043   5.033   6.212
11566TIP3   OH234640   6.461   5.509   5.100
11566TIP3    H134641   6.544   5.561   5.109
11566TIP3    H234642   6.402   5.573   5.059
11567TIP3   OH234643   6.177   5.664   6.181
11567TIP3    H134644   6.142   5.668   6.091
11567TIP3    H234645   6.097   5.643   6.234
11568TIP3   OH234646   7.240   4.075   4.870
11568TIP3    H134647   7.159   4.092   4.922
11568TIP3    H234648   7.249   4.160   4.823
11569TIP3   OH234649   5.976   4.814   5.219
11569TIP3    H134650   5.909   4.862   5.166
11569TIP3    H234651   5.939   4.725   5.219
11570TIP3   OH234652   7.033   5.438   4.422
11570TIP3    H134653   7.041   5.535   4.407
11570TIP3    H234654   7.126   5.409   4.410
11571TIP3   OH234655   5.756   5.199   6.128
11571TIP3    H134656   5.687   5.179   6.062
11571TIP3    H234657   5.792   5.110   6.149
11572TIP3   OH234658   5.610   5.392   5.759
11572TIP3    H134659   5.707   5.393   5.755
11572TIP3    H234660   5.592   5.470   5.812
11573TIP3   OH234661   7.463   5.823   5.823
11573TIP3    H134662   7.475   5.727   5.841
11573TIP3    H234663   7.375   5.838   5.863
11574TIP3   OH234664   6.580   5.627   5.951
11574TIP3    H134665   6.577   5.720   5.983
11574TIP3    H234666   6.509   5.586   6.004
11575TIP3   OH234667   6.344   5.755   4.904
11575TIP3    H134668   6.298   5.740   4.820
11575TIP3    H234669   6.312   5.843   4.931
11576TIP3   OH234670   5.780   5.606   5.289
11576TIP3    H134671   5.829   5.597   5.374
11576TIP3    H234672   5.720   5.529   5.295
11577TIP3   OH234673   6.542   5.658   4.540
11577TIP3    H134674   6.601   5.589   4.505
11577TIP3    H234675   6.577   5.670   4.631
11578TIP3   OH234676   6.594   5.707   4.810
11578TIP3    H134677   6.506   5.717   4.852
11578TIP3    H234678   6.646   5.671   4.883
11579TIP3   OH234679   7.364   4.971   6.093
11579TIP3    H134680   7.280   4.985   6.047
11579TIP3    H234681   7.378   4.875   6.081
11580TIP3   OH234682   5.961   5.381   6.112
11580TIP3    H134683   6.009   5.366   6.195
11580TIP3    H234684   5.886   5.318   6.120
11581TIP3   OH234685   6.358   4.204   5.901
11581TIP3    H134686   6.269   4.174   5.873
11581TIP3    H234687   6.333   4.284   5.952
11582TIP3   OH234688   6.895   4.318   6.096
11582TIP3    H134689   6.964   4.290   6.160
11582TIP3    H234690   6.812   4.299   6.144
11583TIP3   OH234691   7.132   4.749   6.014
11583TIP3    H134692   7.081   4.746   6.098
11583TIP3    H234693   7.108   4.837   5.979
11584TIP3   OH234694   6.794   4.875   4.572
11584TIP3    H134695   6.758   4.853   4.484
11584TIP3    H234696   6.877   4.920   4.546
11585TIP3   OH234697   6.507   4.251   4.874
11585TIP3    H134698   6.471   4.248   4.965
11585TIP3    H234699   6.463   4.171   4.838
11586TIP3   OH234700   6.290   4.723   5.917
11586TIP3    H134701   6.243   4.744   6.001
11586TIP3    H234702   6.273   4.804   5.865
11587TIP3   OH234703   6.174   4.603   5.433
11587TIP3    H134704   6.079   4.586   5.443
11587TIP3    H234705   6.190   4.565   5.344
11588TIP3   OH234706   6.665   4.689   5.161
11588TIP3    H134707   6.615   4.762   5.118
11588TIP3    H234708   6.721   4.658   5.087
11589TIP3   OH234709   6.840   4.966   6.243
11589TIP3    H134710   6.819   4.895   6.307
11589TIP3    H234711   6.931   4.987   6.269
11590TIP3   OH234712   6.821   4.717   5.399
11590TIP3    H134713   6.760   4.748   5.329
11590TIP3    H234714   6.856   4.638   5.353
11591TIP3   OH234715   6.110   4.747   6.128
11591TIP3    H134716   6.140   4.812   6.193
11591TIP3    H234717   6.101   4.666   6.181
11592TIP3   OH234718   6.162   4.227   4.838
11592TIP3    H134719   6.150   4.227   4.934
11592TIP3    H234720   6.084   4.279   4.809
11593TIP3   OH234721   5.691   4.332   5.675
11593TIP3    H134722   5.763   4.328   5.742
11593TIP3    H234723   5.714   4.253   5.620
11594TIP3   OH234724   5.672   4.256   5.235
11594TIP3    H134725   5.713   4.289   5.152
11594TIP3    H234726   5.608   4.329   5.251
11595TIP3   OH234727   6.831   4.964   5.820
11595TIP3    H134728   6.865   4.892   5.761
11595TIP3    H234729   6.801   4.910   5.896
11596TIP3   OH234730   6.507   4.427   5.494
11596TIP3    H134731   6.428   4.427   5.551
11596TIP3    H234732   6.579   4.422   5.559
11597TIP3   OH234733   5.932   4.463   5.498
11597TIP3    H134734   5.854   4.424   5.457
11597TIP3    H234735   5.996   4.388   5.488
11598TIP3   OH234736   6.203   4.479   5.191
11598TIP3    H134737   6.297   4.494   5.171
11598TIP3    H234738   6.157   4.502   5.107
11599TIP3   OH234739   6.996   4.503   5.694
11599TIP3    H134740   6.967   4.517   5.787
11599TIP3    H234741   6.927   4.443   5.662
11600TIP3   OH234742   6.051   4.515   4.967
11600TIP3    H134743   5.983   4.468   4.916
11600TIP3    H234744   6.104   4.554   4.894
11601TIP3   OH234745   7.162   6.187   5.911
11601TIP3    H134746   7.164   6.209   5.816
11601TIP3    H234747   7.216   6.257   5.950
11602TIP3   OH234748   6.124   5.302   6.335
11602TIP3    H134749   6.203   5.332   6.384
11602TIP3    H234750   6.058   5.302   6.408
11603TIP3   OH234751   6.584   4.757   5.591
11603TIP3    H134752   6.660   4.719   5.544
11603TIP3    H234753   6.591   4.714   5.679
11604TIP3   OH234754   6.101   4.248   5.475
11604TIP3    H134755   6.067   4.169   5.524
11604TIP3    H234756   6.151   4.207   5.404
11605TIP3   OH234757   6.562   4.658   5.879
11605TIP3    H134758   6.472   4.694   5.895
11605TIP3    H234759   6.619   4.718   5.930
11606TIP3   OH234760   6.299   5.043   4.975
11606TIP3    H134761   6.225   4.979   4.963
11606TIP3    H234762   6.279   5.077   5.066
11607TIP3   OH234763   7.198   5.280   5.603
11607TIP3    H134764   7.222   5.331   5.523
11607TIP3    H234765   7.113   5.238   5.576
11608TIP3   OH234766   6.758   4.351   4.844
11608TIP3    H134767   6.661   4.335   4.850
11608TIP3    H234768   6.767   4.447   4.864
11609TIP3   OH234769   6.695   5.361   5.975
11609TIP3    H134770   6.732   5.346   6.063
11609TIP3    H234771   6.659   5.451   5.981
11610TIP3   OH234772   6.825   4.604   4.943
11610TIP3    H134773   6.921   4.612   4.958
11610TIP3    H234774   6.805   4.684   4.892
11611TIP3   OH234775   5.983   5.053   5.651
11611TIP3    H134776   6.026   5.032   5.565
11611TIP3    H234777   6.042   5.007   5.713
11612TIP3   OH234778   6.444   5.193   4.798
11612TIP3    H134779   6.395   5.279   4.801
11612TIP3    H234780   6.390   5.139   4.860
11613TIP3   OH234781   5.875   4.984   6.265
11613TIP3    H134782   5.893   4.973   6.361
11613TIP3    H234783   5.805   4.919   6.251
11614TIP3   OH234784   6.600   5.102   6.284
11614TIP3    H134785   6.541   5.041   6.238
11614TIP3    H234786   6.688   5.068   6.256
11615TIP3   OH234787   6.857   5.620   5.872
11615TIP3    H134788   6.760   5.621   5.885
11615TIP3    H234789   6.886   5.674   5.948
11616TIP3   OH234790   7.266   4.697   4.778
11616TIP3    H134791   7.204   4.654   4.714
11616TIP3    H234792   7.263   4.787   4.738
11617TIP3   OH234793   7.485   5.544   5.860
11617TIP3    H134794   7.387   5.541   5.849
11617TIP3    H234795   7.512   5.517   5.769
11618TIP3   OH234796   6.970   5.514   4.687
11618TIP3    H134797   6.942   5.444   4.748
11618TIP3    H234798   6.982   5.467   4.603
11619TIP3   OH234799   6.964   5.144   5.519
11619TIP3    H134800   6.870   5.120   5.534
11619TIP3    H234801   6.997   5.063   5.475
11620TIP3   OH234802   6.095   5.372   5.276
11620TIP3    H134803   6.093   5.453   5.222
11620TIP3    H234804   6.000   5.357   5.290
11621TIP3   OH234805   5.657   4.674   4.978
11621TIP3    H134806   5.702   4.759   4.999
11621TIP3    H234807   5.580   4.679   5.038
11622TIP3   OH234808   6.224   5.133   5.218
11622TIP3    H134809   6.192   5.224   5.236
11622TIP3    H234810   6.191   5.085   5.295
11623TIP3   OH234811   6.363   5.714   5.744
11623TIP3    H134812   6.405   5.787   5.694
11623TIP3    H234813   6.440   5.677   5.792
11624TIP3   OH234814   6.012   5.609   5.129
11624TIP3    H134815   5.926   5.619   5.175
11624TIP3    H234816   6.045   5.702   5.132
11625TIP3   OH234817   6.747   5.348   5.707
11625TIP3    H134818   6.736   5.346   5.804
11625TIP3    H234819   6.829   5.297   5.696
11626TIP3   OH234820   6.727   5.242   4.589
11626TIP3    H134821   6.781   5.217   4.668
11626TIP3    H234822   6.639   5.215   4.618
11627TIP3   OH234823   6.995   5.879   5.753
11627TIP3    H134824   6.915   5.825   5.746
11627TIP3    H234825   6.981   5.944   5.681
11628TIP3   OH234826   7.063   5.714   4.407
11628TIP3    H134827   7.096   5.787   4.352
11628TIP3    H234828   6.982   5.758   4.443
11629TIP3   OH234829   6.083   4.491   6.271
11629TIP3    H134830   5.987   4.494   6.286
11629TIP3    H234831   6.113   4.435   6.345
11630TIP3   OH234832   6.887   5.175   4.804
11630TIP3    H134833   6.877   5.108   4.875
11630TIP3    H234834   6.984   5.171   4.791
11631TIP3   OH234835   5.802   5.574   5.902
11631TIP3    H134836   5.856   5.505   5.944
11631TIP3    H234837   5.823   5.651   5.957
11632TIP3   OH234838   6.089   5.220   4.587
11632TIP3    H134839   6.105   5.127   4.563
11632TIP3    H234840   6.069   5.212   4.682
11633TIP3   OH234841   6.035   5.226   4.859
11633TIP3    H134842   6.109   5.202   4.915
11633TIP3    H234843   6.036   5.325   4.867
11634TIP3   OH234844   5.768   4.919   5.065
11634TIP3    H134845   5.701   4.966   5.120
11634TIP3    H234846   5.782   4.987   4.995
11635TIP3   OH234847   6.926   4.552   5.953
11635TIP3    H134848   7.002   4.594   5.997
11635TIP3    H234849   6.910   4.473   6.009
11636TIP3   OH234850   6.806   4.303   5.123
11636TIP3    H134851   6.790   4.326   5.030
11636TIP3    H234852   6.843   4.387   5.159
11637TIP3   OH234853   6.301   5.422   4.806
11637TIP3    H134854   6.214   5.447   4.844
11637TIP3    H234855   6.319   5.501   4.752
11638TIP3   OH234856   6.485   4.489   5.224
11638TIP3    H134857   6.550   4.561   5.205
11638TIP3    H234858   6.494   4.480   5.321
11639TIP3   OH234859   6.760   4.803   6.028
11639TIP3    H134860   6.783   4.858   6.106
11639TIP3    H234861   6.813   4.723   6.044
11640TIP3   OH234862   6.632   4.209   5.323
11640TIP3    H134863   6.627   4.285   5.383
11640TIP3    H234864   6.695   4.244   5.255
11641TIP3   OH234865   6.046   5.498   4.878
11641TIP3    H134866   6.017   5.568   4.815
11641TIP3    H234867   6.030   5.541   4.964
11642TIP3   OH234868   6.145   4.214   5.115
11642TIP3    H134869   6.144   4.305   5.151
11642TIP3    H234870   6.241   4.195   5.122
11643TIP3   OH234871   7.398   4.704   6.012
11643TIP3    H134872   7.300   4.703   6.021
11643TIP3    H234873   7.408   4.663   5.925
11644TIP3   OH234874   7.050   4.898   5.399
11644TIP3    H134875   6.973   4.840   5.412
11644TIP3    H234876   7.121   4.852   5.448
11645TIP3   OH234877   5.764   5.124   4.868
11645TIP3    H134878   5.831   5.194   4.878
11645TIP3    H234879   5.809   5.068   4.801
11646TIP3   OH234880   5.702   4.403   5.007
11646TIP3    H134881   5.704   4.501   5.001
11646TIP3    H234882   5.629   4.382   4.948
11647TIP3   OH234883   7.019   5.857   5.347
11647TIP3    H134884   6.976   5.904   5.272
11647TIP3    H234885   7.113   5.876   5.325
11648TIP3   OH234886   6.091   4.124   5.874
11648TIP3    H134887   6.065   4.086   5.788
11648TIP3    H234888   6.085   4.047   5.934
11649TIP3   OH234889   5.627   5.333   5.252
11649TIP3    H134890   5.566   5.369   5.318
11649TIP3    H234891   5.596   5.381   5.170
11650TIP3   OH234892   5.793   5.890   6.327
11650TIP3    H134893   5.879   5.890   6.374
11650TIP3    H234894   5.773   5.795   6.326
11651TIP3   OH234895   6.270   5.846   6.372
11651TIP3    H134896   6.365   5.826   6.378
11651TIP3    H234897   6.244   5.785   6.300
11652TIP3   OH234898   6.251   5.423   4.495
11652TIP3    H134899   6.197   5.351   4.535
11652TIP3    H234900   6.328   5.373   4.465
11653TIP3   OH234901   6.911   5.758   6.104
11653TIP3    H134902   6.901   5.686   6.170
11653TIP3    H234903   6.991   5.805   6.136
11654TIP3   OH234904   6.687   5.462   4.412
11654TIP3    H134905   6.731   5.398   4.472
11654TIP3    H234906   6.745   5.460   4.333
11655TIP3   OH234907   5.921   5.293   6.527
11655TIP3    H134908   5.936   5.197   6.534
11655TIP3    H234909   5.834   5.296   6.482
11656TIP3   OH234910   5.900   4.938   4.723
11656TIP3    H134911   5.957   4.910   4.796
11656TIP3    H234912   5.966   4.943   4.650
11657TIP3   OH234913   6.527   5.378   6.302
11657TIP3    H134914   6.488   5.398   6.214
11657TIP3    H234915   6.560   5.287   6.291
11658TIP3   OH234916   6.411   5.140   4.530
11658TIP3    H134917   6.414   5.153   4.627
11658TIP3    H234918   6.413   5.042   4.524
11659TIP3   OH234919   7.019   5.389   5.907
11659TIP3    H134920   7.096   5.431   5.864
11659TIP3    H234921   6.951   5.458   5.893
11660TIP3   OH234922   6.042   5.027   6.510
11660TIP3    H134923   6.119   4.975   6.486
11660TIP3    H234924   6.069   5.061   6.598
11661TIP3   OH234925   6.103   4.847   4.939
11661TIP3    H134926   6.080   4.806   5.023
11661TIP3    H234927   6.142   4.773   4.889
11662TIP3   OH234928   6.373   4.907   6.168
11662TIP3    H134929   6.297   4.969   6.171
11662TIP3    H234930   6.426   4.943   6.093
11663TIP3   OH234931   6.209   4.641   4.783
11663TIP3    H134932   6.184   4.647   4.688
11663TIP3    H234933   6.307   4.643   4.776
11664TIP3   OH234934   6.889   5.309   6.301
11664TIP3    H134935   6.975   5.286   6.264
11664TIP3    H234936   6.886   5.249   6.379
11665TIP3   OH234937   7.027   4.968   4.450
11665TIP3    H134938   7.007   4.924   4.365
11665TIP3    H234939   6.994   5.059   4.429
11666TIP3   OH234940   6.500   4.700   6.296
11666TIP3    H134941   6.500   4.621   6.239
11666TIP3    H234942   6.455   4.767   6.238
11667TIP3   OH234943   6.502   4.487   6.105
11667TIP3    H134944   6.530   4.527   6.021
11667TIP3    H234945   6.409   4.463   6.086
11668TIP3   OH234946   6.525   5.018   5.976
11668TIP3    H134947   6.612   5.034   5.938
11668TIP3    H234948   6.469   5.085   5.931
11669TIP3   OH234949   7.108   4.988   6.357
11669TIP3    H134950   7.160   4.907   6.366
11669TIP3    H234951   7.175   5.051   6.327
11670TIP3   OH234952   7.151   5.237   6.089
11670TIP3    H134953   7.092   5.293   6.033
11670TIP3    H234954   7.238   5.261   6.050
11671TIP3   OH234955   6.378   4.806   6.530
11671TIP3    H134956   6.310   4.737   6.545
11671TIP3    H234957   6.411   4.781   6.441
11672TIP3   OH234958   6.634   4.247   6.172
11672TIP3    H134959   6.583   4.328   6.151
11672TIP3    H234960   6.565   4.178   6.163
11673TIP3   OH234961   6.760   4.749   6.388
11673TIP3    H134962   6.746   4.736   6.484
11673TIP3    H234963   6.671   4.726   6.356
11674TIP3   OH234964   6.997   4.697   6.242
11674TIP3    H134965   6.923   4.703   6.305
11674TIP3    H234966   7.071   4.670   6.300
11675TIP3   OH234967   7.234   4.645   6.393
11675TIP3    H134968   7.243   4.549   6.409
11675TIP3    H234969   7.225   4.681   6.484
11676TIP3   OH234970   6.216   4.587   6.584
11676TIP3    H134971   6.220   4.494   6.552
11676TIP3    H234972   6.254   4.576   6.673
11677TIP3   OH234973   6.728   4.260   6.430
11677TIP3    H134974   6.793   4.187   6.426
11677TIP3    H234975   6.688   4.252   6.341
11678TIP3   OH234976   6.795   4.473   6.588
11678TIP3    H134977   6.773   4.401   6.525
11678TIP3    H234978   6.715   4.530   6.582
11679TIP3   OH234979   6.016   5.698   4.689
11679TIP3    H134980   6.111   5.692   4.671
11679TIP3    H234981   5.988   5.751   4.613
11680TIP3   OH234982   5.495   5.083   4.906
11680TIP3    H134983   5.590   5.105   4.891
11680TIP3    H234984   5.489   4.995   4.864
11681TIP3   OH234985   5.414   5.696   5.320
11681TIP3    H134986   5.346   5.636   5.281
11681TIP3    H234987   5.456   5.635   5.385
11682TIP3   OH234988   5.549   5.540   5.504
11682TIP3    H134989   5.532   5.473   5.572
11682TIP3    H234990   5.599   5.605   5.557
11683TIP3   OH234991   7.274   5.943   5.307
11683TIP3    H134992   7.299   5.974   5.396
11683TIP3    H234993   7.339   5.987   5.250
11684TIP3   OH234994   7.301   5.967   5.586
11684TIP3    H134995   7.259   5.878   5.586
11684TIP3    H234996   7.377   5.949   5.643
11685TIP3   OH234997   7.348   5.645   6.167
11685TIP3    H134998   7.276   5.653   6.232
11685TIP3    H234999   7.390   5.733   6.171
11686TIP3   OH235000   7.165   5.155   4.780
11686TIP3    H135001   7.231   5.221   4.749
11686TIP3    H235002   7.211   5.118   4.859
11687TIP3   OH235003   7.294   5.022   4.984
11687TIP3    H135004   7.226   4.982   5.043
11687TIP3    H235005   7.358   5.060   5.047
11688TIP3   OH235006   7.349   5.417   5.416
11688TIP3    H135007   7.400   5.350   5.367
11688TIP3    H235008   7.344   5.491   5.352
11689TIP3   OH235009   7.176   5.717   5.610
11689TIP3    H135010   7.104   5.760   5.661
11689TIP3    H235011   7.126   5.671   5.539
11690TIP3   OH235012   7.230   4.931   4.630
11690TIP3    H135013   7.158   4.933   4.563
11690TIP3    H235014   7.202   5.008   4.685
11691TIP3   OH235015   7.102   4.605   4.583
11691TIP3    H135016   7.057   4.642   4.507
11691TIP3    H235017   7.076   4.510   4.576
11692TIP3   OH235018   7.105   4.883   5.130
11692TIP3    H135019   7.112   4.786   5.122
11692TIP3    H235020   7.090   4.895   5.226
11693TIP3   OH235021   5.732   4.947   5.874
11693TIP3    H135022   5.731   4.922   5.780
11693TIP3    H235023   5.829   4.951   5.892
11694TIP3   OH235024   7.395   5.305   5.986
11694TIP3    H135025   7.467   5.239   5.976
11694TIP3    H235026   7.424   5.376   5.926
11695TIP3   OH235027   7.578   5.106   5.995
11695TIP3    H135028   7.504   5.058   6.039
11695TIP3    H235029   7.651   5.044   6.014
11696TIP3   OH235030   7.042   4.339   4.571
11696TIP3    H135031   7.116   4.306   4.626
11696TIP3    H235032   6.974   4.272   4.582
11697TIP3   OH235033   7.103   4.598   5.023
11697TIP3    H135034   7.144   4.510   5.037
11697TIP3    H235035   7.160   4.632   4.952
11698TIP3   OH235036   7.262   4.766   5.520
11698TIP3    H135037   7.348   4.792   5.479
11698TIP3    H235038   7.276   4.806   5.609
11699TIP3   OH235039   7.333   4.914   5.749
11699TIP3    H135040   7.257   4.948   5.800
11699TIP3    H235041   7.366   4.996   5.706
11700TIP3   OH235042   5.950   4.638   6.549
11700TIP3    H135043   6.048   4.633   6.555
11700TIP3    H235044   5.926   4.552   6.590
11701TIP3   OH235045   7.789   4.511   6.307
11701TIP3    H135046   7.847   4.444   6.264
11701TIP3    H235047   7.755   4.561   6.230
11702TIP3   OH235048   7.212   4.347   5.061
11702TIP3    H135049   7.258   4.332   5.145
11702TIP3    H235050   7.149   4.272   5.060
11703TIP3   OH235051   5.902   4.329   5.869
11703TIP3    H135052   5.962   4.254   5.886
11703TIP3    H235053   5.966   4.402   5.872
11704TIP3   OH235054   5.708   4.608   5.941
11704TIP3    H135055   5.774   4.614   5.870
11704TIP3    H235056   5.729   4.687   5.994
11705TIP3   OH235057   7.653   4.642   6.112
11705TIP3    H135058   7.568   4.686   6.133
11705TIP3    H235059   7.620   4.571   6.054
11706TIP3   OH235060   7.289   4.280   4.692
11706TIP3    H135061   7.341   4.219   4.637
11706TIP3    H235062   7.352   4.356   4.698
11707TIP3   OH235063   5.689   4.131   5.475
11707TIP3    H135064   5.596   4.101   5.486
11707TIP3    H235065   5.685   4.172   5.385
11708TIP3   OH235066   6.857   5.813   4.963
11708TIP3    H135067   6.908   5.803   4.880
11708TIP3    H235068   6.908   5.881   5.009
11709TIP3   OH235069   5.918   4.192   6.270
11709TIP3    H135070   5.868   4.183   6.353
11709TIP3    H235071   5.848   4.226   6.211
11710TIP3   OH235072   5.957   5.618   6.345
11710TIP3    H135073   5.863   5.594   6.330
11710TIP3    H235074   5.967   5.601   6.439
11711TIP3   OH235075   6.138   5.652   5.894
11711TIP3    H135076   6.089   5.727   5.855
11711TIP3    H235077   6.223   5.666   5.849
11712TIP3   OH235078   6.578   5.894   6.033
11712TIP3    H135079   6.620   5.893   6.121
11712TIP3    H235080   6.644   5.946   5.981
11713TIP3   OH235081   6.758   6.048   5.894
11713TIP3    H135082   6.829   5.998   5.852
11713TIP3    H235083   6.810   6.107   5.954
11714TIP3   OH235084   7.554   4.406   5.990
11714TIP3    H135085   7.463   4.397   5.957
11714TIP3    H235086   7.586   4.313   5.981
11715TIP3   OH235087   5.810   5.906   5.921
11715TIP3    H135088   5.720   5.937   5.898
11715TIP3    H235089   5.825   5.955   6.003
11716TIP3   OH235090   6.047   5.886   5.778
11716TIP3    H135091   5.960   5.898   5.821
11716TIP3    H235092   6.029   5.918   5.688
11717TIP3   OH235093   6.473   5.913   5.576
11717TIP3    H135094   6.404   5.931   5.509
11717TIP3    H235095   6.484   6.001   5.616
11718TIP3   OH235096   6.742   5.851   5.627
11718TIP3    H135097   6.648   5.870   5.608
11718TIP3    H235098   6.786   5.925   5.582
11719TIP3   OH235099   6.948   6.044   5.539
11719TIP3    H135100   6.933   6.128   5.491
11719TIP3    H235101   6.975   5.984   5.466
11720TIP3   OH235102   5.724   5.701   5.661
11720TIP3    H135103   5.749   5.673   5.751
11720TIP3    H235104   5.796   5.657   5.610
11721TIP3   OH235105   5.919   5.572   5.521
11721TIP3    H135106   5.934   5.488   5.571
11721TIP3    H235107   6.009   5.608   5.518
11722TIP3   OH235108   6.184   5.665   5.528
11722TIP3    H135109   6.216   5.573   5.517
11722TIP3    H235110   6.231   5.689   5.609
11723TIP3   OH235111   6.755   4.320   5.608
11723TIP3    H135112   6.715   4.251   5.663
11723TIP3    H235113   6.832   4.275   5.569
11724TIP3   OH235114   7.279   4.198   5.511
11724TIP3    H135115   7.314   4.254   5.438
11724TIP3    H235116   7.184   4.223   5.510
11725TIP3   OH235117   7.376   4.300   5.277
11725TIP3    H135118   7.452   4.251   5.238
11725TIP3    H235119   7.408   4.392   5.264
11726TIP3   OH235120   6.006   4.030   5.623
11726TIP3    H135121   5.915   3.995   5.630
11726TIP3    H235122   6.057   3.946   5.621
11727TIP3   OH235123   5.796   3.902   5.274
11727TIP3    H135124   5.826   3.958   5.200
11727TIP3    H235125   5.769   3.968   5.340
11728TIP3   OH235126   6.451   4.065   5.509
11728TIP3    H135127   6.508   4.113   5.447
11728TIP3    H235128   6.482   4.099   5.595
11729TIP3   OH235129   6.995   4.211   5.492
11729TIP3    H135130   6.995   4.171   5.404
11729TIP3    H235131   6.983   4.132   5.550
11730TIP3   OH235132   7.027   4.134   5.051
11730TIP3    H135133   6.944   4.182   5.071
11730TIP3    H235134   7.011   4.050   5.099
11731TIP3   OH235135   5.511   5.476   5.053
11731TIP3    H135136   5.425   5.444   5.021
11731TIP3    H235137   5.503   5.570   5.030
11732TIP3   OH235138   5.912   4.060   5.040
11732TIP3    H135139   5.959   3.997   4.981
11732TIP3    H235140   5.987   4.114   5.073
11733TIP3   OH235141   6.422   4.238   5.138
11733TIP3    H135142   6.482   4.191   5.198
11733TIP3    H235143   6.444   4.331   5.162
11734TIP3   OH235144   6.284   5.656   4.638
11734TIP3    H135145   6.371   5.681   4.601
11734TIP3    H235146   6.261   5.583   4.577
11735TIP3   OH235147   7.003   5.781   4.730
11735TIP3    H135148   6.995   5.683   4.719
11735TIP3    H235149   6.956   5.812   4.651
11736TIP3   OH235150   6.215   4.313   6.519
11736TIP3    H135151   6.179   4.242   6.574
11736TIP3    H235152   6.309   4.311   6.547
11737TIP3   OH235153   6.465   4.310   6.636
11737TIP3    H135154   6.550   4.281   6.598
11737TIP3    H235155   6.451   4.241   6.705
11738TIP3   OH235156   5.584   5.493   4.691
11738TIP3    H135157   5.587   5.520   4.784
11738TIP3    H235158   5.673   5.452   4.677
11739TIP3   OH235159   7.291   4.373   6.424
11739TIP3    H135160   7.308   4.342   6.515
11739TIP3    H235161   7.380   4.366   6.384
11740TIP3   OH235162   7.220   5.915   5.918
11740TIP3    H135163   7.140   5.891   5.866
11740TIP3    H235164   7.210   6.013   5.920
11741TIP3   OH235165   8.493   5.305   4.676
11741TIP3    H135166   8.459   5.395   4.659
11741TIP3    H235167   8.416   5.251   4.653
11742TIP3   OH235168   8.493   5.294   5.064
11742TIP3    H135169   8.524   5.281   5.156
11742TIP3    H235170   8.452   5.208   5.046
11743TIP3   OH235171   7.792   5.189   5.428
11743TIP3    H135172   7.822   5.120   5.491
11743TIP3    H235173   7.869   5.247   5.425
11744TIP3   OH235174   8.743   5.598   4.743
11744TIP3    H135175   8.719   5.532   4.810
11744TIP3    H235176   8.765   5.675   4.799
11745TIP3   OH235177   7.765   5.601   5.151
11745TIP3    H135178   7.757   5.504   5.152
11745TIP3    H235179   7.862   5.611   5.147
11746TIP3   OH235180   7.471   4.800   4.935
11746TIP3    H135181   7.425   4.884   4.954
11746TIP3    H235182   7.399   4.751   4.891
11747TIP3   OH235183   7.529   5.090   5.114
11747TIP3    H135184   7.579   5.013   5.147
11747TIP3    H235185   7.589   5.127   5.048
11748TIP3   OH235186   8.378   6.057   4.753
11748TIP3    H135187   8.430   5.987   4.709
11748TIP3    H235188   8.375   6.025   4.844
11749TIP3   OH235189   8.291   5.522   5.111
11749TIP3    H135190   8.331   5.444   5.068
11749TIP3    H235191   8.375   5.567   5.138
11750TIP3   OH235192   8.702   5.045   5.137
11750TIP3    H135193   8.714   4.953   5.167
11750TIP3    H235194   8.653   5.029   5.054
11751TIP3   OH235195   8.042   4.682   5.110
11751TIP3    H135196   8.027   4.755   5.047
11751TIP3    H235197   7.994   4.610   5.064
11752TIP3   OH235198   8.730   4.773   4.744
11752TIP3    H135199   8.790   4.713   4.792
11752TIP3    H235200   8.792   4.822   4.690
11753TIP3   OH235201   7.676   4.884   5.217
11753TIP3    H135202   7.759   4.866   5.265
11753TIP3    H235203   7.691   4.829   5.137
11754TIP3   OH235204   8.118   5.081   5.011
11754TIP3    H135205   8.212   5.056   5.024
11754TIP3    H235206   8.079   4.997   4.979
11755TIP3   OH235207   8.039   4.667   5.544
11755TIP3    H135208   7.980   4.705   5.476
11755TIP3    H235209   7.986   4.685   5.625
11756TIP3   OH235210   8.401   5.536   4.536
11756TIP3    H135211   8.348   5.506   4.461
11756TIP3    H235212   8.345   5.609   4.570
11757TIP3   OH235213   8.147   5.442   5.334
11757TIP3    H135214   8.085   5.509   5.370
11757TIP3    H235215   8.189   5.490   5.260
11758TIP3   OH235216   7.911   4.781   5.328
11758TIP3    H135217   7.973   4.854   5.351
11758TIP3    H235218   7.960   4.741   5.252
11759TIP3   OH235219   7.978   5.637   5.434
11759TIP3    H135220   7.953   5.726   5.401
11759TIP3    H235221   7.898   5.618   5.489
11760TIP3   OH235222   7.365   5.327   4.671
11760TIP3    H135223   7.327   5.355   4.586
11760TIP3    H235224   7.398   5.412   4.706
11761TIP3   OH235225   8.808   5.845   4.902
11761TIP3    H135226   8.725   5.828   4.953
11761TIP3    H235227   8.787   5.935   4.869
11762TIP3   OH235228   8.384   4.376   5.261
11762TIP3    H135229   8.365   4.282   5.278
11762TIP3    H235230   8.307   4.419   5.305
11763TIP3   OH235231   8.518   5.882   4.590
11763TIP3    H135232   8.564   5.799   4.568
11763TIP3    H235233   8.580   5.947   4.549
11764TIP3   OH235234   8.657   5.628   4.482
11764TIP3    H135235   8.564   5.598   4.497
11764TIP3    H235236   8.693   5.617   4.572
11765TIP3   OH235237   9.031   5.751   5.270
11765TIP3    H135238   9.036   5.674   5.209
11765TIP3    H235239   9.030   5.825   5.207
11766TIP3   OH235240   8.324   5.148   4.514
11766TIP3    H135241   8.240   5.198   4.502
11766TIP3    H235242   8.357   5.147   4.423
11767TIP3   OH235243   8.282   4.932   4.229
11767TIP3    H135244   8.349   4.987   4.272
11767TIP3    H235245   8.340   4.869   4.181
11768TIP3   OH235246   8.665   5.229   4.482
11768TIP3    H135247   8.607   5.261   4.556
11768TIP3    H235248   8.737   5.186   4.533
11769TIP3   OH235249   8.891   5.249   5.390
11769TIP3    H135250   8.901   5.328   5.446
11769TIP3    H235251   8.801   5.264   5.354
11770TIP3   OH235252   7.905   5.227   4.903
11770TIP3    H135253   7.864   5.169   4.835
11770TIP3    H235254   7.982   5.173   4.932
11771TIP3   OH235255   8.035   5.642   5.049
11771TIP3    H135256   8.012   5.607   4.961
11771TIP3    H235257   8.124   5.602   5.064
11772TIP3   OH235258   8.041   5.199   5.256
11772TIP3    H135259   8.074   5.175   5.167
11772TIP3    H235260   8.085   5.285   5.273
11773TIP3   OH235261   8.578   5.834   5.036
11773TIP3    H135262   8.554   5.918   5.081
11773TIP3    H235263   8.550   5.765   5.100
11774TIP3   OH235264   8.185   5.749   5.574
11774TIP3    H135265   8.118   5.805   5.620
11774TIP3    H235266   8.124   5.695   5.519
11775TIP3   OH235267   8.515   5.080   4.306
11775TIP3    H135268   8.565   5.146   4.359
11775TIP3    H235269   8.546   5.102   4.215
11776TIP3   OH235270   7.935   5.307   5.685
11776TIP3    H135271   7.940   5.396   5.727
11776TIP3    H235272   7.840   5.289   5.696
11777TIP3   OH235273   8.259   5.762   4.592
11777TIP3    H135274   8.330   5.828   4.604
11777TIP3    H235275   8.197   5.809   4.535
11778TIP3   OH235276   7.985   5.907   5.672
11778TIP3    H135277   7.951   5.929   5.583
11778TIP3    H235278   7.900   5.891   5.718
11779TIP3   OH235279   7.771   5.071   4.706
11779TIP3    H135280   7.704   5.117   4.651
11779TIP3    H235281   7.730   4.984   4.717
11780TIP3   OH235282   8.824   5.705   3.909
11780TIP3    H135283   8.803   5.793   3.875
11780TIP3    H235284   8.907   5.684   3.864
11781TIP3   OH235285   7.550   5.454   5.615
11781TIP3    H135286   7.483   5.434   5.547
11781TIP3    H235287   7.588   5.366   5.634
11782TIP3   OH235288   7.407   5.647   5.248
11782TIP3    H135289   7.503   5.645   5.239
11782TIP3    H235290   7.394   5.728   5.301
11783TIP3   OH235291   8.372   5.891   5.435
11783TIP3    H135292   8.403   5.947   5.507
11783TIP3    H235293   8.300   5.840   5.479
11784TIP3   OH235294   8.144   6.014   4.389
11784TIP3    H135295   8.098   5.993   4.306
11784TIP3    H235296   8.118   6.106   4.406
11785TIP3   OH235297   7.575   5.862   4.775
11785TIP3    H135298   7.622   5.853   4.861
11785TIP3    H235299   7.523   5.780   4.775
11786TIP3   OH235300   8.344   5.929   4.029
11786TIP3    H135301   8.400   5.855   3.997
11786TIP3    H235302   8.366   5.929   4.125
11787TIP3   OH235303   8.388   5.929   4.299
11787TIP3    H135304   8.301   5.961   4.331
11787TIP3    H235305   8.438   5.927   4.381
11788TIP3   OH235306   7.755   5.635   5.593
11788TIP3    H135307   7.795   5.636   5.682
11788TIP3    H235308   7.681   5.572   5.604
11789TIP3   OH235309   8.155   4.460   5.391
11789TIP3    H135310   8.066   4.432   5.361
11789TIP3    H235311   8.131   4.543   5.436
11790TIP3   OH235312   8.657   4.597   5.567
11790TIP3    H135313   8.720   4.553   5.628
11790TIP3    H235314   8.571   4.575   5.609
11791TIP3   OH235315   8.961   4.997   5.507
11791TIP3    H135316   8.907   5.011   5.588
11791TIP3    H235317   8.944   5.080   5.459
11792TIP3   OH235318   8.602   5.138   4.055
11792TIP3    H135319   8.573   5.103   3.968
11792TIP3    H235320   8.620   5.230   4.031
11793TIP3   OH235321   8.313   4.505   4.360
11793TIP3    H135322   8.275   4.504   4.450
11793TIP3    H235323   8.271   4.425   4.324
11794TIP3   OH235324   8.087   4.978   5.407
11794TIP3    H135325   8.035   4.999   5.487
11794TIP3    H235326   8.072   5.059   5.353
11795TIP3   OH235327   7.972   4.863   4.921
11795TIP3    H135328   7.879   4.838   4.939
11795TIP3    H235329   7.984   4.822   4.832
11796TIP3   OH235330   8.464   4.952   4.648
11796TIP3    H135331   8.409   5.022   4.606
11796TIP3    H235332   8.515   4.918   4.573
11797TIP3   OH235333   8.613   5.213   5.705
11797TIP3    H135334   8.623   5.158   5.784
11797TIP3    H235335   8.657   5.300   5.729
11798TIP3   OH235336   8.605   4.981   4.886
11798TIP3    H135337   8.545   4.995   4.810
11798TIP3    H235338   8.641   4.894   4.859
11799TIP3   OH235339   7.908   5.006   5.614
11799TIP3    H135340   7.930   5.072   5.681
11799TIP3    H235341   7.896   4.925   5.668
11800TIP3   OH235342   7.955   4.481   4.323
11800TIP3    H135343   7.948   4.483   4.420
11800TIP3    H235344   7.880   4.539   4.298
11801TIP3   OH235345   7.502   4.523   5.197
11801TIP3    H135346   7.574   4.560   5.252
11801TIP3    H235347   7.545   4.504   5.113
11802TIP3   OH235348   7.465   4.507   4.716
11802TIP3    H135349   7.510   4.544   4.637
11802TIP3    H235350   7.405   4.581   4.736
11803TIP3   OH235351   8.609   5.231   5.310
11803TIP3    H135352   8.651   5.166   5.249
11803TIP3    H235353   8.584   5.172   5.384
11804TIP3   OH235354   8.294   4.708   4.980
11804TIP3    H135355   8.221   4.692   5.043
11804TIP3    H235356   8.370   4.664   5.024
11805TIP3   OH235357   7.733   4.742   4.988
11805TIP3    H135358   7.639   4.750   4.959
11805TIP3    H235359   7.757   4.651   4.962
11806TIP3   OH235360   7.997   4.734   4.680
11806TIP3    H135361   8.091   4.750   4.660
11806TIP3    H235362   7.952   4.757   4.596
11807TIP3   OH235363   8.714   4.779   5.176
11807TIP3    H135364   8.701   4.786   5.272
11807TIP3    H235365   8.795   4.723   5.170
11808TIP3   OH235366   7.849   4.769   4.455
11808TIP3    H135367   7.777   4.726   4.404
11808TIP3    H235368   7.900   4.808   4.381
11809TIP3   OH235369   7.924   5.553   5.824
11809TIP3    H135370   7.991   5.609   5.866
11809TIP3    H235371   7.852   5.558   5.890
11810TIP3   OH235372   8.384   5.018   5.085
11810TIP3    H135373   8.445   4.966   5.029
11810TIP3    H235374   8.385   4.967   5.168
11811TIP3   OH235375   7.900   4.502   4.958
11811TIP3    H135376   7.869   4.423   5.006
11811TIP3    H235377   7.951   4.463   4.885
11812TIP3   OH235378   8.354   4.907   5.369
11812TIP3    H135379   8.266   4.948   5.382
11812TIP3    H235380   8.414   4.969   5.415
11813TIP3   OH235381   8.097   5.298   4.466
11813TIP3    H135382   8.023   5.235   4.452
11813TIP3    H235383   8.072   5.335   4.555
11814TIP3   OH235384   8.987   5.559   5.079
11814TIP3    H135385   9.007   5.534   4.988
11814TIP3    H235386   8.905   5.508   5.093
11815TIP3   OH235387   8.564   4.607   4.329
11815TIP3    H135388   8.470   4.578   4.337
11815TIP3    H235389   8.556   4.703   4.339
11816TIP3   OH235390   8.484   5.609   5.461
11816TIP3    H135391   8.537   5.586   5.538
11816TIP3    H235392   8.462   5.702   5.475
11817TIP3   OH235393   8.650   4.868   4.413
11817TIP3    H135394   8.731   4.917   4.429
11817TIP3    H235395   8.596   4.937   4.368
11818TIP3   OH235396   7.788   5.323   5.137
11818TIP3    H135397   7.826   5.295   5.052
11818TIP3    H235398   7.832   5.263   5.199
11819TIP3   OH235399   8.249   5.451   4.297
11819TIP3    H135400   8.200   5.536   4.299
11819TIP3    H235401   8.189   5.395   4.351
11820TIP3   OH235402   7.671   5.239   5.749
11820TIP3    H135403   7.690   5.228   5.844
11820TIP3    H235404   7.598   5.176   5.735
11821TIP3   OH235405   8.383   5.346   5.766
11821TIP3    H135406   8.317   5.291   5.721
11821TIP3    H235407   8.466   5.311   5.727
11822TIP3   OH235408   8.659   5.864   5.389
11822TIP3    H135409   8.568   5.886   5.362
11822TIP3    H235410   8.667   5.909   5.474
11823TIP3   OH235411   8.800   5.754   4.198
11823TIP3    H135412   8.717   5.731   4.242
11823TIP3    H235413   8.788   5.720   4.108
11824TIP3   OH235414   8.755   5.401   5.006
11824TIP3    H135415   8.661   5.381   5.022
11824TIP3    H235416   8.788   5.313   4.980
11825TIP3   OH235417   7.892   5.629   4.767
11825TIP3    H135418   7.889   5.708   4.709
11825TIP3    H235419   7.798   5.606   4.771
11826TIP3   OH235420   7.456   4.929   4.470
11826TIP3    H135421   7.499   5.015   4.490
11826TIP3    H235422   7.378   4.934   4.530
11827TIP3   OH235423   8.028   5.393   4.710
11827TIP3    H135424   7.991   5.482   4.725
11827TIP3    H235425   7.988   5.342   4.783
11828TIP3   OH235426   8.163   5.972   5.231
11828TIP3    H135427   8.204   6.039   5.173
11828TIP3    H235428   8.240   5.934   5.275
11829TIP3   OH235429   7.808   5.866   4.617
11829TIP3    H135430   7.722   5.875   4.662
11829TIP3    H235431   7.840   5.959   4.618
11830TIP3   OH235432   8.541   5.603   5.193
11830TIP3    H135433   8.525   5.599   5.290
11830TIP3    H235434   8.631   5.566   5.190
11831TIP3   OH235435   8.503   5.500   4.080
11831TIP3    H135436   8.554   5.468   4.158
11831TIP3    H235437   8.412   5.476   4.105
11832TIP3   OH235438   7.876   4.748   5.758
11832TIP3    H135439   7.780   4.752   5.770
11832TIP3    H235440   7.903   4.690   5.831
11833TIP3   OH235441   8.693   5.420   4.282
11833TIP3    H135442   8.676   5.349   4.347
11833TIP3    H235443   8.705   5.496   4.341
11834TIP3   OH235444   7.603   5.841   5.398
11834TIP3    H135445   7.652   5.762   5.426
11834TIP3    H235446   7.632   5.903   5.466
11835TIP3   OH235447   7.811   5.488   4.383
11835TIP3    H135448   7.902   5.460   4.394
11835TIP3    H235449   7.821   5.583   4.362
11836TIP3   OH235450   7.565   5.175   4.550
11836TIP3    H135451   7.499   5.222   4.605
11836TIP3    H235452   7.581   5.243   4.482
11837TIP3   OH235453   8.718   4.836   5.449
11837TIP3    H135454   8.807   4.860   5.481
11837TIP3    H235455   8.698   4.752   5.495
11838TIP3   OH235456   8.573   4.576   4.618
11838TIP3    H135457   8.577   4.585   4.522
11838TIP3    H235458   8.623   4.653   4.651
11839TIP3   OH235459   8.102   5.675   4.306
11839TIP3    H135460   8.015   5.708   4.337
11839TIP3    H235461   8.101   5.706   4.214
11840TIP3   OH235462   8.279   4.748   4.710
11840TIP3    H135463   8.347   4.818   4.697
11840TIP3    H235464   8.285   4.735   4.807
11841TIP3   OH235465   8.545   5.050   5.502
11841TIP3    H135466   8.569   5.102   5.581
11841TIP3    H235467   8.610   4.977   5.503
11842TIP3   OH235468   8.418   4.457   4.808
11842TIP3    H135469   8.450   4.505   4.887
11842TIP3    H235470   8.474   4.499   4.739
11843TIP3   OH235471   7.847   5.759   4.361
11843TIP3    H135472   7.817   5.829   4.299
11843TIP3    H235473   7.829   5.800   4.448
11844TIP3   OH235474   7.939   4.470   4.601
11844TIP3    H135475   7.938   4.561   4.637
11844TIP3    H235476   8.035   4.452   4.607
11845TIP3   OH235477   8.842   5.141   4.915
11845TIP3    H135478   8.756   5.101   4.893
11845TIP3    H235479   8.854   5.103   5.004
11846TIP3   OH235480   7.561   5.380   4.356
11846TIP3    H135481   7.641   5.434   4.375
11846TIP3    H235482   7.598   5.327   4.282
11847TIP3   OH235483   7.499   4.658   4.490
11847TIP3    H135484   7.504   4.756   4.488
11847TIP3    H235485   7.419   4.642   4.438
11848TIP3   OH235486   8.817   6.123   4.841
11848TIP3    H135487   8.771   6.167   4.765
11848TIP3    H235488   8.904   6.110   4.802
11849TIP3   OH235489   7.892   4.381   5.360
11849TIP3    H135490   7.862   4.348   5.273
11849TIP3    H235491   7.881   4.303   5.418
11850TIP3   OH235492   7.426   5.597   4.739
11850TIP3    H135493   7.361   5.629   4.803
11850TIP3    H235494   7.395   5.640   4.656
11851TIP3   OH235495   7.505   6.091   5.854
11851TIP3    H135496   7.589   6.091   5.803
11851TIP3    H235497   7.485   5.996   5.853
11852TIP3   OH235498   8.044   6.116   5.850
11852TIP3    H135499   8.093   6.166   5.783
11852TIP3    H235500   8.008   6.042   5.796
11853TIP3   OH235501   8.050   5.680   4.013
11853TIP3    H135502   7.959   5.657   3.984
11853TIP3    H235503   8.100   5.636   3.943
11854TIP3   OH235504   8.486   5.727   3.905
11854TIP3    H135505   8.510   5.647   3.955
11854TIP3    H235506   8.529   5.715   3.818
11855TIP3   OH235507   7.717   5.540   6.009
11855TIP3    H135508   7.732   5.444   6.013
11855TIP3    H235509   7.629   5.545   5.966
11856TIP3   OH235510   7.693   5.197   4.207
11856TIP3    H135511   7.753   5.172   4.279
11856TIP3    H235512   7.760   5.208   4.135
11857TIP3   OH235513   8.312   5.608   5.776
11857TIP3    H135514   8.274   5.618   5.687
11857TIP3    H235515   8.345   5.515   5.774
11858TIP3   OH235516   8.223   5.399   4.016
11858TIP3    H135517   8.199   5.413   4.109
11858TIP3    H235518   8.214   5.301   4.010
11859TIP3   OH235519   8.796   5.633   5.346
11859TIP3    H135520   8.879   5.676   5.319
11859TIP3    H235521   8.739   5.713   5.359
11860TIP3   OH235522   7.834   5.275   5.989
11860TIP3    H135523   7.916   5.231   5.963
11860TIP3    H235524   7.856   5.305   6.080
11861TIP3   OH235525   7.906   5.103   4.432
11861TIP3    H135526   7.874   5.060   4.513
11861TIP3    H235527   7.939   5.027   4.380
11862TIP3   OH235528   8.175   5.169   5.661
11862TIP3    H135529   8.093   5.224   5.659
11862TIP3    H235530   8.222   5.200   5.581
11863TIP3   OH235531   8.002   4.897   4.269
11863TIP3    H135532   7.975   4.905   4.175
11863TIP3    H235533   8.100   4.901   4.260
11864TIP3   OH235534   8.701   5.460   5.764
11864TIP3    H135535   8.758   5.528   5.725
11864TIP3    H235536   8.659   5.512   5.837
11865TIP3   OH235537   8.296   4.956   5.782
11865TIP3    H135538   8.296   4.878   5.723
11865TIP3    H235539   8.253   5.024   5.726
11866TIP3   OH235540   8.297   4.742   5.593
11866TIP3    H135541   8.326   4.786   5.510
11866TIP3    H235542   8.203   4.722   5.572
11867TIP3   OH235543   8.322   5.277   5.466
11867TIP3    H135544   8.408   5.287   5.423
11867TIP3    H235545   8.267   5.342   5.417
11868TIP3   OH235546   8.932   5.248   5.771
11868TIP3    H135547   8.870   5.176   5.748
11868TIP3    H235548   8.874   5.324   5.783
11869TIP3   OH235549   8.902   5.490   5.547
11869TIP3    H135550   8.856   5.547   5.483
11869TIP3    H235551   8.994   5.493   5.518
11870TIP3   OH235552   8.179   5.062   6.020
11870TIP3    H135553   8.109   4.995   6.034
11870TIP3    H235554   8.208   5.040   5.929
11871TIP3   OH235555   8.418   4.504   5.664
11871TIP3    H135556   8.367   4.585   5.641
11871TIP3    H235557   8.351   4.434   5.652
11872TIP3   OH235558   8.556   4.999   5.878
11872TIP3    H135559   8.532   4.984   5.971
11872TIP3    H235560   8.468   4.981   5.837
11873TIP3   OH235561   8.802   4.980   5.739
11873TIP3    H135562   8.720   4.966   5.791
11873TIP3    H235563   8.869   4.935   5.796
11874TIP3   OH235564   8.999   4.872   5.897
11874TIP3    H135565   9.053   4.799   5.930
11874TIP3    H235566   8.957   4.906   5.979
11875TIP3   OH235567   8.013   4.844   6.069
11875TIP3    H135568   8.016   4.752   6.035
11875TIP3    H235569   8.047   4.831   6.160
11876TIP3   OH235570   8.523   4.513   5.917
11876TIP3    H135571   8.577   4.433   5.914
11876TIP3    H235572   8.482   4.511   5.828
11877TIP3   OH235573   8.584   4.725   6.079
11877TIP3    H135574   8.563   4.655   6.013
11877TIP3    H235575   8.507   4.785   6.071
11878TIP3   OH235576   7.810   5.961   4.176
11878TIP3    H135577   7.905   5.951   4.159
11878TIP3    H235578   7.785   6.011   4.096
11879TIP3   OH235579   7.292   5.341   4.389
11879TIP3    H135580   7.387   5.363   4.376
11879TIP3    H235581   7.287   5.251   4.351
11880TIP3   OH235582   7.209   5.952   4.806
11880TIP3    H135583   7.141   5.891   4.768
11880TIP3    H235584   7.252   5.892   4.871
11881TIP3   OH235585   7.342   5.799   4.993
11881TIP3    H135586   7.328   5.729   5.059
11881TIP3    H235587   7.394   5.862   5.046
11882TIP3   OH235588   8.993   5.959   5.084
11882TIP3    H135589   8.930   6.003   5.144
11882TIP3    H235590   8.932   5.915   5.022
11883TIP3   OH235591   8.876   5.106   4.611
11883TIP3    H135592   8.967   5.067   4.618
11883TIP3    H235593   8.870   5.146   4.699
11884TIP3   OH235594   7.527   5.208   5.366
11884TIP3    H135595   7.524   5.176   5.273
11884TIP3    H235596   7.624   5.210   5.381
11885TIP3   OH235597   7.746   4.895   6.039
11885TIP3    H135598   7.843   4.888   6.041
11885TIP3    H235599   7.721   4.808   6.078
11886TIP3   OH235600   7.707   4.590   5.369
11886TIP3    H135601   7.770   4.516   5.378
11886TIP3    H235602   7.769   4.665   5.360
11887TIP3   OH235603   7.508   4.861   5.441
11887TIP3    H135604   7.558   4.860   5.358
11887TIP3    H235605   7.532   4.947   5.478
11888TIP3   OH235606   7.496   4.359   4.944
11888TIP3    H135607   7.403   4.358   4.971
11888TIP3    H235608   7.492   4.417   4.862
11889TIP3   OH235609   8.673   6.052   4.456
11889TIP3    H135610   8.722   6.055   4.371
11889TIP3    H235611   8.688   6.142   4.491
11890TIP3   OH235612   7.714   4.445   5.755
11890TIP3    H135613   7.663   4.440   5.838
11890TIP3    H235614   7.648   4.485   5.695
11891TIP3   OH235615   7.761   5.829   5.849
11891TIP3    H135616   7.670   5.833   5.814
11891TIP3    H235617   7.753   5.884   5.927
11892TIP3   OH235618   7.940   5.908   5.382
11892TIP3    H135619   7.885   5.983   5.351
11892TIP3    H235620   8.021   5.927   5.330
11893TIP3   OH235621   7.615   6.186   5.385
11893TIP3    H135622   7.520   6.207   5.395
11893TIP3    H235623   7.639   6.150   5.473
11894TIP3   OH235624   7.853   6.148   5.262
11894TIP3    H135625   7.766   6.163   5.305
11894TIP3    H235626   7.832   6.175   5.171
11895TIP3   OH235627   8.261   6.167   5.054
11895TIP3    H135628   8.191   6.182   4.988
11895TIP3    H235629   8.274   6.257   5.089
11896TIP3   OH235630   8.520   6.090   5.120
11896TIP3    H135631   8.434   6.122   5.087
11896TIP3    H235632   8.580   6.163   5.094
11897TIP3   OH235633   8.669   6.298   5.017
11897TIP3    H135634   8.674   6.390   4.986
11897TIP3    H235635   8.715   6.246   4.948
11898TIP3   OH235636   7.518   5.955   5.151
11898TIP3    H135637   7.548   5.931   5.242
11898TIP3    H235638   7.591   5.913   5.099
11899TIP3   OH235639   7.713   5.830   5.009
11899TIP3    H135640   7.729   5.745   5.058
11899TIP3    H235641   7.805   5.865   5.003
11900TIP3   OH235642   7.981   5.923   5.012
11900TIP3    H135643   8.011   5.831   5.000
11900TIP3    H235644   8.025   5.944   5.096
11901TIP3   OH235645   8.506   4.547   5.056
11901TIP3    H135646   8.493   4.493   5.136
11901TIP3    H235647   8.603   4.542   5.044
11902TIP3   OH235648   7.806   4.285   5.110
11902TIP3    H135649   7.712   4.257   5.117
11902TIP3    H235650   7.850   4.199   5.102
11903TIP3   OH235651   7.566   4.171   4.743
11903TIP3    H135652   7.638   4.194   4.689
11903TIP3    H235653   7.583   4.203   4.825
11904TIP3   OH235654   8.247   4.318   4.997
11904TIP3    H135655   8.299   4.362   4.927
11904TIP3    H235656   8.282   4.362   5.076
11905TIP3   OH235657   8.756   4.450   4.972
11905TIP3    H135658   8.783   4.424   4.883
11905TIP3    H235659   8.755   4.363   5.018
11906TIP3   OH235660   7.306   5.732   4.539
11906TIP3    H135661   7.220   5.700   4.507
11906TIP3    H235662   7.298   5.827   4.516
11907TIP3   OH235663   7.715   4.300   4.530
11907TIP3    H135664   7.768   4.243   4.471
11907TIP3    H235665   7.783   4.364   4.561
11908TIP3   OH235666   8.216   4.497   4.621
11908TIP3    H135667   8.278   4.450   4.680
11908TIP3    H235668   8.238   4.589   4.647
11909TIP3   OH235669   8.078   5.928   4.124
11909TIP3    H135670   8.165   5.951   4.087
11909TIP3    H235671   8.060   5.845   4.074
11910TIP3   OH235672   8.810   6.037   4.220
11910TIP3    H135673   8.810   5.941   4.204
11910TIP3    H235674   8.762   6.072   4.142
11911TIP3   OH235675   8.010   4.568   6.005
11911TIP3    H135676   7.974   4.498   6.062
11911TIP3    H235677   8.104   4.568   6.034
11912TIP3   OH235678   8.260   4.567   6.125
11912TIP3    H135679   8.346   4.541   6.087
11912TIP3    H235680   8.247   4.497   6.192
11913TIP3   OH235681   7.390   5.762   4.184
11913TIP3    H135682   7.366   5.793   4.272
11913TIP3    H235683   7.455   5.693   4.203
11914TIP3   OH235684   0.948   6.080   6.367
11914TIP3    H135685   0.915   6.170   6.379
11914TIP3    H235686   0.874   6.039   6.319
11915TIP3   OH235687   0.950   6.063   6.741
11915TIP3    H135688   0.979   6.047   6.833
11915TIP3    H235689   0.900   5.982   6.722
11916TIP3   OH235690   1.188   6.389   6.436
11916TIP3    H135691   1.183   6.323   6.507
11916TIP3    H235692   1.218   6.467   6.487
11917TIP3   OH235693   0.896   6.881   6.431
11917TIP3    H135694   0.946   6.798   6.425
11917TIP3    H235695   0.835   6.859   6.503
11918TIP3   OH235696   0.774   6.278   6.817
11918TIP3    H135697   0.808   6.206   6.762
11918TIP3    H235698   0.855   6.331   6.829
11919TIP3   OH235699   1.759   5.625   6.794
11919TIP3    H135700   1.788   5.710   6.832
11919TIP3    H235701   1.783   5.638   6.700
11920TIP3   OH235702   1.152   5.809   6.836
11920TIP3    H135703   1.207   5.731   6.854
11920TIP3    H235704   1.126   5.794   6.743
11921TIP3   OH235705   1.193   5.568   6.425
11921TIP3    H135706   1.267   5.553   6.488
11921TIP3    H235707   1.243   5.596   6.346
11922TIP3   OH235708   1.834   5.834   6.958
11922TIP3    H135709   1.756   5.886   6.928
11922TIP3    H235710   1.836   5.855   7.051
11923TIP3   OH235711   0.812   6.314   6.255
11923TIP3    H135712   0.796   6.268   6.171
11923TIP3    H235713   0.878   6.380   6.231
11924TIP3   OH235714   1.402   5.570   6.598
11924TIP3    H135715   1.420   5.510   6.671
11924TIP3    H235716   1.452   5.650   6.625
11925TIP3   OH235717   1.250   6.626   6.581
11925TIP3    H135718   1.164   6.619   6.628
11925TIP3    H235719   1.252   6.721   6.560
11926TIP3   OH235720   1.554   5.533   6.968
11926TIP3    H135721   1.467   5.561   6.935
11926TIP3    H235722   1.614   5.564   6.897
11927TIP3   OH235723   0.953   6.653   6.245
11927TIP3    H135724   1.009   6.573   6.237
11927TIP3    H235725   1.018   6.723   6.224
11928TIP3   OH235726   1.099   6.434   6.179
11928TIP3    H135727   1.119   6.354   6.128
11928TIP3    H235728   1.140   6.414   6.267
11929TIP3   OH235729   0.771   5.962   6.196
11929TIP3    H135730   0.695   5.904   6.223
11929TIP3    H235731   0.799   5.924   6.112
11930TIP3   OH235732   0.753   5.725   5.918
11930TIP3    H135733   0.829   5.774   5.954
11930TIP3    H235734   0.799   5.656   5.866
11931TIP3   OH235735   1.685   6.168   6.781
11931TIP3    H135736   1.633   6.231   6.835
11931TIP3    H235737   1.695   6.213   6.695
11932TIP3   OH235738   1.127   6.024   6.170
11932TIP3    H135739   1.073   6.041   6.250
11932TIP3    H235740   1.211   5.994   6.212
11933TIP3   OH235741   1.354   6.036   7.071
11933TIP3    H135742   1.399   6.123   7.073
11933TIP3    H235743   1.266   6.058   7.034
11934TIP3   OH235744   1.014   6.624   6.711
11934TIP3    H135745   0.996   6.708   6.757
11934TIP3    H235746   1.002   6.557   6.781
11935TIP3   OH235747   0.966   5.877   6.000
11935TIP3    H135748   1.021   5.937   6.054
11935TIP3    H235749   0.993   5.903   5.909
11936TIP3   OH235750   1.467   5.118   6.058
11936TIP3    H135751   1.369   5.102   6.054
11936TIP3    H235752   1.476   5.198   6.003
11937TIP3   OH235753   1.287   6.489   5.604
11937TIP3    H135754   1.302   6.581   5.575
11937TIP3    H235755   1.376   6.450   5.587
11938TIP3   OH235756   1.727   6.887   6.990
11938TIP3    H135757   1.719   6.790   6.997
11938TIP3    H235758   1.643   6.913   7.036
11939TIP3   OH235759   0.847   6.751   5.993
11939TIP3    H135760   0.769   6.754   6.051
11939TIP3    H235761   0.915   6.729   6.059
11940TIP3   OH235762   1.153   5.364   7.273
11940TIP3    H135763   1.222   5.336   7.336
11940TIP3    H235764   1.070   5.347   7.322
11941TIP3   OH235765   1.391   5.792   7.196
11941TIP3    H135766   1.333   5.792   7.275
11941TIP3    H235767   1.366   5.876   7.152
11942TIP3   OH235768   1.042   5.939   5.749
11942TIP3    H135769   1.002   5.902   5.667
11942TIP3    H235770   1.131   5.962   5.718
11943TIP3   OH235771   0.744   5.306   6.019
11943TIP3    H135772   0.731   5.306   6.117
11943TIP3    H235773   0.721   5.213   6.001
11944TIP3   OH235774   0.915   5.739   6.340
11944TIP3    H135775   0.864   5.810   6.298
11944TIP3    H235776   0.969   5.705   6.266
11945TIP3   OH235777   1.098   6.002   7.398
11945TIP3    H135778   1.081   5.927   7.459
11945TIP3    H235779   1.169   6.049   7.446
11946TIP3   OH235780   1.067   5.761   6.578
11946TIP3    H135781   1.006   5.792   6.507
11946TIP3    H235782   1.104   5.684   6.531
11947TIP3   OH235783   1.064   6.008   6.996
11947TIP3    H135784   1.104   5.942   6.935
11947TIP3    H235785   1.043   5.949   7.071
11948TIP3   OH235786   1.267   5.557   6.882
11948TIP3    H135787   1.216   5.563   6.966
11948TIP3    H235788   1.227   5.481   6.838
11949TIP3   OH235789   1.421   7.230   7.053
11949TIP3    H135790   1.405   7.247   6.958
11949TIP3    H235791   1.443   7.319   7.084
11950TIP3   OH235792   0.847   5.791   6.762
11950TIP3    H135793   0.923   5.765   6.709
11950TIP3    H235794   0.864   5.746   6.847
11951TIP3   OH235795   0.836   5.680   7.053
11951TIP3    H135796   0.770   5.753   7.044
11951TIP3    H235797   0.906   5.728   7.103
11952TIP3   OH235798   0.979   5.440   5.969
11952TIP3    H135799   0.901   5.393   6.004
11952TIP3    H235800   1.006   5.496   6.044
11953TIP3   OH235801   0.946   6.414   7.151
11953TIP3    H135802   0.962   6.412   7.246
11953TIP3    H235803   0.884   6.490   7.144
11954TIP3   OH235804   1.075   5.652   6.131
11954TIP3    H135805   1.173   5.653   6.143
11954TIP3    H235806   1.060   5.726   6.070
11955TIP3   OH235807   0.681   6.250   5.994
11955TIP3    H135808   0.597   6.298   5.995
11955TIP3    H235809   0.655   6.165   6.033
11956TIP3   OH235810   0.899   6.136   7.516
11956TIP3    H135811   0.831   6.076   7.483
11956TIP3    H235812   0.976   6.105   7.465
11957TIP3   OH235813   1.091   6.713   7.021
11957TIP3    H135814   1.009   6.669   7.047
11957TIP3    H235815   1.126   6.740   7.109
11958TIP3   OH235816   1.513   5.740   5.954
11958TIP3    H135817   1.451   5.695   5.891
11958TIP3    H235818   1.512   5.829   5.913
11959TIP3   OH235819   1.724   6.607   7.030
11959TIP3    H135820   1.658   6.540   7.057
11959TIP3    H235821   1.747   6.572   6.941
11960TIP3   OH235822   1.154   6.545   5.836
11960TIP3    H135823   1.178   6.506   5.923
11960TIP3    H235824   1.230   6.518   5.779
11961TIP3   OH235825   1.191   6.190   6.681
11961TIP3    H135826   1.103   6.150   6.692
11961TIP3    H235827   1.243   6.115   6.647
11962TIP3   OH235828   1.012   6.395   6.880
11962TIP3    H135829   1.012   6.396   6.978
11962TIP3    H235830   1.096   6.351   6.858
11963TIP3   OH235831   0.966   6.324   5.770
11963TIP3    H135832   1.015   6.281   5.844
11963TIP3    H235833   0.884   6.270   5.764
11964TIP3   OH235834   1.264   6.905   6.931
11964TIP3    H135835   1.188   6.843   6.940
11964TIP3    H235836   1.230   6.972   6.868
11965TIP3   OH235837   1.316   6.764   5.583
11965TIP3    H135838   1.365   6.838   5.540
11965TIP3    H235839   1.234   6.813   5.606
11966TIP3   OH235840   1.135   6.230   5.984
11966TIP3    H135841   1.121   6.155   6.047
11966TIP3    H235842   1.231   6.218   5.968
11967TIP3   OH235843   1.170   5.604   7.138
11967TIP3    H135844   1.257   5.637   7.166
11967TIP3    H235845   1.162   5.522   7.191
11968TIP3   OH235846   1.021   5.353   6.314
11968TIP3    H135847   1.051   5.325   6.226
11968TIP3    H235848   1.071   5.435   6.329
11969TIP3   OH235849   0.746   5.527   6.421
11969TIP3    H135850   0.814   5.582   6.378
11969TIP3    H235851   0.722   5.582   6.497
11970TIP3   OH235852   1.013   5.834   7.196
11970TIP3    H135853   1.044   5.890   7.271
11970TIP3    H235854   1.073   5.757   7.202
11971TIP3   OH235855   1.660   5.794   7.199
11971TIP3    H135856   1.561   5.792   7.212
11971TIP3    H235857   1.661   5.734   7.121
11972TIP3   OH235858   1.300   5.939   6.571
11972TIP3    H135859   1.223   5.882   6.587
11972TIP3    H235860   1.371   5.895   6.622
11973TIP3   OH235861   1.268   6.900   6.523
11973TIP3    H135862   1.228   6.950   6.448
11973TIP3    H235863   1.362   6.921   6.508
11974TIP3   OH235864   1.158   6.806   7.272
11974TIP3    H135865   1.146   6.743   7.346
11974TIP3    H235866   1.240   6.852   7.298
11975TIP3   OH235867   0.691   6.190   5.710
11975TIP3    H135868   0.656   6.198   5.800
11975TIP3    H235869   0.681   6.093   5.696
11976TIP3   OH235870   0.491   5.724   6.004
11976TIP3    H135871   0.460   5.702   5.914
11976TIP3    H235872   0.587   5.710   5.994
11977TIP3   OH235873   1.136   6.364   7.468
11977TIP3    H135874   1.201   6.341   7.400
11977TIP3    H235875   1.140   6.283   7.524
11978TIP3   OH235876   1.275   6.015   5.626
11978TIP3    H135877   1.258   5.968   5.542
11978TIP3    H235878   1.240   6.104   5.602
11979TIP3   OH235879   0.711   5.480   7.202
11979TIP3    H135880   0.762   5.543   7.148
11979TIP3    H235881   0.676   5.537   7.272
11980TIP3   OH235882   0.830   6.129   7.105
11980TIP3    H135883   0.920   6.105   7.079
11980TIP3    H235884   0.820   6.212   7.058
11981TIP3   OH235885   1.499   6.016   7.517
11981TIP3    H135886   1.447   5.938   7.535
11981TIP3    H235887   1.431   6.085   7.502
11982TIP3   OH235888   1.356   6.308   7.275
11982TIP3    H135889   1.303   6.338   7.201
11982TIP3    H235890   1.439   6.289   7.227
11983TIP3   OH235891   0.892   5.293   7.336
11983TIP3    H135892   0.829   5.362   7.306
11983TIP3    H235893   0.836   5.213   7.326
11984TIP3   OH235894   1.009   5.805   7.574
11984TIP3    H135895   1.041   5.793   7.665
11984TIP3    H235896   0.927   5.753   7.575
11985TIP3   OH235897   1.248   5.752   7.423
11985TIP3    H135898   1.176   5.740   7.487
11985TIP3    H235899   1.325   5.719   7.474
11986TIP3   OH235900   1.464   5.684   7.567
11986TIP3    H135901   1.488   5.590   7.582
11986TIP3    H235902   1.481   5.723   7.655
11987TIP3   OH235903   0.990   5.312   7.594
11987TIP3    H135904   1.046   5.232   7.597
11987TIP3    H235905   0.944   5.299   7.509
11988TIP3   OH235906   1.060   5.528   7.741
11988TIP3    H135907   1.043   5.447   7.687
11988TIP3    H235908   0.969   5.562   7.750
11989TIP3   OH235909   1.518   7.003   6.481
11989TIP3    H135910   1.546   7.020   6.573
11989TIP3    H235911   1.597   7.030   6.431
11990TIP3   OH235912   1.559   7.011   6.757
11990TIP3    H135913   1.508   6.927   6.755
11990TIP3    H235914   1.629   6.984   6.819
11991TIP3   OH235915   1.615   6.680   7.344
11991TIP3    H135916   1.532   6.700   7.390
11991TIP3    H235917   1.654   6.769   7.335
11992TIP3   OH235918   1.410   6.206   5.958
11992TIP3    H135919   1.483   6.264   5.926
11992TIP3    H235920   1.453   6.164   6.036
11993TIP3   OH235921   1.537   6.072   6.159
11993TIP3    H135922   1.474   6.027   6.220
11993TIP3    H235923   1.607   6.104   6.221
11994TIP3   OH235924   1.623   6.476   6.599
11994TIP3    H135925   1.658   6.397   6.553
11994TIP3    H235926   1.571   6.520   6.530
11995TIP3   OH235927   1.441   6.768   6.769
11995TIP3    H135928   1.372   6.792   6.834
11995TIP3    H235929   1.402   6.692   6.724
11996TIP3   OH235930   1.478   5.978   5.808
11996TIP3    H135931   1.407   5.978   5.740
11996TIP3    H235932   1.449   6.053   5.863
11997TIP3   OH235933   1.345   5.647   5.760
11997TIP3    H135934   1.305   5.673   5.676
11997TIP3    H235935   1.324   5.551   5.760
11998TIP3   OH235936   1.351   5.926   6.302
11998TIP3    H135937   1.359   5.829   6.293
11998TIP3    H235938   1.339   5.937   6.399
11999TIP3   OH235939   1.293   5.380   5.754
11999TIP3    H135940   1.370   5.351   5.807
11999TIP3    H235941   1.222   5.321   5.784
12000TIP3   OH235942   1.352   5.643   6.199
12000TIP3    H135943   1.389   5.553   6.216
12000TIP3    H235944   1.411   5.672   6.127
12001TIP3   OH235945   1.511   5.814   6.700
12001TIP3    H135946   1.598   5.837   6.658
12001TIP3    H235947   1.526   5.856   6.788
12002TIP3   OH235948   1.589   5.957   6.930
12002TIP3    H135949   1.511   5.989   6.980
12002TIP3    H235950   1.617   6.041   6.886
12003TIP3   OH235951   2.034   5.552   7.487
12003TIP3    H135952   2.095   5.486   7.447
12003TIP3    H235953   2.005   5.602   7.409
12004TIP3   OH235954   1.457   5.392   6.238
12004TIP3    H135955   1.501   5.372   6.323
12004TIP3    H235956   1.421   5.305   6.213
12005TIP3   OH235957   1.899   5.667   7.282
12005TIP3    H135958   1.802   5.675   7.288
12005TIP3    H235959   1.903   5.588   7.222
12006TIP3   OH235960   1.539   5.325   5.875
12006TIP3    H135961   1.578   5.254   5.819
12006TIP3    H235962   1.608   5.394   5.869
12007TIP3   OH235963   1.107   6.846   6.139
12007TIP3    H135964   1.165   6.853   6.061
12007TIP3    H235965   1.145   6.912   6.199
12008TIP3   OH235966   1.036   7.079   6.987
12008TIP3    H135967   1.092   7.015   7.033
12008TIP3    H235968   1.034   7.153   7.050
12009TIP3   OH235969   1.798   5.442   7.166
12009TIP3    H135970   1.709   5.428   7.131
12009TIP3    H235971   1.836   5.352   7.158
12010TIP3   OH235972   0.959   6.905   6.776
12010TIP3    H135973   0.895   6.916   6.847
12010TIP3    H235974   1.013   6.984   6.790
12011TIP3   OH235975   1.215   7.088   6.720
12011TIP3    H135976   1.182   7.163   6.666
12011TIP3    H235977   1.225   7.017   6.653
12012TIP3   OH235978   1.527   5.269   6.704
12012TIP3    H135979   1.566   5.306   6.622
12012TIP3    H235980   1.432   5.269   6.683
12013TIP3   OH235981   1.622   5.343   6.458
12013TIP3    H135982   1.695   5.293   6.418
12013TIP3    H235983   1.655   5.435   6.443
12014TIP3   OH235984   1.244   5.250   6.660
12014TIP3    H135985   1.265   5.207   6.576
12014TIP3    H235986   1.233   5.174   6.721
12015TIP3   OH235987   0.713   5.288   6.286
12015TIP3    H135988   0.698   5.225   6.356
12015TIP3    H235989   0.719   5.373   6.333
12016TIP3   OH235990   1.252   6.820   5.901
12016TIP3    H135991   1.233   6.727   5.886
12016TIP3    H235992   1.209   6.861   5.823
12017TIP3   OH235993   1.541   5.417   7.599
12017TIP3    H135994   1.558   5.388   7.692
12017TIP3    H235995   1.630   5.412   7.560
12018TIP3   OH235996   1.480   6.965   7.089
12018TIP3    H135997   1.405   6.928   7.036
12018TIP3    H235998   1.463   7.060   7.074
12019TIP3   OH235999   2.744   6.341   5.857
12019TIP3    H136000   2.713   6.432   5.837
12019TIP3    H236001   2.668   6.289   5.824
12020TIP3   OH236002   2.740   6.343   6.245
12020TIP3    H136003   2.777   6.316   6.332
12020TIP3    H236004   2.702   6.260   6.213
12021TIP3   OH236005   2.040   6.235   6.602
12021TIP3    H136006   2.066   6.166   6.666
12021TIP3    H236007   2.123   6.285   6.594
12022TIP3   OH236008   2.987   6.646   5.924
12022TIP3    H136009   2.973   6.575   5.988
12022TIP3    H236010   3.019   6.719   5.980
12023TIP3   OH236011   2.014   6.647   6.325
12023TIP3    H136012   2.006   6.549   6.328
12023TIP3    H236013   2.111   6.656   6.322
12024TIP3   OH236014   1.720   5.847   6.111
12024TIP3    H136015   1.672   5.929   6.129
12024TIP3    H236016   1.649   5.794   6.070
12025TIP3   OH236017   1.778   6.131   6.282
12025TIP3    H136018   1.826   6.054   6.322
12025TIP3    H236019   1.843   6.165   6.220
12026TIP3   OH236020   2.639   7.106   5.942
12026TIP3    H136021   2.680   7.035   5.888
12026TIP3    H236022   2.631   7.062   6.028
12027TIP3   OH236023   2.540   6.568   6.289
12027TIP3    H136024   2.581   6.490   6.248
12027TIP3    H236025   2.623   6.615   6.314
12028TIP3   OH236026   3.554   5.886   6.285
12028TIP3    H136027   3.586   5.969   6.327
12028TIP3    H236028   3.583   5.899   6.193
12029TIP3   OH236029   2.952   6.067   6.319
12029TIP3    H136030   2.996   5.983   6.340
12029TIP3    H236031   2.921   6.049   6.228
12030TIP3   OH236032   2.294   5.727   6.285
12030TIP3    H136033   2.274   5.799   6.222
12030TIP3    H236034   2.246   5.653   6.241
12031TIP3   OH236035   2.987   5.820   5.905
12031TIP3    H136036   3.058   5.805   5.972
12031TIP3    H236037   3.042   5.854   5.831
12032TIP3   OH236038   1.924   5.929   6.394
12032TIP3    H136039   2.007   5.911   6.442
12032TIP3    H236040   1.939   5.873   6.314
12033TIP3   OH236041   2.365   6.126   6.190
12033TIP3    H136042   2.459   6.102   6.200
12033TIP3    H236043   2.327   6.042   6.156
12034TIP3   OH236044   3.629   6.094   6.457
12034TIP3    H136045   3.544   6.140   6.438
12034TIP3    H236046   3.648   6.126   6.547
12035TIP3   OH236047   2.288   5.712   6.721
12035TIP3    H136048   2.229   5.748   6.651
12035TIP3    H236049   2.235   5.733   6.801
12036TIP3   OH236050   2.628   6.560   5.729
12036TIP3    H136051   2.592   6.546   5.641
12036TIP3    H236052   2.584   6.643   5.755
12037TIP3   OH236053   2.395   6.487   6.512
12037TIP3    H136054   2.335   6.555   6.549
12037TIP3    H236055   2.439   6.535   6.438
12038TIP3   OH236056   3.192   5.826   6.083
12038TIP3    H136057   3.186   5.775   6.165
12038TIP3    H236058   3.246   5.902   6.109
12039TIP3   OH236059   2.160   5.825   6.503
12039TIP3    H136060   2.222   5.898   6.527
12039TIP3    H236061   2.209   5.785   6.428
12040TIP3   OH236062   2.224   6.683   6.612
12040TIP3    H136063   2.199   6.770   6.576
12040TIP3    H236064   2.144   6.665   6.667
12041TIP3   OH236065   1.613   6.372   5.848
12041TIP3    H136066   1.582   6.401   5.761
12041TIP3    H236067   1.651   6.455   5.884
12042TIP3   OH236068   3.054   6.889   6.089
12042TIP3    H136069   2.964   6.879   6.128
12042TIP3    H236070   3.046   6.975   6.043
12043TIP3   OH236071   3.349   5.786   6.452
12043TIP3    H136072   3.262   5.814   6.419
12043TIP3    H236073   3.410   5.818   6.383
12044TIP3   OH236074   2.640   5.426   6.434
12044TIP3    H136075   2.627   5.331   6.454
12044TIP3    H236076   2.564   5.465   6.482
12045TIP3   OH236077   2.752   6.933   5.758
12045TIP3    H136078   2.802   6.849   5.741
12045TIP3    H236079   2.816   6.997   5.719
12046TIP3   OH236080   2.897   6.718   5.674
12046TIP3    H136081   2.870   6.636   5.630
12046TIP3    H236082   2.935   6.684   5.758
12047TIP3   OH236083   3.281   6.798   6.432
12047TIP3    H136084   3.269   6.720   6.373
12047TIP3    H236085   3.265   6.872   6.371
12048TIP3   OH236086   2.574   6.193   5.691
12048TIP3    H136087   2.495   6.246   5.668
12048TIP3    H236088   2.621   6.189   5.606
12049TIP3   OH236089   2.532   5.980   5.403
12049TIP3    H136090   2.599   6.031   5.451
12049TIP3    H236091   2.589   5.916   5.356
12050TIP3   OH236092   3.476   6.438   6.279
12050TIP3    H136093   3.392   6.489   6.283
12050TIP3    H236094   3.507   6.460   6.189
12051TIP3   OH236095   2.922   6.276   5.659
12051TIP3    H136096   2.868   6.299   5.739
12051TIP3    H236097   3.006   6.250   5.702
12052TIP3   OH236098   3.155   6.312   6.578
12052TIP3    H136099   3.153   6.396   6.629
12052TIP3    H236100   3.069   6.318   6.532
12053TIP3   OH236101   2.154   6.272   6.080
12053TIP3    H136102   2.113   6.213   6.013
12053TIP3    H236103   2.230   6.218   6.110
12054TIP3   OH236104   2.285   6.687   6.225
12054TIP3    H136105   2.265   6.648   6.139
12054TIP3    H236106   2.374   6.650   6.244
12055TIP3   OH236107   2.289   6.244   6.434
12055TIP3    H136108   2.322   6.218   6.345
12055TIP3    H236109   2.334   6.330   6.450
12056TIP3   OH236110   2.813   6.883   6.210
12056TIP3    H136111   2.802   6.961   6.266
12056TIP3    H236112   2.798   6.808   6.272
12057TIP3   OH236113   2.428   6.801   6.757
12057TIP3    H136114   2.367   6.862   6.803
12057TIP3    H236115   2.364   6.748   6.706
12058TIP3   OH236116   2.758   6.136   5.488
12058TIP3    H136117   2.819   6.195   5.538
12058TIP3    H236118   2.786   6.156   5.395
12059TIP3   OH236119   2.185   6.351   6.866
12059TIP3    H136120   2.187   6.443   6.899
12059TIP3    H236121   2.089   6.332   6.870
12060TIP3   OH236122   2.505   6.812   5.763
12060TIP3    H136123   2.589   6.861   5.772
12060TIP3    H236124   2.447   6.876   5.721
12061TIP3   OH236125   2.221   6.968   6.845
12061TIP3    H136126   2.187   6.970   6.754
12061TIP3    H236127   2.141   6.945   6.897
12062TIP3   OH236128   3.277   5.372   5.536
12062TIP3    H136129   3.196   5.395   5.587
12062TIP3    H236130   3.291   5.455   5.486
12063TIP3   OH236131   2.020   6.116   5.885
12063TIP3    H136132   1.950   6.156   5.828
12063TIP3    H236133   1.987   6.025   5.895
12064TIP3   OH236134   3.078   6.739   5.087
12064TIP3    H136135   3.087   6.836   5.070
12064TIP3    H236136   3.170   6.709   5.074
12065TIP3   OH236137   1.807   6.503   6.795
12065TIP3    H136138   1.736   6.493   6.727
12065TIP3    H236139   1.836   6.411   6.808
12066TIP3   OH236140   1.655   6.707   6.398
12066TIP3    H136141   1.747   6.678   6.409
12066TIP3    H236142   1.643   6.763   6.476
12067TIP3   OH236143   3.518   7.145   6.479
12067TIP3    H136144   3.518   7.049   6.495
12067TIP3    H236145   3.435   7.170   6.526
12068TIP3   OH236146   2.624   6.929   6.614
12068TIP3    H136147   2.621   7.021   6.647
12068TIP3    H236148   2.553   6.888   6.668
12069TIP3   OH236149   2.387   7.055   5.567
12069TIP3    H136150   2.342   7.038   5.482
12069TIP3    H236151   2.354   7.144   5.591
12070TIP3   OH236152   1.824   6.905   5.953
12070TIP3    H136153   1.873   6.900   6.038
12070TIP3    H236154   1.778   6.819   5.955
12071TIP3   OH236155   2.586   6.959   5.205
12071TIP3    H136156   2.645   6.889   5.168
12071TIP3    H236157   2.622   6.969   5.295
12072TIP3   OH236158   2.639   7.008   5.475
12072TIP3    H136159   2.551   7.017   5.518
12072TIP3    H236160   2.691   6.969   5.546
12073TIP3   OH236161   3.407   6.273   6.755
12073TIP3    H136162   3.326   6.282   6.704
12073TIP3    H236163   3.425   6.177   6.746
12074TIP3   OH236164   2.006   6.684   6.776
12074TIP3    H136165   2.054   6.666   6.859
12074TIP3    H236166   1.930   6.622   6.783
12075TIP3   OH236167   2.404   5.504   6.566
12075TIP3    H136168   2.316   5.474   6.536
12075TIP3    H236169   2.378   5.586   6.613
12076TIP3   OH236170   2.941   5.620   6.759
12076TIP3    H136171   3.011   5.591   6.821
12076TIP3    H236172   2.859   5.599   6.807
12077TIP3   OH236173   3.174   6.048   6.675
12077TIP3    H136174   3.124   6.046   6.760
12077TIP3    H236175   3.153   6.137   6.640
12078TIP3   OH236176   2.837   6.179   5.233
12078TIP3    H136177   2.802   6.155   5.145
12078TIP3    H236178   2.922   6.220   5.208
12079TIP3   OH236179   2.549   5.554   5.536
12079TIP3    H136180   2.515   5.550   5.627
12079TIP3    H236181   2.510   5.471   5.500
12080TIP3   OH236182   2.337   6.021   6.582
12080TIP3    H136183   2.285   6.042   6.663
12080TIP3    H236184   2.321   6.103   6.529
12081TIP3   OH236185   2.219   5.908   6.097
12081TIP3    H136186   2.127   5.880   6.116
12081TIP3    H236187   2.232   5.867   6.008
12082TIP3   OH236188   2.711   5.993   5.826
12082TIP3    H136189   2.661   6.064   5.781
12082TIP3    H236190   2.767   5.959   5.753
12083TIP3   OH236191   2.886   6.269   6.909
12083TIP3    H136192   2.865   6.196   6.971
12083TIP3    H236193   2.980   6.283   6.930
12084TIP3   OH236194   2.866   6.019   6.062
12084TIP3    H136195   2.804   6.046   5.991
12084TIP3    H236196   2.903   5.939   6.018
12085TIP3   OH236197   2.158   6.050   6.789
12085TIP3    H136198   2.182   6.117   6.854
12085TIP3    H236199   2.146   5.971   6.845
12086TIP3   OH236200   2.205   5.528   5.500
12086TIP3    H136201   2.197   5.526   5.598
12086TIP3    H236202   2.126   5.580   5.476
12087TIP3   OH236203   1.745   5.568   6.377
12087TIP3    H136204   1.823   5.601   6.426
12087TIP3    H236205   1.782   5.539   6.292
12088TIP3   OH236206   1.718   5.551   5.891
12088TIP3    H136207   1.764   5.587   5.813
12088TIP3    H236208   1.657   5.625   5.909
12089TIP3   OH236209   2.875   6.265   6.484
12089TIP3    H136210   2.910   6.194   6.425
12089TIP3    H236211   2.846   6.211   6.560
12090TIP3   OH236212   2.552   5.731   6.157
12090TIP3    H136213   2.472   5.728   6.213
12090TIP3    H236214   2.623   5.721   6.223
12091TIP3   OH236215   1.982   5.786   6.165
12091TIP3    H136216   1.888   5.792   6.136
12091TIP3    H236217   2.005   5.694   6.142
12092TIP3   OH236218   2.247   5.781   5.856
12092TIP3    H136219   2.341   5.794   5.835
12092TIP3    H236220   2.202   5.803   5.771
12093TIP3   OH236221   3.040   5.807   6.363
12093TIP3    H136222   3.005   5.819   6.454
12093TIP3    H236223   2.975   5.745   6.326
12094TIP3   OH236224   2.095   5.819   5.631
12094TIP3    H136225   2.025   5.771   5.583
12094TIP3    H236226   2.147   5.855   5.556
12095TIP3   OH236227   3.213   7.495   6.580
12095TIP3    H136228   3.212   7.518   6.486
12095TIP3    H236229   3.294   7.540   6.611
12096TIP3   OH236230   2.173   6.600   6.996
12096TIP3    H136231   2.250   6.631   7.047
12096TIP3    H236232   2.102   6.604   7.064
12097TIP3   OH236233   2.630   6.059   6.254
12097TIP3    H136234   2.703   6.020   6.204
12097TIP3    H236235   2.637   6.014   6.340
12098TIP3   OH236236   2.150   5.544   6.137
12098TIP3    H136237   2.114   5.467   6.186
12098TIP3    H236238   2.198   5.501   6.065
12099TIP3   OH236239   2.607   5.956   6.545
12099TIP3    H136240   2.517   5.992   6.559
12099TIP3    H236241   2.664   6.018   6.594
12100TIP3   OH236242   2.340   6.345   5.637
12100TIP3    H136243   2.269   6.279   5.627
12100TIP3    H236244   2.322   6.379   5.728
12101TIP3   OH236245   3.242   6.582   6.266
12101TIP3    H136246   3.267   6.632   6.185
12101TIP3    H236247   3.158   6.539   6.239
12102TIP3   OH236248   2.801   5.655   5.506
12102TIP3    H136249   2.704   5.636   5.514
12102TIP3    H236250   2.808   5.749   5.531
12103TIP3   OH236251   2.741   6.663   6.636
12103TIP3    H136252   2.775   6.645   6.725
12103TIP3    H236253   2.704   6.752   6.645
12104TIP3   OH236254   2.869   5.906   5.608
12104TIP3    H136255   2.966   5.910   5.623
12104TIP3    H236256   2.852   5.986   5.555
12105TIP3   OH236257   2.036   6.370   6.312
12105TIP3    H136258   2.077   6.339   6.229
12105TIP3    H236259   2.077   6.310   6.377
12106TIP3   OH236260   2.489   6.494   5.462
12106TIP3    H136261   2.440   6.579   5.466
12106TIP3    H236262   2.435   6.439   5.523
12107TIP3   OH236263   1.922   6.276   6.925
12107TIP3    H136264   1.928   6.280   7.022
12107TIP3    H236265   1.837   6.232   6.912
12108TIP3   OH236266   2.646   6.403   6.950
12108TIP3    H136267   2.585   6.345   6.900
12108TIP3    H236268   2.733   6.368   6.921
12109TIP3   OH236269   2.901   6.927   6.533
12109TIP3    H136270   2.805   6.923   6.547
12109TIP3    H236271   2.929   6.978   6.612
12110TIP3   OH236272   3.309   5.998   5.442
12110TIP3    H136273   3.247   5.954   5.379
12110TIP3    H236274   3.307   6.088   5.402
12111TIP3   OH236275   3.532   6.856   6.520
12111TIP3    H136276   3.434   6.849   6.513
12111TIP3    H236277   3.558   6.825   6.431
12112TIP3   OH236278   3.013   6.815   5.351
12112TIP3    H136279   2.988   6.743   5.411
12112TIP3    H236280   3.027   6.769   5.266
12113TIP3   OH236281   3.008   6.445   6.183
12113TIP3    H136282   2.915   6.420   6.196
12113TIP3    H236283   3.042   6.364   6.140
12114TIP3   OH236284   2.140   6.673   5.941
12114TIP3    H136285   2.137   6.753   5.886
12114TIP3    H236286   2.046   6.654   5.954
12115TIP3   OH236287   1.701   5.975   5.645
12115TIP3    H136288   1.748   6.058   5.668
12115TIP3    H236289   1.626   5.978   5.708
12116TIP3   OH236290   2.270   6.434   5.881
12116TIP3    H136291   2.238   6.524   5.902
12116TIP3    H236292   2.237   6.384   5.958
12117TIP3   OH236293   2.408   7.015   6.408
12117TIP3    H136294   2.452   7.087   6.358
12117TIP3    H236295   2.484   6.976   6.455
12118TIP3   OH236296   2.053   6.913   5.791
12118TIP3    H136297   1.969   6.922   5.840
12118TIP3    H236298   2.086   7.006   5.795
12119TIP3   OH236299   2.793   6.650   6.368
12119TIP3    H136300   2.782   6.647   6.466
12119TIP3    H236301   2.871   6.595   6.356
12120TIP3   OH236302   2.772   6.545   5.253
12120TIP3    H136303   2.826   6.520   5.331
12120TIP3    H236304   2.684   6.514   5.282
12121TIP3   OH236305   3.042   7.182   6.419
12121TIP3    H136306   2.963   7.125   6.414
12121TIP3    H236307   3.025   7.245   6.346
12122TIP3   OH236308   3.108   7.015   5.069
12122TIP3    H136309   3.145   7.088   5.016
12122TIP3    H236310   3.028   7.060   5.104
12123TIP3   OH236311   2.125   5.794   6.936
12123TIP3    H136312   2.028   5.786   6.934
12123TIP3    H236313   2.149   5.728   7.003
12124TIP3   OH236314   2.932   6.479   5.469
12124TIP3    H136315   2.921   6.411   5.538
12124TIP3    H236316   3.029   6.474   5.455
12125TIP3   OH236317   1.845   6.877   6.566
12125TIP3    H136318   1.897   6.803   6.602
12125TIP3    H236319   1.868   6.947   6.628
12126TIP3   OH236320   2.131   6.523   5.252
12126TIP3    H136321   2.148   6.431   5.225
12126TIP3    H236322   2.112   6.511   5.347
12127TIP3   OH236323   2.075   6.528   5.526
12127TIP3    H136324   2.153   6.499   5.576
12127TIP3    H236325   2.082   6.625   5.534
12128TIP3   OH236326   1.812   6.218   5.728
12128TIP3    H136327   1.747   6.264   5.785
12128TIP3    H236328   1.829   6.287   5.661
12129TIP3   OH236329   2.964   5.860   6.623
12129TIP3    H136330   3.048   5.897   6.655
12129TIP3    H236331   2.954   5.778   6.676
12130TIP3   OH236332   2.846   5.606   5.788
12130TIP3    H136333   2.834   5.628   5.693
12130TIP3    H236334   2.886   5.688   5.823
12131TIP3   OH236335   2.345   6.722   5.471
12131TIP3    H136336   2.259   6.750   5.508
12131TIP3    H236337   2.362   6.796   5.410
12132TIP3   OH236338   2.530   5.791   5.887
12132TIP3    H136339   2.595   5.862   5.870
12132TIP3    H236340   2.538   5.781   5.984
12133TIP3   OH236341   2.804   6.104   6.692
12133TIP3    H136342   2.831   6.154   6.771
12133TIP3    H236343   2.858   6.023   6.699
12134TIP3   OH236344   2.676   5.510   5.986
12134TIP3    H136345   2.673   5.586   6.046
12134TIP3    H236346   2.738   5.544   5.918
12135TIP3   OH236347   2.091   6.801   5.541
12135TIP3    H136348   2.062   6.872   5.479
12135TIP3    H236349   2.075   6.844   5.628
12136TIP3   OH236350   2.190   5.515   5.777
12136TIP3    H136351   2.189   5.605   5.816
12136TIP3    H236352   2.286   5.496   5.784
12137TIP3   OH236353   3.442   6.008   6.676
12137TIP3    H136354   3.344   6.005   6.681
12137TIP3    H236355   3.456   5.962   6.592
12138TIP3   OH236356   3.094   6.202   6.063
12138TIP3    H136357   3.019   6.141   6.074
12138TIP3    H236358   3.166   6.155   6.110
12139TIP3   OH236359   1.808   6.427   5.530
12139TIP3    H136360   1.882   6.490   5.540
12139TIP3    H236361   1.850   6.367   5.464
12140TIP3   OH236362   1.750   5.705   5.668
12140TIP3    H136363   1.749   5.802   5.663
12140TIP3    H236364   1.672   5.681   5.616
12141TIP3   OH236365   3.063   7.160   6.010
12141TIP3    H136366   3.021   7.208   5.935
12141TIP3    H236367   3.158   7.179   5.990
12142TIP3   OH236368   2.138   5.425   6.537
12142TIP3    H136369   2.109   5.391   6.450
12142TIP3    H236370   2.128   5.346   6.594
12143TIP3   OH236371   1.679   6.640   5.916
12143TIP3    H136372   1.622   6.676   5.986
12143TIP3    H236373   1.644   6.686   5.836
12144TIP3   OH236374   1.836   7.170   6.986
12144TIP3    H136375   1.925   7.168   7.027
12144TIP3    H236376   1.813   7.076   6.984
12145TIP3   OH236377   2.323   7.146   7.033
12145TIP3    H136378   2.415   7.117   7.039
12145TIP3    H236379   2.291   7.088   6.960
12146TIP3   OH236380   2.297   6.725   5.162
12146TIP3    H136381   2.243   6.652   5.200
12146TIP3    H236382   2.373   6.675   5.128
12147TIP3   OH236383   2.953   7.058   6.771
12147TIP3    H136384   2.946   6.988   6.839
12147TIP3    H236385   3.032   7.108   6.800
12148TIP3   OH236386   2.732   6.764   5.076
12148TIP3    H136387   2.774   6.700   5.135
12148TIP3    H236388   2.789   6.761   4.996
12149TIP3   OH236389   1.962   6.604   7.174
12149TIP3    H136390   1.946   6.522   7.223
12149TIP3    H236391   1.876   6.613   7.128
12150TIP3   OH236392   1.942   6.239   5.388
12150TIP3    H136393   2.000   6.207   5.460
12150TIP3    H236394   2.009   6.245   5.315
12151TIP3   OH236395   2.570   6.679   6.966
12151TIP3    H136396   2.532   6.699   6.878
12151TIP3    H236397   2.603   6.587   6.955
12152TIP3   OH236398   2.454   6.441   5.193
12152TIP3    H136399   2.459   6.453   5.290
12152TIP3    H236400   2.458   6.343   5.187
12153TIP3   OH236401   3.065   6.691   6.572
12153TIP3    H136402   3.142   6.732   6.528
12153TIP3    H236403   2.997   6.759   6.554
12154TIP3   OH236404   2.075   6.276   7.191
12154TIP3    H136405   2.154   6.286   7.135
12154TIP3    H236406   2.094   6.339   7.263
12155TIP3   OH236407   2.146   6.148   5.603
12155TIP3    H136408   2.124   6.105   5.688
12155TIP3    H236409   2.187   6.074   5.553
12156TIP3   OH236410   2.422   6.210   6.837
12156TIP3    H136411   2.343   6.269   6.836
12156TIP3    H236412   2.472   6.245   6.759
12157TIP3   OH236413   2.253   5.944   5.446
12157TIP3    H136414   2.229   5.949   5.351
12157TIP3    H236415   2.351   5.945   5.439
12158TIP3   OH236416   2.938   6.613   6.967
12158TIP3    H136417   3.017   6.585   6.919
12158TIP3    H236418   2.933   6.548   7.039
12159TIP3   OH236419   3.070   6.270   5.114
12159TIP3    H136420   3.052   6.226   5.028
12159TIP3    H236421   3.037   6.360   5.091
12160TIP3   OH236422   2.541   6.000   6.962
12160TIP3    H136423   2.544   5.922   6.903
12160TIP3    H236424   2.499   6.068   6.904
12161TIP3   OH236425   2.546   5.789   6.770
12161TIP3    H136426   2.576   5.829   6.686
12161TIP3    H236427   2.453   5.765   6.749
12162TIP3   OH236428   2.570   6.322   6.644
12162TIP3    H136429   2.656   6.331   6.600
12162TIP3    H236430   2.515   6.387   6.596
12163TIP3   OH236431   3.153   6.288   7.021
12163TIP3    H136432   3.200   6.203   7.030
12163TIP3    H236433   3.223   6.345   6.984
12164TIP3   OH236434   3.195   6.543   6.757
12164TIP3    H136435   3.138   6.598   6.699
12164TIP3    H236436   3.283   6.563   6.719
12165TIP3   OH236437   2.419   6.106   7.196
12165TIP3    H136438   2.348   6.038   7.205
12165TIP3    H236439   2.453   6.086   7.107
12166TIP3   OH236440   2.678   5.550   6.838
12166TIP3    H136441   2.628   5.631   6.814
12166TIP3    H236442   2.611   5.480   6.825
12167TIP3   OH236443   2.804   6.052   7.052
12167TIP3    H136444   2.792   6.037   7.148
12167TIP3    H236445   2.714   6.028   7.021
12168TIP3   OH236446   3.043   6.006   6.908
12168TIP3    H136447   2.969   6.004   6.971
12168TIP3    H236448   3.118   5.975   6.962
12169TIP3   OH236449   3.269   5.944   7.057
12169TIP3    H136450   3.285   5.848   7.072
12169TIP3    H236451   3.268   5.980   7.148
12170TIP3   OH236452   2.240   5.897   7.255
12170TIP3    H136453   2.249   5.810   7.211
12170TIP3    H236454   2.288   5.880   7.338
12171TIP3   OH236455   2.769   5.559   7.097
12171TIP3    H136456   2.837   5.488   7.091
12171TIP3    H236457   2.732   5.554   7.007
12172TIP3   OH236458   2.838   5.773   7.254
12172TIP3    H136459   2.818   5.701   7.190
12172TIP3    H236460   2.760   5.831   7.245
12173TIP3   OH236461   2.062   7.005   5.354
12173TIP3    H136462   2.157   6.995   5.335
12173TIP3    H236463   2.035   7.055   5.274
12174TIP3   OH236464   1.539   6.385   5.566
12174TIP3    H136465   1.633   6.407   5.551
12174TIP3    H236466   1.534   6.295   5.526
12175TIP3   OH236467   1.453   6.995   5.989
12175TIP3    H136468   1.391   6.930   5.950
12175TIP3    H236469   1.500   6.938   6.055
12176TIP3   OH236470   1.589   6.844   6.170
12176TIP3    H136471   1.588   6.775   6.240
12176TIP3    H236472   1.640   6.911   6.219
12177TIP3   OH236473   3.317   7.251   5.970
12177TIP3    H136474   3.346   7.279   6.059
12177TIP3    H236475   3.387   7.287   5.913
12178TIP3   OH236476   3.347   7.267   6.253
12178TIP3    H136477   3.301   7.181   6.248
12178TIP3    H236478   3.422   7.243   6.310
12179TIP3   OH236479   3.391   6.945   6.825
12179TIP3    H136480   3.320   6.955   6.891
12179TIP3    H236481   3.435   7.033   6.830
12180TIP3   OH236482   3.209   6.458   5.444
12180TIP3    H136483   3.276   6.522   5.413
12180TIP3    H236484   3.254   6.420   5.523
12181TIP3   OH236485   3.337   6.326   5.649
12181TIP3    H136486   3.271   6.284   5.708
12181TIP3    H236487   3.403   6.360   5.711
12182TIP3   OH236488   3.392   6.718   6.078
12182TIP3    H136489   3.446   6.650   6.034
12182TIP3    H236490   3.389   6.789   6.011
12183TIP3   OH236491   3.221   7.019   6.273
12183TIP3    H136492   3.148   7.058   6.325
12183TIP3    H236493   3.172   6.971   6.202
12184TIP3   OH236494   3.274   6.234   5.294
12184TIP3    H136495   3.202   6.235   5.226
12184TIP3    H236496   3.246   6.309   5.349
12185TIP3   OH236497   3.143   5.907   5.248
12185TIP3    H136498   3.102   5.940   5.167
12185TIP3    H236499   3.121   5.811   5.242
12186TIP3   OH236500   3.148   6.183   5.793
12186TIP3    H136501   3.158   6.087   5.785
12186TIP3    H236502   3.135   6.195   5.890
12187TIP3   OH236503   1.774   6.256   6.532
12187TIP3    H136504   1.775   6.222   6.441
12187TIP3    H236505   1.870   6.256   6.554
12188TIP3   OH236506   3.441   6.608   6.651
12188TIP3    H136507   3.511   6.540   6.642
12188TIP3    H236508   3.467   6.675   6.587
12189TIP3   OH236509   3.623   6.409   6.663
12189TIP3    H136510   3.548   6.358   6.703
12189TIP3    H236511   3.696   6.346   6.680
12190TIP3   OH236512   3.088   5.641   5.232
12190TIP3    H136513   3.163   5.609   5.286
12190TIP3    H236514   3.016   5.580   5.254
12191TIP3   OH236515   3.147   5.899   5.685
12191TIP3    H136516   3.188   5.810   5.701
12191TIP3    H236517   3.206   5.931   5.614
12192TIP3   OH236518   3.306   6.071   6.183
12192TIP3    H136519   3.392   6.095   6.141
12192TIP3    H236520   3.323   6.107   6.272
12193TIP3   OH236521   3.379   6.216   6.414
12193TIP3    H136522   3.301   6.251   6.462
12193TIP3    H236523   3.412   6.297   6.369
12194TIP3   OH236524   1.945   5.934   7.257
12194TIP3    H136525   2.031   5.983   7.242
12194TIP3    H236526   1.981   5.847   7.275
12195TIP3   OH236527   3.827   5.808   6.969
12195TIP3    H136528   3.889   5.743   6.929
12195TIP3    H236529   3.799   5.861   6.891
12196TIP3   OH236530   3.254   5.650   5.726
12196TIP3    H136531   3.304   5.633   5.809
12196TIP3    H236532   3.195   5.572   5.725
12197TIP3   OH236533   1.955   5.633   6.550
12197TIP3    H136534   2.018   5.558   6.555
12197TIP3    H236535   2.018   5.708   6.539
12198TIP3   OH236536   1.758   5.906   6.624
12198TIP3    H136537   1.810   5.908   6.541
12198TIP3    H236538   1.767   5.996   6.657
12199TIP3   OH236539   3.697   5.945   6.772
12199TIP3    H136540   3.610   5.986   6.789
12199TIP3    H236541   3.669   5.870   6.716
12200TIP3   OH236542   3.333   5.581   5.359
12200TIP3    H136543   3.374   5.510   5.306
12200TIP3    H236544   3.401   5.651   5.357
12201TIP3   OH236545   1.743   5.419   6.125
12201TIP3    H136546   1.649   5.408   6.145
12201TIP3    H236547   1.740   5.473   6.043
12202TIP3   OH236548   2.899   7.118   5.625
12202TIP3    H136549   2.950   7.104   5.543
12202TIP3    H236550   2.956   7.180   5.674
12203TIP3   OH236551   1.965   5.505   6.941
12203TIP3    H136552   1.904   5.482   7.013
12203TIP3    H236553   1.901   5.533   6.872
12204TIP3   OH236554   2.003   6.918   7.009
12204TIP3    H136555   1.911   6.892   6.989
12204TIP3    H236556   2.010   6.893   7.102
12205TIP3   OH236557   2.183   6.954   6.559
12205TIP3    H136558   2.134   7.030   6.520
12205TIP3    H236559   2.268   6.969   6.514
12206TIP3   OH236560   2.623   7.195   6.695
12206TIP3    H136561   2.666   7.194   6.784
12206TIP3    H236562   2.689   7.247   6.644
12207TIP3   OH236563   2.802   7.350   6.556
12207TIP3    H136564   2.871   7.298   6.513
12207TIP3    H236565   2.856   7.405   6.617
12208TIP3   OH236566   3.598   5.706   6.656
12208TIP3    H136567   3.508   5.694   6.620
12208TIP3    H236568   3.634   5.615   6.646
12209TIP3   OH236569   1.856   7.212   6.581
12209TIP3    H136570   1.767   7.245   6.559
12209TIP3    H236571   1.870   7.254   6.667
12210TIP3   OH236572   2.093   7.189   6.442
12210TIP3    H136573   2.006   7.200   6.486
12210TIP3    H236574   2.073   7.219   6.351
12211TIP3   OH236575   2.518   7.214   6.239
12211TIP3    H136576   2.448   7.233   6.173
12211TIP3    H236577   2.529   7.302   6.281
12212TIP3   OH236578   2.787   7.154   6.293
12212TIP3    H136579   2.694   7.172   6.271
12212TIP3    H236580   2.832   7.227   6.246
12213TIP3   OH236581   2.992   7.345   6.203
12213TIP3    H136582   2.979   7.429   6.155
12213TIP3    H236583   3.020   7.284   6.131
12214TIP3   OH236584   1.767   7.003   6.327
12214TIP3    H136585   1.793   6.972   6.417
12214TIP3    H236586   1.838   6.957   6.276
12215TIP3   OH236587   1.963   6.875   6.185
12215TIP3    H136588   1.976   6.791   6.235
12215TIP3    H236589   2.054   6.909   6.183
12216TIP3   OH236590   2.231   6.966   6.190
12216TIP3    H136591   2.260   6.874   6.180
12216TIP3    H236592   2.278   6.988   6.273
12217TIP3   OH236593   2.799   5.622   6.272
12217TIP3    H136594   2.760   5.550   6.324
12217TIP3    H236595   2.876   5.578   6.230
12218TIP3   OH236596   3.322   5.507   6.179
12218TIP3    H136597   3.360   5.556   6.103
12218TIP3    H236598   3.227   5.525   6.170
12219TIP3   OH236599   3.419   5.604   5.943
12219TIP3    H136600   3.493   5.551   5.905
12219TIP3    H236601   3.455   5.694   5.928
12220TIP3   OH236602   2.051   5.332   6.290
12220TIP3    H136603   1.958   5.300   6.292
12220TIP3    H236604   2.099   5.246   6.285
12221TIP3   OH236605   1.846   5.204   5.943
12221TIP3    H136606   1.870   5.258   5.867
12221TIP3    H236607   1.816   5.270   6.008
12222TIP3   OH236608   2.497   5.365   6.172
12222TIP3    H136609   2.553   5.411   6.108
12222TIP3    H236610   2.528   5.402   6.256
12223TIP3   OH236611   3.036   5.512   6.154
12223TIP3    H136612   3.044   5.470   6.067
12223TIP3    H236613   3.027   5.433   6.213
12224TIP3   OH236614   3.072   5.436   5.717
12224TIP3    H136615   2.985   5.478   5.733
12224TIP3    H236616   3.059   5.350   5.763
12225TIP3   OH236617   1.553   6.776   5.721
12225TIP3    H136618   1.470   6.747   5.678
12225TIP3    H236619   1.548   6.871   5.705
12226TIP3   OH236620   1.958   5.363   5.699
12226TIP3    H136621   2.005   5.298   5.643
12226TIP3    H236622   2.033   5.415   5.735
12227TIP3   OH236623   2.467   5.540   5.800
12227TIP3    H136624   2.527   5.492   5.859
12227TIP3    H236625   2.490   5.632   5.825
12228TIP3   OH236626   2.328   6.960   5.300
12228TIP3    H136627   2.416   6.982   5.264
12228TIP3    H236628   2.306   6.885   5.240
12229TIP3   OH236629   3.047   7.081   5.395
12229TIP3    H136630   3.039   6.984   5.384
12229TIP3    H236631   3.002   7.112   5.313
12230TIP3   OH236632   2.253   5.613   7.189
12230TIP3    H136633   2.226   5.536   7.242
12230TIP3    H236634   2.348   5.617   7.212
12231TIP3   OH236635   2.508   5.613   7.300
12231TIP3    H136636   2.592   5.590   7.257
12231TIP3    H236637   2.499   5.541   7.365
12232TIP3   OH236638   1.630   6.795   5.354
12232TIP3    H136639   1.647   6.818   5.446
12232TIP3    H236640   1.716   6.754   5.329
12233TIP3   OH236641   3.336   5.675   7.087
12233TIP3    H136642   3.355   5.642   7.178
12233TIP3    H236643   3.425   5.669   7.046
12234TIP3   OH236644   3.271   7.225   6.580
12234TIP3    H136645   3.192   7.194   6.530
12234TIP3    H236646   3.251   7.321   6.586
12235TIP3   OH236647   4.541   6.600   5.342
12235TIP3    H136648   4.509   6.690   5.321
12235TIP3    H236649   4.465   6.547   5.312
12236TIP3   OH236650   4.537   6.598   5.733
12236TIP3    H136651   4.574   6.573   5.820
12236TIP3    H236652   4.498   6.514   5.703
12237TIP3   OH236653   3.834   6.491   6.096
12237TIP3    H136654   3.864   6.421   6.158
12237TIP3    H236655   3.917   6.538   6.081
12238TIP3   OH236656   4.783   6.905   5.410
12238TIP3    H136657   4.767   6.832   5.471
12238TIP3    H236658   4.815   6.976   5.469
12239TIP3   OH236659   3.809   6.903   5.815
12239TIP3    H136660   3.801   6.805   5.815
12239TIP3    H236661   3.906   6.912   5.810
12240TIP3   OH236662   3.515   6.103   5.598
12240TIP3    H136663   3.468   6.186   5.615
12240TIP3    H236664   3.444   6.050   5.557
12241TIP3   OH236665   3.573   6.391   5.778
12241TIP3    H136666   3.622   6.312   5.812
12241TIP3    H236667   3.634   6.424   5.711
12242TIP3   OH236668   4.436   7.365   5.430
12242TIP3    H136669   4.475   7.292   5.378
12242TIP3    H236670   4.425   7.322   5.516
12243TIP3   OH236671   4.337   6.825   5.776
12243TIP3    H136672   4.376   6.746   5.735
12243TIP3    H236673   4.420   6.871   5.800
12244TIP3   OH236674   5.354   6.143   5.774
12244TIP3    H136675   5.383   6.226   5.816
12244TIP3    H236676   5.375   6.161   5.680
12245TIP3   OH236677   4.753   6.326   5.805
12245TIP3    H136678   4.791   6.239   5.827
12245TIP3    H236679   4.717   6.307   5.716
12246TIP3   OH236680   4.086   5.985   5.772
12246TIP3    H136681   4.070   6.056   5.707
12246TIP3    H236682   4.041   5.910   5.728
12247TIP3   OH236683   4.785   6.076   5.392
12247TIP3    H136684   4.855   6.060   5.459
12247TIP3    H236685   4.839   6.111   5.318
12248TIP3   OH236686   3.722   6.185   5.879
12248TIP3    H136687   3.805   6.166   5.927
12248TIP3    H236688   3.736   6.130   5.799
12249TIP3   OH236689   4.160   6.383   5.679
12249TIP3    H136690   4.255   6.360   5.690
12249TIP3    H236691   4.123   6.299   5.645
12250TIP3   OH236692   5.427   6.353   5.943
12250TIP3    H136693   5.341   6.397   5.925
12250TIP3    H236694   5.443   6.382   6.034
12251TIP3   OH236695   4.083   5.975   6.211
12251TIP3    H136696   4.023   6.008   6.141
12251TIP3    H236697   4.030   5.992   6.291
12252TIP3   OH236698   4.429   6.820   5.213
12252TIP3    H136699   4.387   6.801   5.128
12252TIP3    H236700   4.381   6.901   5.240
12253TIP3   OH236701   4.191   6.743   5.998
12253TIP3    H136702   4.131   6.811   6.035
12253TIP3    H236703   4.235   6.792   5.925
12254TIP3   OH236704   4.989   6.080   5.570
12254TIP3    H136705   4.974   6.034   5.654
12254TIP3    H236706   5.040   6.158   5.598
12255TIP3   OH236707   3.955   6.083   5.991
12255TIP3    H136708   4.019   6.153   6.015
12255TIP3    H236709   4.004   6.041   5.916
12256TIP3   OH236710   4.020   6.940   6.100
12256TIP3    H136711   3.994   7.027   6.064
12256TIP3    H236712   3.941   6.921   6.155
12257TIP3   OH236713   3.410   6.628   5.335
12257TIP3    H136714   3.371   6.656   5.249
12257TIP3    H236715   3.444   6.713   5.370
12258TIP3   OH236716   4.850   7.145   5.574
12258TIP3    H136717   4.760   7.135   5.614
12258TIP3    H236718   4.841   7.233   5.532
12259TIP3   OH236719   5.145   6.044   5.940
12259TIP3    H136720   5.057   6.069   5.908
12259TIP3    H236721   5.204   6.076   5.869
12260TIP3   OH236722   4.545   7.188   5.250
12260TIP3    H136723   4.597   7.106   5.233
12260TIP3    H236724   4.604   7.254   5.207
12261TIP3   OH236725   4.698   6.981   5.159
12261TIP3    H136726   4.662   6.900   5.119
12261TIP3    H236727   4.734   6.945   5.243
12262TIP3   OH236728   5.077   7.054   5.919
12262TIP3    H136729   5.065   6.976   5.860
12262TIP3    H236730   5.061   7.129   5.858
12263TIP3   OH236731   4.370   6.450   5.178
12263TIP3    H136732   4.290   6.502   5.156
12263TIP3    H236733   4.416   6.446   5.092
12264TIP3   OH236734   4.327   6.237   4.889
12264TIP3    H136735   4.395   6.287   4.938
12264TIP3    H236736   4.385   6.173   4.843
12265TIP3   OH236737   5.273   6.695   5.765
12265TIP3    H136738   5.189   6.745   5.770
12265TIP3    H236739   5.303   6.718   5.675
12266TIP3   OH236740   4.719   6.533   5.146
12266TIP3    H136741   4.664   6.556   5.225
12266TIP3    H236742   4.803   6.507   5.190
12267TIP3   OH236743   4.951   6.570   6.063
12267TIP3    H136744   4.948   6.653   6.114
12267TIP3    H236745   4.865   6.573   6.018
12268TIP3   OH236746   3.951   6.529   5.566
12268TIP3    H136747   3.909   6.470   5.500
12268TIP3    H236748   4.026   6.474   5.598
12269TIP3   OH236749   4.081   6.943   5.712
12269TIP3    H136750   4.060   6.904   5.626
12269TIP3    H236751   4.169   6.906   5.731
12270TIP3   OH236752   4.079   6.502   5.921
12270TIP3    H136753   4.115   6.473   5.834
12270TIP3    H236754   4.128   6.586   5.937
12271TIP3   OH236755   4.609   7.139   5.697
12271TIP3    H136756   4.599   7.217   5.754
12271TIP3    H236757   4.595   7.064   5.758
12272TIP3   OH236758   4.225   7.058   6.243
12272TIP3    H136759   4.164   7.118   6.290
12272TIP3    H236760   4.161   7.004   6.193
12273TIP3   OH236761   4.555   6.392   4.975
12273TIP3    H136762   4.615   6.451   5.025
12273TIP3    H236763   4.582   6.413   4.882
12274TIP3   OH236764   3.981   6.614   6.349
12274TIP3    H136765   3.983   6.702   6.392
12274TIP3    H236766   3.886   6.592   6.358
12275TIP3   OH236767   4.300   7.067   5.250
12275TIP3    H136768   4.382   7.118   5.261
12275TIP3    H236769   4.241   7.129   5.206
12276TIP3   OH236770   4.017   7.223   6.331
12276TIP3    H136771   3.982   7.224   6.240
12276TIP3    H236772   3.937   7.202   6.384
12277TIP3   OH236773   5.073   5.628   5.024
12277TIP3    H136774   4.991   5.649   5.074
12277TIP3    H236775   5.087   5.711   4.975
12278TIP3   OH236776   3.816   6.374   5.370
12278TIP3    H136777   3.746   6.414   5.315
12278TIP3    H236778   3.784   6.284   5.382
12279TIP3   OH236779   4.876   6.993   4.578
12279TIP3    H136780   4.878   7.070   4.520
12279TIP3    H236781   4.968   6.959   4.569
12280TIP3   OH236782   3.596   6.757   6.278
12280TIP3    H136783   3.531   6.733   6.209
12280TIP3    H236784   3.635   6.670   6.302
12281TIP3   OH236785   3.452   6.950   5.907
12281TIP3    H136786   3.548   6.938   5.898
12281TIP3    H236787   3.447   7.025   5.967
12282TIP3   OH236788   5.317   7.402   5.969
12282TIP3    H136789   5.315   7.305   5.984
12282TIP3    H236790   5.233   7.427   6.013
12283TIP3   OH236791   4.419   7.187   6.100
12283TIP3    H136792   4.417   7.279   6.134
12283TIP3    H236793   4.349   7.146   6.154
12284TIP3   OH236794   4.184   7.314   5.053
12284TIP3    H136795   4.137   7.294   4.970
12284TIP3    H236796   4.149   7.402   5.077
12285TIP3   OH236797   3.621   7.163   5.439
12285TIP3    H136798   3.667   7.153   5.525
12285TIP3    H236799   3.571   7.079   5.436
12286TIP3   OH236800   4.383   7.217   4.691
12286TIP3    H136801   4.441   7.146   4.655
12286TIP3    H236802   4.417   7.226   4.782
12287TIP3   OH236803   4.432   7.260   4.960
12287TIP3    H136804   4.344   7.274   5.000
12287TIP3    H236805   4.478   7.214   5.032
12288TIP3   OH236806   5.204   6.529   6.241
12288TIP3    H136807   5.120   6.538   6.192
12288TIP3    H236808   5.221   6.433   6.233
12289TIP3   OH236809   3.800   6.940   6.264
12289TIP3    H136810   3.851   6.923   6.346
12289TIP3    H236811   3.727   6.876   6.271
12290TIP3   OH236812   4.184   5.760   6.065
12290TIP3    H136813   4.097   5.733   6.031
12290TIP3    H236814   4.162   5.844   6.108
12291TIP3   OH236815   4.739   5.896   6.256
12291TIP3    H136816   4.804   5.846   6.310
12291TIP3    H236817   4.655   5.852   6.278
12292TIP3   OH236818   4.975   6.309   6.166
12292TIP3    H136819   4.922   6.305   6.249
12292TIP3    H236820   4.948   6.394   6.127
12293TIP3   OH236821   4.634   6.435   4.720
12293TIP3    H136822   4.598   6.411   4.632
12293TIP3    H236823   4.719   6.476   4.695
12294TIP3   OH236824   4.345   5.810   5.023
12294TIP3    H136825   4.313   5.806   5.115
12294TIP3    H236826   4.306   5.728   4.989
12295TIP3   OH236827   4.132   6.279   6.070
12295TIP3    H136828   4.082   6.300   6.152
12295TIP3    H236829   4.115   6.360   6.017
12296TIP3   OH236830   4.015   6.167   5.582
12296TIP3    H136831   3.923   6.137   5.602
12296TIP3    H236832   4.028   6.124   5.495
12297TIP3   OH236833   4.508   6.250   5.313
12297TIP3    H136834   4.457   6.321   5.269
12297TIP3    H236835   4.562   6.215   5.240
12298TIP3   OH236836   4.682   6.527   6.398
12298TIP3    H136837   4.660   6.453   6.459
12298TIP3    H236838   4.777   6.538   6.419
12299TIP3   OH236839   4.665   6.277   5.547
12299TIP3    H136840   4.601   6.302   5.478
12299TIP3    H236841   4.700   6.196   5.505
12300TIP3   OH236842   3.950   6.306   6.279
12300TIP3    H136843   3.989   6.366   6.344
12300TIP3    H236844   3.940   6.223   6.329
12301TIP3   OH236845   4.001   5.785   4.986
12301TIP3    H136846   3.994   5.783   5.084
12301TIP3    H236847   3.923   5.838   4.963
12302TIP3   OH236848   3.545   5.826   5.859
12302TIP3    H136849   3.619   5.861   5.914
12302TIP3    H236850   3.589   5.796   5.779
12303TIP3   OH236851   3.510   5.807   5.377
12303TIP3    H136852   3.558   5.843   5.300
12303TIP3    H236853   3.451   5.882   5.396
12304TIP3   OH236854   4.674   6.522   5.970
12304TIP3    H136855   4.708   6.451   5.911
12304TIP3    H236856   4.644   6.468   6.046
12305TIP3   OH236857   4.349   5.995   5.646
12305TIP3    H136858   4.271   5.985   5.704
12305TIP3    H236859   4.422   5.969   5.706
12306TIP3   OH236860   3.779   6.042   5.651
12306TIP3    H136861   3.684   6.047   5.622
12306TIP3    H236862   3.804   5.950   5.629
12307TIP3   OH236863   4.043   6.037   5.343
12307TIP3    H136864   4.138   6.050   5.324
12307TIP3    H236865   3.999   6.059   5.258
12308TIP3   OH236866   4.834   6.061   5.848
12308TIP3    H136867   4.802   6.075   5.940
12308TIP3    H236868   4.769   5.997   5.817
12309TIP3   OH236869   3.891   6.075   5.118
12309TIP3    H136870   3.821   6.028   5.069
12309TIP3    H236871   3.944   6.111   5.043
12310TIP3   OH236872   5.007   7.750   6.067
12310TIP3    H136873   5.006   7.772   5.972
12310TIP3    H236874   5.090   7.794   6.095
12311TIP3   OH236875   3.963   6.864   6.486
12311TIP3    H136876   4.043   6.891   6.534
12311TIP3    H236877   3.899   6.859   6.560
12312TIP3   OH236878   4.425   6.319   5.745
12312TIP3    H136879   4.492   6.269   5.696
12312TIP3    H236880   4.425   6.273   5.831
12313TIP3   OH236881   3.945   5.802   5.623
12313TIP3    H136882   3.910   5.725   5.673
12313TIP3    H236883   4.007   5.759   5.562
12314TIP3   OH236884   4.403   6.221   6.020
12314TIP3    H136885   4.312   6.249   6.044
12314TIP3    H236886   4.459   6.276   6.078
12315TIP3   OH236887   4.137   6.602   5.124
12315TIP3    H136888   4.066   6.535   5.114
12315TIP3    H236889   4.118   6.635   5.216
12316TIP3   OH236890   5.038   6.839   5.752
12316TIP3    H136891   5.062   6.889   5.671
12316TIP3    H236892   4.955   6.795   5.726
12317TIP3   OH236893   4.596   5.914   4.988
12317TIP3    H136894   4.500   5.893   5.000
12317TIP3    H236895   4.603   6.007   5.017
12318TIP3   OH236896   4.539   6.921   6.122
12318TIP3    H136897   4.570   6.898   6.211
12318TIP3    H236898   4.500   7.009   6.134
12319TIP3   OH236899   4.665   6.162   5.095
12319TIP3    H136900   4.762   6.167   5.111
12319TIP3    H236901   4.648   6.243   5.043
12320TIP3   OH236902   3.833   6.626   5.799
12320TIP3    H136903   3.871   6.597   5.714
12320TIP3    H236904   3.879   6.568   5.861
12321TIP3   OH236905   4.285   6.751   4.949
12321TIP3    H136906   4.236   6.837   4.953
12321TIP3    H236907   4.230   6.696   5.009
12322TIP3   OH236908   3.714   6.547   6.417
12322TIP3    H136909   3.734   6.531   6.511
12322TIP3    H236910   3.647   6.478   6.399
12323TIP3   OH236911   4.442   6.661   6.434
12323TIP3    H136912   4.381   6.601   6.387
12323TIP3    H236913   4.529   6.624   6.407
12324TIP3   OH236914   4.697   7.186   6.018
12324TIP3    H136915   4.601   7.180   6.033
12324TIP3    H236916   4.725   7.235   6.098
12325TIP3   OH236917   5.106   6.255   4.928
12325TIP3    H136918   5.044   6.211   4.865
12325TIP3    H236919   5.104   6.344   4.888
12326TIP3   OH236920   5.328   7.112   6.008
12326TIP3    H136921   5.230   7.105   6.000
12326TIP3    H236922   5.354   7.081   5.918
12327TIP3   OH236923   4.822   7.093   4.846
12327TIP3    H136924   4.792   7.024   4.907
12327TIP3    H236925   4.833   7.045   4.762
12328TIP3   OH236926   4.805   6.701   5.669
12328TIP3    H136927   4.711   6.676   5.683
12328TIP3    H236928   4.839   6.620   5.626
12329TIP3   OH236929   3.934   6.930   5.429
12329TIP3    H136930   3.931   7.010   5.373
12329TIP3    H236931   3.841   6.908   5.437
12330TIP3   OH236932   3.498   6.231   5.132
12330TIP3    H136933   3.544   6.315   5.154
12330TIP3    H236934   3.422   6.235   5.194
12331TIP3   OH236935   4.066   6.693   5.368
12331TIP3    H136936   4.034   6.782   5.390
12331TIP3    H236937   4.034   6.640   5.444
12332TIP3   OH236938   4.204   7.271   5.896
12332TIP3    H136939   4.249   7.342   5.846
12332TIP3    H236940   4.279   7.232   5.943
12333TIP3   OH236941   3.850   7.169   5.278
12333TIP3    H136942   3.765   7.177   5.326
12333TIP3    H236943   3.882   7.262   5.281
12334TIP3   OH236944   4.590   6.907   5.854
12334TIP3    H136945   4.578   6.905   5.952
12334TIP3    H236946   4.667   6.850   5.843
12335TIP3   OH236947   4.567   6.802   4.739
12335TIP3    H136948   4.621   6.778   4.817
12335TIP3    H236949   4.480   6.770   4.767
12336TIP3   OH236950   4.838   7.438   5.907
12336TIP3    H136951   4.760   7.380   5.902
12336TIP3    H236952   4.820   7.501   5.833
12337TIP3   OH236953   3.921   6.053   6.423
12337TIP3    H136954   3.824   6.050   6.434
12337TIP3    H236955   3.950   5.993   6.494
12338TIP3   OH236956   4.727   6.735   4.954
12338TIP3    H136957   4.717   6.667   5.024
12338TIP3    H236958   4.824   6.730   4.941
12339TIP3   OH236959   3.640   7.132   6.054
12339TIP3    H136960   3.694   7.058   6.086
12339TIP3    H236961   3.669   7.203   6.114
12340TIP3   OH236962   3.929   6.779   4.739
12340TIP3    H136963   3.943   6.687   4.711
12340TIP3    H236964   3.909   6.768   4.834
12341TIP3   OH236965   3.873   6.785   5.011
12341TIP3    H136966   3.949   6.756   5.064
12341TIP3    H236967   3.879   6.882   5.019
12342TIP3   OH236968   3.608   6.475   5.214
12342TIP3    H136969   3.542   6.521   5.270
12342TIP3    H236970   3.623   6.544   5.146
12343TIP3   OH236971   4.761   6.122   6.108
12343TIP3    H136972   4.845   6.152   6.145
12343TIP3    H236973   4.745   6.040   6.161
12344TIP3   OH236974   4.647   5.863   5.272
12344TIP3    H136975   4.633   5.886   5.179
12344TIP3    H236976   4.685   5.945   5.309
12345TIP3   OH236977   4.143   6.981   4.959
12345TIP3    H136978   4.056   7.006   4.995
12345TIP3    H236979   4.157   7.052   4.895
12346TIP3   OH236980   4.325   6.048   5.375
12346TIP3    H136981   4.391   6.119   5.359
12346TIP3    H236982   4.334   6.036   5.473
12347TIP3   OH236983   4.601   6.362   6.178
12347TIP3    H136984   4.628   6.409   6.259
12347TIP3    H236985   4.653   6.279   6.183
12348TIP3   OH236986   4.473   5.766   5.470
12348TIP3    H136987   4.483   5.833   5.540
12348TIP3    H236988   4.535   5.802   5.402
12349TIP3   OH236989   3.889   7.058   5.028
12349TIP3    H136990   3.858   7.127   4.966
12349TIP3    H236991   3.872   7.100   5.115
12350TIP3   OH236992   3.986   5.771   5.261
12350TIP3    H136993   3.984   5.859   5.304
12350TIP3    H236994   4.082   5.752   5.271
12351TIP3   OH236995   5.240   6.262   6.162
12351TIP3    H136996   5.142   6.263   6.171
12351TIP3    H236997   5.249   6.216   6.078
12352TIP3   OH236998   4.891   6.458   5.549
12352TIP3    H136999   4.814   6.399   5.562
12352TIP3    H237000   4.961   6.410   5.598
12353TIP3   OH237001   3.605   6.683   5.017
12353TIP3    H137002   3.677   6.748   5.027
12353TIP3    H237003   3.647   6.624   4.951
12354TIP3   OH237004   3.546   5.961   5.154
12354TIP3    H137005   3.548   6.059   5.150
12354TIP3    H237006   3.466   5.941   5.103
12355TIP3   OH237007   4.860   7.417   5.497
12355TIP3    H137008   4.817   7.462   5.421
12355TIP3    H237009   4.954   7.441   5.480
12356TIP3   OH237010   3.920   5.683   6.026
12356TIP3    H137011   3.900   5.646   5.938
12356TIP3    H237012   3.919   5.603   6.083
12357TIP3   OH237013   3.474   6.904   5.402
12357TIP3    H137014   3.407   6.931   5.467
12357TIP3    H237015   3.440   6.945   5.320
12358TIP3   OH237016   3.634   7.447   6.477
12358TIP3    H137017   3.721   7.448   6.524
12358TIP3    H237018   3.615   7.352   6.475
12359TIP3   OH237019   4.110   7.405   6.520
12359TIP3    H137020   4.204   7.385   6.529
12359TIP3    H237021   4.085   7.343   6.449
12360TIP3   OH237022   4.094   6.981   4.649
12360TIP3    H137023   4.038   6.909   4.687
12360TIP3    H237024   4.169   6.930   4.615
12361TIP3   OH237025   4.750   7.314   6.256
12361TIP3    H137026   4.743   7.244   6.325
12361TIP3    H237027   4.829   7.364   6.286
12362TIP3   OH237028   4.528   7.020   4.564
12362TIP3    H137029   4.568   6.952   4.622
12362TIP3    H237030   4.582   7.013   4.482
12363TIP3   OH237031   3.761   6.850   6.677
12363TIP3    H137032   3.778   6.754   6.685
12363TIP3    H237033   3.675   6.851   6.632
12364TIP3   OH237034   3.740   6.496   4.874
12364TIP3    H137035   3.797   6.465   4.946
12364TIP3    H237036   3.806   6.502   4.801
12365TIP3   OH237037   4.368   6.936   6.452
12365TIP3    H137038   4.329   6.954   6.364
12365TIP3    H237039   4.400   6.843   6.443
12366TIP3   OH237040   4.254   6.698   4.680
12366TIP3    H137041   4.256   6.709   4.777
12366TIP3    H237042   4.255   6.600   4.673
12367TIP3   OH237043   4.861   6.947   6.059
12367TIP3    H137044   4.938   6.989   6.015
12367TIP3    H237045   4.792   7.013   6.041
12368TIP3   OH237046   3.882   6.586   6.660
12368TIP3    H137047   3.959   6.534   6.633
12368TIP3    H237048   3.910   6.618   6.749
12369TIP3   OH237049   3.945   6.405   5.091
12369TIP3    H137050   3.920   6.363   5.175
12369TIP3    H237051   3.983   6.329   5.042
12370TIP3   OH237052   4.213   6.466   6.321
12370TIP3    H137053   4.137   6.528   6.322
12370TIP3    H237054   4.267   6.501   6.246
12371TIP3   OH237055   4.049   6.200   4.932
12371TIP3    H137056   4.025   6.206   4.837
12371TIP3    H237057   4.147   6.202   4.926
12372TIP3   OH237058   4.735   6.871   6.454
12372TIP3    H137059   4.813   6.839   6.406
12372TIP3    H237060   4.728   6.805   6.526
12373TIP3   OH237061   4.867   6.526   4.600
12373TIP3    H137062   4.849   6.481   4.515
12373TIP3    H237063   4.833   6.616   4.578
12374TIP3   OH237064   4.339   6.257   6.447
12374TIP3    H137065   4.342   6.178   6.389
12374TIP3    H237066   4.295   6.323   6.388
12375TIP3   OH237067   4.343   6.048   6.256
12375TIP3    H137068   4.374   6.077   6.168
12375TIP3    H237069   4.251   6.022   6.237
12376TIP3   OH237070   4.365   6.579   6.132
12376TIP3    H137071   4.451   6.583   6.088
12376TIP3    H237072   4.312   6.644   6.082
12377TIP3   OH237073   4.950   6.545   6.508
12377TIP3    H137074   4.993   6.459   6.516
12377TIP3    H237075   5.021   6.599   6.471
12378TIP3   OH237076   4.991   6.800   6.245
12378TIP3    H137077   4.934   6.854   6.186
12378TIP3    H237078   5.079   6.819   6.206
12379TIP3   OH237079   4.217   6.365   6.680
12379TIP3    H137080   4.150   6.295   6.695
12379TIP3    H237081   4.252   6.339   6.591
12380TIP3   OH237082   4.477   5.805   6.325
12380TIP3    H137083   4.428   5.886   6.298
12380TIP3    H237084   4.409   5.736   6.309
12381TIP3   OH237085   4.599   6.309   6.539
12381TIP3    H137086   4.585   6.293   6.634
12381TIP3    H237087   4.510   6.284   6.505
12382TIP3   OH237088   4.842   6.267   6.396
12382TIP3    H137089   4.765   6.260   6.456
12382TIP3    H237090   4.915   6.231   6.450
12383TIP3   OH237091   5.071   6.202   6.543
12383TIP3    H137092   5.083   6.106   6.558
12383TIP3    H237093   5.066   6.238   6.634
12384TIP3   OH237094   4.056   6.146   6.735
12384TIP3    H137095   4.060   6.054   6.700
12384TIP3    H237096   4.095   6.133   6.824
12385TIP3   OH237097   4.565   5.814   6.584
12385TIP3    H137098   4.632   5.743   6.576
12385TIP3    H237099   4.529   5.814   6.493
12386TIP3   OH237100   4.635   6.030   6.740
12386TIP3    H137101   4.615   5.958   6.676
12386TIP3    H237102   4.556   6.087   6.732
12387TIP3   OH237103   3.858   7.263   4.842
12387TIP3    H137104   3.953   7.252   4.821
12387TIP3    H237105   3.829   7.311   4.762
12388TIP3   OH237106   3.336   6.642   5.054
12388TIP3    H137107   3.431   6.663   5.039
12388TIP3    H237108   3.330   6.553   5.013
12389TIP3   OH237109   3.251   7.254   5.472
12389TIP3    H137110   3.186   7.192   5.433
12389TIP3    H237111   3.296   7.195   5.536
12390TIP3   OH237112   3.385   7.101   5.658
12390TIP3    H137113   3.375   7.029   5.723
12390TIP3    H237114   3.438   7.164   5.710
12391TIP3   OH237115   5.107   7.520   5.454
12391TIP3    H137116   5.141   7.545   5.542
12391TIP3    H237117   5.185   7.532   5.398
12392TIP3   OH237118   5.138   7.525   5.739
12392TIP3    H137119   5.097   7.436   5.739
12392TIP3    H237120   5.222   7.505   5.784
12393TIP3   OH237121   5.188   7.202   6.312
12393TIP3    H137122   5.116   7.211   6.378
12393TIP3    H237123   5.231   7.289   6.317
12394TIP3   OH237124   5.005   6.714   4.931
12394TIP3    H137125   5.073   6.777   4.900
12394TIP3    H237126   5.050   6.676   5.010
12395TIP3   OH237127   5.133   6.582   5.136
12395TIP3    H137128   5.067   6.539   5.194
12395TIP3    H237129   5.199   6.617   5.199
12396TIP3   OH237130   5.189   6.976   5.565
12396TIP3    H137131   5.243   6.908   5.520
12396TIP3    H237132   5.186   7.047   5.498
12397TIP3   OH237133   5.017   7.274   5.760
12397TIP3    H137134   4.944   7.314   5.812
12397TIP3    H237135   4.967   7.227   5.690
12398TIP3   OH237136   5.070   6.490   4.781
12398TIP3    H137137   4.999   6.492   4.713
12398TIP3    H237138   5.042   6.566   4.836
12399TIP3   OH237139   4.941   6.162   4.734
12399TIP3    H137140   4.898   6.197   4.655
12399TIP3    H237141   4.918   6.067   4.726
12400TIP3   OH237142   4.945   6.440   5.280
12400TIP3    H137143   4.953   6.343   5.272
12400TIP3    H237144   4.931   6.452   5.377
12401TIP3   OH237145   3.571   6.514   6.028
12401TIP3    H137146   3.569   6.479   5.937
12401TIP3    H237147   3.668   6.514   6.045
12402TIP3   OH237148   5.237   6.864   6.139
12402TIP3    H137149   5.307   6.796   6.128
12402TIP3    H237150   5.264   6.932   6.074
12403TIP3   OH237151   5.420   6.666   6.149
12403TIP3    H137152   5.345   6.615   6.189
12403TIP3    H237153   5.493   6.602   6.164
12404TIP3   OH237154   4.886   5.895   4.716
12404TIP3    H137155   4.958   5.864   4.774
12404TIP3    H237156   4.811   5.838   4.740
12405TIP3   OH237157   4.944   6.155   5.172
12405TIP3    H137158   4.984   6.066   5.187
12405TIP3    H237159   5.002   6.188   5.101
12406TIP3   OH237160   5.103   6.326   5.670
12406TIP3    H137161   5.189   6.351   5.629
12406TIP3    H237162   5.117   6.363   5.759
12407TIP3   OH237163   5.175   6.472   5.900
12407TIP3    H137164   5.098   6.505   5.949
12407TIP3    H237165   5.208   6.554   5.856
12408TIP3   OH237166   3.790   6.198   6.704
12408TIP3    H137167   3.888   6.192   6.706
12408TIP3    H237168   3.767   6.111   6.741
12409TIP3   OH237169   5.626   6.066   6.457
12409TIP3    H137170   5.686   6.001   6.414
12409TIP3    H237171   5.594   6.118   6.380
12410TIP3   OH237172   5.051   5.905   5.212
12410TIP3    H137173   5.099   5.889   5.296
12410TIP3    H237174   4.990   5.829   5.211
12411TIP3   OH237175   3.747   5.896   6.038
12411TIP3    H137176   3.804   5.817   6.043
12411TIP3    H237177   3.813   5.966   6.026
12412TIP3   OH237178   3.551   6.165   6.102
12412TIP3    H137179   3.602   6.157   6.019
12412TIP3    H237180   3.588   6.246   6.140
12413TIP3   OH237181   5.494   6.200   6.261
12413TIP3    H137182   5.409   6.244   6.280
12413TIP3    H237183   5.462   6.128   6.203
12414TIP3   OH237184   5.130   5.837   4.847
12414TIP3    H137185   5.170   5.767   4.792
12414TIP3    H237186   5.197   5.908   4.844
12415TIP3   OH237187   3.538   5.666   5.606
12415TIP3    H137188   3.445   5.662   5.634
12415TIP3    H237189   3.533   5.725   5.528
12416TIP3   OH237190   4.693   7.365   5.110
12416TIP3    H137191   4.758   7.310   5.065
12416TIP3    H237192   4.744   7.426   5.166
12417TIP3   OH237193   3.759   5.754   6.424
12417TIP3    H137194   3.705   5.744   6.504
12417TIP3    H237195   3.692   5.785   6.360
12418TIP3   OH237196   3.796   7.181   6.496
12418TIP3    H137197   3.705   7.151   6.481
12418TIP3    H237198   3.810   7.155   6.588
12419TIP3   OH237199   3.977   7.211   6.045
12419TIP3    H137200   3.931   7.288   6.005
12419TIP3    H237201   4.063   7.223   6.001
12420TIP3   OH237202   4.418   7.454   6.183
12420TIP3    H137203   4.461   7.451   6.271
12420TIP3    H237204   4.485   7.505   6.132
12421TIP3   OH237205   4.598   7.607   6.042
12421TIP3    H137206   4.668   7.554   6.001
12421TIP3    H237207   4.651   7.662   6.103
12422TIP3   OH237208   5.395   5.964   6.141
12422TIP3    H137209   5.304   5.955   6.107
12422TIP3    H237210   5.427   5.872   6.132
12423TIP3   OH237211   3.652   7.468   6.067
12423TIP3    H137212   3.561   7.500   6.047
12423TIP3    H237213   3.665   7.505   6.155
12424TIP3   OH237214   3.889   7.446   5.929
12424TIP3    H137215   3.801   7.457   5.972
12424TIP3    H237216   3.870   7.475   5.837
12425TIP3   OH237217   4.314   7.472   5.725
12425TIP3    H137218   4.243   7.490   5.661
12425TIP3    H237219   4.326   7.559   5.768
12426TIP3   OH237220   4.584   7.411   5.779
12426TIP3    H137221   4.490   7.429   5.757
12426TIP3    H237222   4.629   7.484   5.734
12427TIP3   OH237223   4.786   7.601   5.690
12427TIP3    H137224   4.775   7.685   5.641
12427TIP3    H237225   4.816   7.540   5.619
12428TIP3   OH237226   3.563   7.258   5.814
12428TIP3    H137227   3.591   7.230   5.905
12428TIP3    H237228   3.635   7.214   5.763
12429TIP3   OH237229   3.759   7.131   5.673
12429TIP3    H137230   3.773   7.046   5.722
12429TIP3    H237231   3.850   7.165   5.668
12430TIP3   OH237232   4.028   7.224   5.677
12430TIP3    H137233   4.056   7.131   5.665
12430TIP3    H237234   4.075   7.244   5.760
12431TIP3   OH237235   4.597   5.882   5.745
12431TIP3    H137236   4.577   5.807   5.806
12431TIP3    H237237   4.676   5.843   5.704
12432TIP3   OH237238   5.122   5.760   5.666
12432TIP3    H137239   5.152   5.814   5.589
12432TIP3    H237240   5.025   5.769   5.661
12433TIP3   OH237241   5.216   5.860   5.428
12433TIP3    H137242   5.291   5.809   5.390
12433TIP3    H237243   5.250   5.952   5.414
12434TIP3   OH237244   3.847   5.588   5.774
12434TIP3    H137245   3.755   5.554   5.779
12434TIP3    H237246   3.897   5.504   5.771
12435TIP3   OH237247   3.631   5.460   5.425
12435TIP3    H137248   3.665   5.517   5.353
12435TIP3    H237249   3.608   5.526   5.493
12436TIP3   OH237250   4.290   5.621   5.664
12436TIP3    H137251   4.356   5.664   5.607
12436TIP3    H237252   4.331   5.631   5.751
12437TIP3   OH237253   4.838   5.748   5.652
12437TIP3    H137254   4.830   5.702   5.567
12437TIP3    H237255   4.798   5.682   5.714
12438TIP3   OH237256   4.868   5.691   5.205
12438TIP3    H137257   4.783   5.735   5.223
12438TIP3    H237258   4.855   5.606   5.252
12439TIP3   OH237259   3.351   7.034   5.202
12439TIP3    H137260   3.265   7.000   5.169
12439TIP3    H237261   3.341   7.128   5.176
12440TIP3   OH237262   3.755   5.618   5.186
12440TIP3    H137263   3.803   5.554   5.130
12440TIP3    H237264   3.828   5.672   5.222
12441TIP3   OH237265   4.263   5.797   5.287
12441TIP3    H137266   4.322   5.749   5.349
12441TIP3    H237267   4.285   5.889   5.313
12442TIP3   OH237268   4.124   7.216   4.786
12442TIP3    H137269   4.212   7.238   4.750
12442TIP3    H237270   4.101   7.141   4.726
12443TIP3   OH237271   4.054   5.871   6.670
12443TIP3    H137272   4.020   5.799   6.725
12443TIP3    H237273   4.149   5.870   6.696
12444TIP3   OH237274   4.306   5.869   6.786
12444TIP3    H137275   4.389   5.844   6.743
12444TIP3    H237276   4.296   5.797   6.852
12445TIP3   OH237277   3.429   7.054   4.841
12445TIP3    H137278   3.433   7.073   4.936
12445TIP3    H237279   3.516   7.011   4.825
12446TIP3   OH237280   5.133   5.932   6.574
12446TIP3    H137281   5.150   5.900   6.666
12446TIP3    H237282   5.222   5.925   6.534
12447TIP3   OH237283   5.067   7.481   6.067
12447TIP3    H137284   4.989   7.451   6.017
12447TIP3    H237285   5.048   7.577   6.073
12448TIP3   OH237286   6.281   6.851   5.278
12448TIP3    H137287   6.367   6.824   5.313
12448TIP3    H237288   6.287   6.827   5.185
12449TIP3   OH237289   5.631   6.746   5.582
12449TIP3    H137290   5.660   6.677   5.644
12449TIP3    H237291   5.712   6.797   5.572
12450TIP3   OH237292   5.600   7.159   5.299
12450TIP3    H137293   5.594   7.061   5.302
12450TIP3    H237294   5.697   7.171   5.299
12451TIP3   OH237295   5.312   6.359   5.085
12451TIP3    H137296   5.265   6.443   5.102
12451TIP3    H237297   5.241   6.307   5.043
12452TIP3   OH237298   5.370   6.648   5.264
12452TIP3    H137299   5.419   6.570   5.298
12452TIP3    H237300   5.430   6.680   5.195
12453TIP3   OH237301   6.232   7.627   4.912
12453TIP3    H137302   6.268   7.551   4.862
12453TIP3    H237303   6.227   7.595   5.002
12454TIP3   OH237304   7.151   6.398   5.262
12454TIP3    H137305   7.179   6.483   5.301
12454TIP3    H237306   7.169   6.414   5.168
12455TIP3   OH237307   6.539   6.578   5.292
12455TIP3    H137308   6.584   6.494   5.312
12455TIP3    H237309   6.510   6.562   5.200
12456TIP3   OH237310   5.886   6.240   5.259
12456TIP3    H137311   5.867   6.313   5.196
12456TIP3    H237312   5.837   6.168   5.214
12457TIP3   OH237313   6.580   6.334   4.882
12457TIP3    H137314   6.655   6.319   4.944
12457TIP3    H237315   6.628   6.369   4.805
12458TIP3   OH237316   5.518   6.442   5.366
12458TIP3    H137317   5.601   6.423   5.414
12458TIP3    H237318   5.532   6.387   5.287
12459TIP3   OH237319   5.955   6.638   5.166
12459TIP3    H137320   6.050   6.614   5.176
12459TIP3    H237321   5.918   6.555   5.130
12460TIP3   OH237322   7.225   6.613   5.425
12460TIP3    H137323   7.138   6.655   5.408
12460TIP3    H237324   7.236   6.633   5.519
12461TIP3   OH237325   5.880   6.224   5.694
12461TIP3    H137326   5.821   6.261   5.626
12461TIP3    H237327   5.827   6.241   5.774
12462TIP3   OH237328   6.240   7.123   4.644
12462TIP3    H137329   6.204   7.034   4.639
12462TIP3    H237330   6.174   7.169   4.698
12463TIP3   OH237331   5.988   7.006   5.485
12463TIP3    H137332   5.916   7.058   5.528
12463TIP3    H237333   6.051   7.076   5.465
12464TIP3   OH237334   6.788   6.336   5.058
12464TIP3    H137335   6.768   6.294   5.142
12464TIP3    H237336   6.838   6.415   5.085
12465TIP3   OH237337   5.752   6.339   5.477
12465TIP3    H137338   5.815   6.411   5.501
12465TIP3    H237339   5.801   6.299   5.402
12466TIP3   OH237340   5.815   7.194   5.587
12466TIP3    H137341   5.791   7.283   5.554
12466TIP3    H237342   5.735   7.176   5.642
12467TIP3   OH237343   5.203   6.881   4.817
12467TIP3    H137344   5.164   6.901   4.729
12467TIP3    H237345   5.224   6.972   4.848
12468TIP3   OH237346   6.651   7.420   5.094
12468TIP3    H137347   6.572   7.366   5.082
12468TIP3    H237348   6.636   7.496   5.035
12469TIP3   OH237349   6.940   6.299   5.426
12469TIP3    H137350   6.853   6.325   5.393
12469TIP3    H237351   7.000   6.331   5.356
12470TIP3   OH237352   6.234   5.940   5.410
12470TIP3    H137353   6.217   5.846   5.427
12470TIP3    H237354   6.157   5.981   5.456
12471TIP3   OH237355   6.351   7.440   4.742
12471TIP3    H137356   6.401   7.360   4.715
12471TIP3    H237357   6.408   7.508   4.699
12472TIP3   OH237358   6.491   7.223   4.658
12472TIP3    H137359   6.412   7.180   4.621
12472TIP3    H237360   6.512   7.161   4.730
12473TIP3   OH237361   6.854   7.310   5.401
12473TIP3    H137362   6.845   7.232   5.341
12473TIP3    H237363   6.842   7.385   5.339
12474TIP3   OH237364   6.162   6.691   4.647
12474TIP3    H137365   6.089   6.747   4.619
12474TIP3    H237366   6.205   6.669   4.562
12475TIP3   OH237367   7.073   6.956   5.252
12475TIP3    H137368   6.986   7.003   5.260
12475TIP3    H237369   7.093   6.974   5.158
12476TIP3   OH237370   6.512   6.818   4.646
12476TIP3    H137371   6.460   6.841   4.724
12476TIP3    H237372   6.592   6.780   4.686
12477TIP3   OH237373   6.754   6.815   5.543
12477TIP3    H137374   6.750   6.896   5.599
12477TIP3    H237375   6.664   6.819   5.502
12478TIP3   OH237376   5.746   6.787   5.055
12478TIP3    H137377   5.703   6.728   4.989
12478TIP3    H237378   5.822   6.732   5.084
12479TIP3   OH237379   5.868   7.203   5.191
12479TIP3    H137380   5.838   7.172   5.103
12479TIP3    H237381   5.939   7.142   5.213
12480TIP3   OH237382   5.880   6.758   5.407
12480TIP3    H137383   5.913   6.727   5.320
12480TIP3    H237384   5.929   6.843   5.419
12481TIP3   OH237385   6.356   7.373   5.167
12481TIP3    H137386   6.371   7.466   5.200
12481TIP3    H237387   6.384   7.322   5.246
12482TIP3   OH237388   6.018   7.314   5.732
12482TIP3    H137389   5.958   7.376   5.779
12482TIP3    H237390   5.953   7.261   5.683
12483TIP3   OH237391   6.377   6.642   4.470
12483TIP3    H137392   6.421   6.719   4.510
12483TIP3    H237393   6.387   6.659   4.374
12484TIP3   OH237394   5.778   6.870   5.832
12484TIP3    H137395   5.781   6.957   5.878
12484TIP3    H237396   5.683   6.848   5.845
12485TIP3   OH237397   6.098   7.340   4.778
12485TIP3    H137398   6.180   7.384   4.750
12485TIP3    H237399   6.033   7.375   4.715
12486TIP3   OH237400   5.813   7.480   5.821
12486TIP3    H137401   5.777   7.484   5.731
12486TIP3    H237402   5.732   7.459   5.874
12487TIP3   OH237403   6.869   5.885   4.511
12487TIP3    H137404   6.787   5.908   4.561
12487TIP3    H237405   6.884   5.968   4.461
12488TIP3   OH237406   5.606   6.630   4.870
12488TIP3    H137407   5.549   6.672   4.803
12488TIP3    H237408   5.574   6.540   4.869
12489TIP3   OH237409   6.669   7.253   4.059
12489TIP3    H137410   6.677   7.350   4.044
12489TIP3    H237411   6.762   7.224   4.047
12490TIP3   OH237412   5.393   7.013   5.765
12490TIP3    H137413   5.327   6.990   5.697
12490TIP3    H237414   5.432   6.926   5.788
12491TIP3   OH237415   5.250   7.209   5.391
12491TIP3    H137416   5.345   7.197   5.382
12491TIP3    H237417   5.247   7.283   5.454
12492TIP3   OH237418   6.213   7.441   5.586
12492TIP3    H137419   6.215   7.533   5.620
12492TIP3    H237420   6.143   7.402   5.641
12493TIP3   OH237421   5.983   7.572   4.540
12493TIP3    H137422   5.935   7.556   4.457
12493TIP3    H237423   5.949   7.658   4.568
12494TIP3   OH237424   5.397   7.403   4.936
12494TIP3    H137425   5.473   7.400   5.000
12494TIP3    H237426   5.325   7.387   5.000
12495TIP3   OH237427   6.179   7.473   4.176
12495TIP3    H137428   6.237   7.402   4.141
12495TIP3    H237429   6.214   7.484   4.267
12496TIP3   OH237430   6.232   7.523   4.444
12496TIP3    H137431   6.143   7.534   4.485
12496TIP3    H237432   6.282   7.479   4.514
12497TIP3   OH237433   7.018   6.793   5.715
12497TIP3    H137434   6.932   6.805   5.672
12497TIP3    H237435   7.029   6.696   5.708
12498TIP3   OH237436   5.596   7.197   5.751
12498TIP3    H137437   5.646   7.178   5.833
12498TIP3    H237438   5.523   7.132   5.757
12499TIP3   OH237439   5.997   6.018   5.540
12499TIP3    H137440   5.908   5.988   5.510
12499TIP3    H237441   5.971   6.099   5.587
12500TIP3   OH237442   6.533   6.134   5.733
12500TIP3    H137443   6.601   6.104   5.797
12500TIP3    H237444   6.449   6.114   5.780
12501TIP3   OH237445   6.771   6.560   5.653
12501TIP3    H137446   6.717   6.563   5.735
12501TIP3    H237447   6.750   6.646   5.611
12502TIP3   OH237448   6.435   6.685   4.208
12502TIP3    H137449   6.382   6.666   4.129
12502TIP3    H237450   6.510   6.735   4.171
12503TIP3   OH237451   6.136   6.061   4.505
12503TIP3    H137452   6.107   6.061   4.598
12503TIP3    H237453   6.095   5.977   4.474
12504TIP3   OH237454   5.928   6.535   5.557
12504TIP3    H137455   5.878   6.557   5.638
12504TIP3    H237456   5.912   6.616   5.503
12505TIP3   OH237457   5.813   6.419   5.069
12505TIP3    H137458   5.720   6.395   5.087
12505TIP3    H237459   5.825   6.380   4.980
12506TIP3   OH237460   6.302   6.512   4.802
12506TIP3    H137461   6.250   6.581   4.755
12506TIP3    H237462   6.355   6.475   4.728
12507TIP3   OH237463   6.480   6.794   5.905
12507TIP3    H137464   6.456   6.713   5.956
12507TIP3    H237465   6.577   6.790   5.912
12508TIP3   OH237466   6.456   6.533   5.034
12508TIP3    H137467   6.391   6.553   4.963
12508TIP3    H237468   6.495   6.453   4.992
12509TIP3   OH237469   5.749   6.563   5.766
12509TIP3    H137470   5.780   6.624   5.835
12509TIP3    H237471   5.737   6.480   5.816
12510TIP3   OH237472   5.790   6.033   4.474
12510TIP3    H137473   5.785   6.039   4.571
12510TIP3    H237474   5.716   6.091   4.448
12511TIP3   OH237475   5.342   6.083   5.345
12511TIP3    H137476   5.416   6.117   5.400
12511TIP3    H237477   5.386   6.054   5.264
12512TIP3   OH237478   5.307   6.064   4.865
12512TIP3    H137479   5.353   6.102   4.787
12512TIP3    H237480   5.246   6.138   4.884
12513TIP3   OH237481   6.489   6.773   5.470
12513TIP3    H137482   6.512   6.704   5.404
12513TIP3    H237483   6.445   6.719   5.538
12514TIP3   OH237484   6.144   6.230   5.129
12514TIP3    H137485   6.062   6.238   5.182
12514TIP3    H237486   6.212   6.247   5.197
12515TIP3   OH237487   5.574   6.299   5.138
12515TIP3    H137488   5.480   6.306   5.110
12515TIP3    H237489   5.598   6.208   5.116
12516TIP3   OH237490   5.840   6.294   4.825
12516TIP3    H137491   5.936   6.309   4.809
12516TIP3    H237492   5.800   6.320   4.739
12517TIP3   OH237493   6.633   6.318   5.334
12517TIP3    H137494   6.599   6.332   5.426
12517TIP3    H237495   6.564   6.258   5.299
12518TIP3   OH237496   5.697   6.337   4.594
12518TIP3    H137497   5.616   6.289   4.572
12518TIP3    H237498   5.729   6.357   4.505
12519TIP3   OH237499   5.760   7.119   5.972
12519TIP3    H137500   5.838   7.150   6.021
12519TIP3    H237501   5.695   7.115   6.045
12520TIP3   OH237502   6.210   6.539   5.221
12520TIP3    H137503   6.296   6.533   5.177
12520TIP3    H237504   6.231   6.518   5.313
12521TIP3   OH237505   5.742   6.059   5.110
12521TIP3    H137506   5.707   5.981   5.158
12521TIP3    H237507   5.789   6.018   5.036
12522TIP3   OH237508   6.198   6.466   5.524
12522TIP3    H137509   6.109   6.504   5.531
12522TIP3    H237510   6.254   6.532   5.570
12523TIP3   OH237511   5.931   6.873   4.610
12523TIP3    H137512   5.864   6.803   4.595
12523TIP3    H237513   5.914   6.896   4.705
12524TIP3   OH237514   6.836   7.090   5.240
12524TIP3    H137515   6.849   7.138   5.156
12524TIP3    H237516   6.751   7.042   5.225
12525TIP3   OH237517   6.394   6.159   4.488
12525TIP3    H137518   6.296   6.148   4.479
12525TIP3    H237519   6.402   6.256   4.486
12526TIP3   OH237520   6.322   7.175   5.605
12526TIP3    H137521   6.358   7.154   5.692
12526TIP3    H237522   6.294   7.267   5.615
12527TIP3   OH237523   6.461   6.416   4.591
12527TIP3    H137524   6.557   6.432   4.593
12527TIP3    H237525   6.429   6.491   4.536
12528TIP3   OH237526   5.631   6.883   5.288
12528TIP3    H137527   5.667   6.853   5.202
12528TIP3    H237528   5.674   6.823   5.349
12529TIP3   OH237529   6.069   7.007   4.413
12529TIP3    H137530   6.034   7.095   4.438
12529TIP3    H237531   6.023   6.950   4.478
12530TIP3   OH237532   5.513   6.802   5.903
12530TIP3    H137533   5.534   6.787   5.997
12530TIP3    H237534   5.444   6.734   5.888
12531TIP3   OH237535   6.231   6.918   5.915
12531TIP3    H137536   6.170   6.856   5.872
12531TIP3    H237537   6.318   6.880   5.890
12532TIP3   OH237538   6.488   7.452   5.488
12532TIP3    H137539   6.394   7.440   5.505
12532TIP3    H237540   6.518   7.486   5.575
12533TIP3   OH237541   6.905   6.511   4.414
12533TIP3    H137542   6.846   6.466   4.349
12533TIP3    H237543   6.899   6.601   4.376
12534TIP3   OH237544   7.106   7.325   5.492
12534TIP3    H137545   7.011   7.339   5.469
12534TIP3    H237546   7.141   7.302   5.404
12535TIP3   OH237547   6.609   7.326   4.327
12535TIP3    H137548   6.577   7.256   4.386
12535TIP3    H237549   6.618   7.280   4.241
12536TIP3   OH237550   6.609   6.946   5.183
12536TIP3    H137551   6.539   6.983   5.124
12536TIP3    H237552   6.636   6.869   5.129
12537TIP3   OH237553   5.736   7.189   4.922
12537TIP3    H137554   5.736   7.267   4.863
12537TIP3    H237555   5.641   7.171   4.928
12538TIP3   OH237556   5.295   6.487   4.620
12538TIP3    H137557   5.341   6.572   4.641
12538TIP3    H237558   5.218   6.493   4.681
12539TIP3   OH237559   5.867   6.952   4.862
12539TIP3    H137560   5.828   7.039   4.881
12539TIP3    H237561   5.830   6.897   4.934
12540TIP3   OH237562   5.995   7.531   5.381
12540TIP3    H137563   6.038   7.603   5.330
12540TIP3    H237564   6.070   7.496   5.432
12541TIP3   OH237565   5.648   7.422   4.768
12541TIP3    H137566   5.561   7.439   4.806
12541TIP3    H237567   5.687   7.513   4.769
12542TIP3   OH237568   6.412   7.173   5.341
12542TIP3    H137569   6.385   7.159   5.435
12542TIP3    H237570   6.455   7.087   5.322
12543TIP3   OH237571   6.360   7.059   4.222
12543TIP3    H137572   6.417   7.034   4.299
12543TIP3    H237573   6.275   7.024   4.253
12544TIP3   OH237574   6.613   7.708   5.406
12544TIP3    H137575   6.552   7.633   5.392
12544TIP3    H237576   6.604   7.759   5.322
12545TIP3   OH237577   6.701   7.529   4.043
12545TIP3    H137578   6.736   7.603   3.991
12545TIP3    H237579   6.620   7.572   4.079
12546TIP3   OH237580   5.719   6.306   5.907
12546TIP3    H137581   5.622   6.310   5.921
12546TIP3    H237582   5.747   6.252   5.982
12547TIP3   OH237583   6.528   6.990   4.427
12547TIP3    H137584   6.510   6.937   4.507
12547TIP3    H237585   6.625   6.983   4.422
12548TIP3   OH237586   5.434   7.389   5.548
12548TIP3    H137587   5.490   7.331   5.603
12548TIP3    H237588   5.449   7.477   5.587
12549TIP3   OH237589   5.728   7.038   4.229
12549TIP3    H137590   5.732   6.945   4.195
12549TIP3    H237591   5.706   7.022   4.322
12550TIP3   OH237592   5.668   7.040   4.504
12550TIP3    H137593   5.752   7.010   4.540
12550TIP3    H237594   5.676   7.138   4.510
12551TIP3   OH237595   5.406   6.730   4.700
12551TIP3    H137596   5.341   6.778   4.755
12551TIP3    H237597   5.426   6.797   4.632
12552TIP3   OH237598   6.559   6.372   5.596
12552TIP3    H137599   6.644   6.407   5.630
12552TIP3    H237600   6.547   6.290   5.648
12553TIP3   OH237601   6.441   6.118   4.760
12553TIP3    H137602   6.422   6.138   4.666
12553TIP3    H237603   6.476   6.203   4.791
12554TIP3   OH237604   5.942   7.246   4.460
12554TIP3    H137605   5.850   7.269   4.486
12554TIP3    H237606   5.956   7.310   4.389
12555TIP3   OH237607   6.123   6.304   4.860
12555TIP3    H137608   6.185   6.377   4.840
12555TIP3    H237609   6.133   6.297   4.957
12556TIP3   OH237610   6.393   6.614   5.669
12556TIP3    H137611   6.415   6.662   5.751
12556TIP3    H237612   6.448   6.534   5.675
12557TIP3   OH237613   6.269   6.023   4.960
12557TIP3    H137614   6.254   6.102   5.015
12557TIP3    H237615   6.332   6.059   4.893
12558TIP3   OH237616   5.682   7.314   4.514
12558TIP3    H137617   5.654   7.383   4.449
12558TIP3    H237618   5.668   7.360   4.599
12559TIP3   OH237619   5.782   6.030   4.753
12559TIP3    H137620   5.782   6.120   4.790
12559TIP3    H237621   5.878   6.010   4.759
12560TIP3   OH237622   7.038   6.520   5.641
12560TIP3    H137623   6.941   6.521   5.655
12560TIP3    H237624   7.042   6.469   5.559
12561TIP3   OH237625   6.688   6.710   5.033
12561TIP3    H137626   6.610   6.653   5.046
12561TIP3    H237627   6.758   6.662   5.083
12562TIP3   OH237628   5.403   6.941   4.503
12562TIP3    H137629   5.480   6.999   4.513
12562TIP3    H237630   5.441   6.878   4.438
12563TIP3   OH237631   5.344   6.219   4.642
12563TIP3    H137632   5.344   6.317   4.638
12563TIP3    H237633   5.266   6.198   4.590
12564TIP3   OH237634   6.656   7.673   4.980
12564TIP3    H137635   6.614   7.722   4.905
12564TIP3    H237636   6.750   7.689   4.958
12565TIP3   OH237637   5.732   5.939   5.510
12565TIP3    H137638   5.702   5.905   5.423
12565TIP3    H237639   5.722   5.861   5.568
12566TIP3   OH237640   5.247   7.149   4.875
12566TIP3    H137641   5.214   7.187   4.956
12566TIP3    H237642   5.319   7.209   4.851
12567TIP3   OH237643   5.432   7.701   5.967
12567TIP3    H137644   5.519   7.697   6.012
12567TIP3    H237645   5.410   7.607   5.959
12568TIP3   OH237646   5.913   7.654   6.012
12568TIP3    H137647   6.007   7.636   6.003
12568TIP3    H237648   5.877   7.598   5.940
12569TIP3   OH237649   5.891   7.236   4.138
12569TIP3    H137650   5.835   7.163   4.174
12569TIP3    H237651   5.966   7.185   4.100
12570TIP3   OH237652   6.536   7.545   5.742
12570TIP3    H137653   6.526   7.482   5.816
12570TIP3    H237654   6.617   7.593   5.767
12571TIP3   OH237655   6.325   7.275   4.050
12571TIP3    H137656   6.360   7.208   4.111
12571TIP3    H237657   6.385   7.270   3.974
12572TIP3   OH237658   5.558   7.105   6.163
12572TIP3    H137659   5.573   7.010   6.175
12572TIP3    H237660   5.471   7.107   6.118
12573TIP3   OH237661   5.533   6.750   4.365
12573TIP3    H137662   5.597   6.720   4.433
12573TIP3    H237663   5.595   6.762   4.289
12574TIP3   OH237664   6.168   7.191   5.934
12574TIP3    H137665   6.122   7.208   5.849
12574TIP3    H237666   6.195   7.097   5.926
12575TIP3   OH237667   6.051   6.922   4.159
12575TIP3    H137668   6.054   6.955   4.252
12575TIP3    H237669   6.025   6.830   4.178
12576TIP3   OH237670   6.650   7.211   5.554
12576TIP3    H137671   6.726   7.250   5.507
12576TIP3    H237672   6.577   7.264   5.516
12577TIP3   OH237673   5.685   6.837   6.145
12577TIP3    H137674   5.766   6.789   6.121
12577TIP3    H237675   5.710   6.871   6.234
12578TIP3   OH237676   5.742   6.668   4.564
12578TIP3    H137677   5.737   6.598   4.631
12578TIP3    H237678   5.808   6.633   4.500
12579TIP3   OH237679   6.016   6.724   5.805
12579TIP3    H137680   5.938   6.783   5.808
12579TIP3    H237681   6.065   6.759   5.727
12580TIP3   OH237682   6.537   7.130   5.944
12580TIP3    H137683   6.614   7.111   5.888
12580TIP3    H237684   6.516   7.043   5.980
12581TIP3   OH237685   6.671   6.785   4.080
12581TIP3    H137686   6.645   6.740   3.997
12581TIP3    H237687   6.635   6.875   4.062
12582TIP3   OH237688   6.141   6.512   5.927
12582TIP3    H137689   6.138   6.433   5.870
12582TIP3    H237690   6.095   6.580   5.872
12583TIP3   OH237691   6.139   6.298   5.743
12583TIP3    H137692   6.167   6.341   5.660
12583TIP3    H237693   6.045   6.276   5.723
12584TIP3   OH237694   6.165   6.834   5.610
12584TIP3    H137695   6.246   6.838   5.557
12584TIP3    H237696   6.106   6.894   5.559
12585TIP3   OH237697   6.751   6.795   6.005
12585TIP3    H137698   6.794   6.711   5.983
12585TIP3    H237699   6.819   6.859   5.978
12586TIP3   OH237700   6.776   7.033   5.710
12586TIP3    H137701   6.721   7.096   5.657
12586TIP3    H237702   6.865   7.054   5.673
12587TIP3   OH237703   5.996   6.628   6.141
12587TIP3    H137704   5.937   6.555   6.170
12587TIP3    H237705   6.039   6.589   6.063
12588TIP3   OH237706   6.271   6.061   5.812
12588TIP3    H137707   6.221   6.143   5.788
12588TIP3    H237708   6.202   5.993   5.800
12589TIP3   OH237709   6.394   6.565   6.026
12589TIP3    H137710   6.373   6.548   6.120
12589TIP3    H237711   6.306   6.542   5.989
12590TIP3   OH237712   6.635   6.528   5.886
12590TIP3    H137713   6.558   6.519   5.946
12590TIP3    H237714   6.708   6.492   5.942
12591TIP3   OH237715   6.854   6.461   6.043
12591TIP3    H137716   6.874   6.365   6.051
12591TIP3    H237717   6.861   6.491   6.136
12592TIP3   OH237718   5.853   6.402   6.221
12592TIP3    H137719   5.859   6.309   6.190
12592TIP3    H237720   5.889   6.394   6.311
12593TIP3   OH237721   6.365   6.073   6.070
12593TIP3    H137722   6.430   6.001   6.063
12593TIP3    H237723   6.324   6.068   5.981
12594TIP3   OH237724   6.430   6.291   6.225
12594TIP3    H137725   6.410   6.218   6.163
12594TIP3    H237726   6.349   6.347   6.218
12595TIP3   OH237727   5.650   7.509   4.322
12595TIP3    H137728   5.746   7.508   4.305
12595TIP3    H237729   5.621   7.574   4.254
12596TIP3   OH237730   5.132   6.898   4.539
12596TIP3    H137731   5.227   6.921   4.525
12596TIP3    H237732   5.128   6.809   4.497
12597TIP3   OH237733   5.014   7.457   4.915
12597TIP3    H137734   4.938   7.431   4.969
12597TIP3    H237735   5.087   7.419   4.971
12598TIP3   OH237736   5.190   7.365   5.117
12598TIP3    H137737   5.168   7.295   5.182
12598TIP3    H237738   5.239   7.425   5.178
12599TIP3   OH237739   6.915   7.750   4.941
12599TIP3    H137740   6.936   7.785   5.030
12599TIP3    H237741   6.965   7.811   4.884
12600TIP3   OH237742   6.955   7.772   5.219
12600TIP3    H137743   6.908   7.685   5.221
12600TIP3    H237744   6.961   7.793   5.313
12601TIP3   OH237745   6.806   6.969   4.417
12601TIP3    H137746   6.872   7.035   4.388
12601TIP3    H237747   6.850   6.931   4.497
12602TIP3   OH237748   6.932   6.837   4.623
12602TIP3    H137749   6.861   6.794   4.678
12602TIP3    H237750   6.992   6.874   4.690
12603TIP3   OH237751   6.980   7.230   5.046
12603TIP3    H137752   7.032   7.163   4.997
12603TIP3    H237753   6.981   7.306   4.984
12604TIP3   OH237754   6.817   7.546   5.261
12604TIP3    H137755   6.746   7.576   5.319
12604TIP3    H237756   6.766   7.499   5.190
12605TIP3   OH237757   6.867   6.746   4.266
12605TIP3    H137758   6.796   6.748   4.198
12605TIP3    H237759   6.837   6.821   4.322
12606TIP3   OH237760   6.750   6.414   4.213
12606TIP3    H137761   6.684   6.459   4.159
12606TIP3    H237762   6.723   6.320   4.203
12607TIP3   OH237763   6.741   6.697   4.764
12607TIP3    H137764   6.745   6.600   4.752
12607TIP3    H237765   6.728   6.705   4.861
12608TIP3   OH237766   5.367   6.771   5.514
12608TIP3    H137767   5.365   6.736   5.423
12608TIP3    H237768   5.464   6.770   5.532
12609TIP3   OH237769   7.018   7.097   5.612
12609TIP3    H137770   7.104   7.061   5.639
12609TIP3    H237771   7.045   7.180   5.567
12610TIP3   OH237772   7.244   6.935   5.662
12610TIP3    H137773   7.158   6.891   5.686
12610TIP3    H237774   7.300   6.855   5.662
12611TIP3   OH237775   6.683   6.147   4.198
12611TIP3    H137776   6.751   6.120   4.263
12611TIP3    H237777   6.604   6.096   4.224
12612TIP3   OH237778   6.747   6.417   4.665
12612TIP3    H137779   6.785   6.327   4.679
12612TIP3    H237780   6.801   6.446   4.589
12613TIP3   OH237781   6.900   6.579   5.159
12613TIP3    H137782   6.985   6.605   5.117
12613TIP3    H237783   6.914   6.620   5.247
12614TIP3   OH237784   6.973   6.730   5.384
12614TIP3    H137785   6.894   6.760   5.435
12614TIP3    H237786   7.003   6.813   5.343
12615TIP3   OH237787   5.586   6.453   6.187
12615TIP3    H137788   5.684   6.450   6.192
12615TIP3    H237789   5.564   6.367   6.227
12616TIP3   OH237790   7.521   6.354   5.903
12616TIP3    H137791   7.504   6.255   5.901
12616TIP3    H237792   7.438   6.386   5.863
12617TIP3   OH237793   6.851   6.162   4.697
12617TIP3    H137794   6.896   6.145   4.783
12617TIP3    H237795   6.787   6.088   4.696
12618TIP3   OH237796   5.548   6.148   5.519
12618TIP3    H137797   5.609   6.073   5.528
12618TIP3    H237798   5.611   6.222   5.511
12619TIP3   OH237799   5.348   6.420   5.591
12619TIP3    H137800   5.399   6.416   5.507
12619TIP3    H237801   5.380   6.502   5.629
12620TIP3   OH237802   7.290   6.437   5.772
12620TIP3    H137803   7.214   6.488   5.807
12620TIP3    H237804   7.245   6.382   5.705
12621TIP3   OH237805   6.927   6.093   4.336
12621TIP3    H137806   6.966   6.024   4.279
12621TIP3    H237807   6.993   6.165   4.330
12622TIP3   OH237808   5.335   5.920   5.092
12622TIP3    H137809   5.242   5.917   5.122
12622TIP3    H237810   5.329   5.981   5.015
12623TIP3   OH237811   6.494   7.621   4.603
12623TIP3    H137812   6.545   7.614   4.520
12623TIP3    H237813   6.541   7.693   4.648
12624TIP3   OH237814   5.554   6.001   5.906
12624TIP3    H137815   5.503   5.998   5.988
12624TIP3    H237816   5.488   6.041   5.845
12625TIP3   OH237817   5.594   7.436   5.988
12625TIP3    H137818   5.502   7.410   5.968
12625TIP3    H237819   5.603   7.408   6.079
12626TIP3   OH237820   5.770   7.465   5.536
12626TIP3    H137821   5.702   7.522   5.498
12626TIP3    H237822   5.848   7.492   5.484
12627TIP3   OH237823   6.218   7.709   5.668
12627TIP3    H137824   6.254   7.709   5.760
12627TIP3    H237825   6.289   7.759   5.622
12628TIP3   OH237826   6.413   7.856   5.538
12628TIP3    H137827   6.480   7.800   5.493
12628TIP3    H237828   6.457   7.942   5.536
12629TIP3   OH237829   7.185   6.218   5.627
12629TIP3    H137830   7.095   6.206   5.590
12629TIP3    H237831   7.221   6.126   5.617
12630TIP3   OH237832   5.448   7.673   5.587
12630TIP3    H137833   5.444   7.716   5.500
12630TIP3    H237834   5.437   7.750   5.644
12631TIP3   OH237835   6.109   7.727   5.212
12631TIP3    H137836   6.038   7.743   5.147
12631TIP3    H237837   6.120   7.816   5.251
12632TIP3   OH237838   6.376   7.648   5.235
12632TIP3    H137839   6.284   7.682   5.234
12632TIP3    H237840   6.427   7.727   5.211
12633TIP3   OH237841   6.575   7.850   5.175
12633TIP3    H137842   6.562   7.936   5.128
12633TIP3    H237843   6.606   7.793   5.102
12634TIP3   OH237844   5.340   7.503   5.305
12634TIP3    H137845   5.380   7.472   5.389
12634TIP3    H237846   5.421   7.521   5.254
12635TIP3   OH237847   5.559   7.387   5.147
12635TIP3    H137848   5.571   7.308   5.205
12635TIP3    H237849   5.648   7.428   5.150
12636TIP3   OH237850   5.823   7.477   5.162
12636TIP3    H137851   5.848   7.383   5.153
12636TIP3    H237852   5.875   7.502   5.241
12637TIP3   OH237853   6.404   6.140   5.257
12637TIP3    H137854   6.354   6.069   5.301
12637TIP3    H237855   6.471   6.091   5.206
12638TIP3   OH237856   6.916   6.018   5.153
12638TIP3    H137857   6.952   6.070   5.078
12638TIP3    H237858   6.821   6.037   5.146
12639TIP3   OH237859   7.013   6.115   4.916
12639TIP3    H137860   7.087   6.065   4.877
12639TIP3    H237861   7.045   6.207   4.902
12640TIP3   OH237862   5.644   5.845   5.262
12640TIP3    H137863   5.552   5.813   5.266
12640TIP3    H237864   5.692   5.760   5.258
12641TIP3   OH237865   5.433   5.717   4.912
12641TIP3    H137866   5.462   5.774   4.840
12641TIP3    H237867   5.405   5.782   4.980
12642TIP3   OH237868   6.091   5.875   5.146
12642TIP3    H137869   6.145   5.925   5.082
12642TIP3    H237870   6.115   5.919   5.229
12643TIP3   OH237871   6.634   6.026   5.128
12643TIP3    H137872   6.630   5.989   5.039
12643TIP3    H237873   6.621   5.945   5.184
12644TIP3   OH237874   6.665   5.951   4.691
12644TIP3    H137875   6.580   5.998   4.705
12644TIP3    H237876   6.647   5.866   4.736
12645TIP3   OH237877   5.551   5.874   4.675
12645TIP3    H137878   5.599   5.813   4.616
12645TIP3    H237879   5.624   5.928   4.710
12646TIP3   OH237880   6.059   6.052   4.775
12646TIP3    H137881   6.122   6.007   4.834
12646TIP3    H237882   6.080   6.145   4.797
12647TIP3   OH237883   5.919   7.473   4.273
12647TIP3    H137884   6.007   7.496   4.237
12647TIP3    H237885   5.898   7.397   4.214
12648TIP3   OH237886   6.640   7.594   4.369
12648TIP3    H137887   6.633   7.496   4.358
12648TIP3    H237888   6.593   7.625   4.289
12649TIP3   OH237889   5.852   6.125   6.154
12649TIP3    H137890   5.815   6.055   6.211
12649TIP3    H237891   5.946   6.125   6.183
12650TIP3   OH237892   6.102   6.124   6.274
12650TIP3    H137893   6.187   6.096   6.234
12650TIP3    H237894   6.088   6.053   6.340
12651TIP3   OH237895   5.229   7.307   4.333
12651TIP3    H137896   5.267   7.360   4.404
12651TIP3    H237897   5.308   7.257   4.303
12652TIP3   OH237898   6.927   6.192   6.061
12652TIP3    H137899   6.944   6.157   6.151
12652TIP3    H237900   7.015   6.181   6.018
12653TIP3   OH237901   8.123   7.107   4.327
12653TIP3    H137902   8.086   7.194   4.303
12653TIP3    H237903   8.056   7.049   4.287
12654TIP3   OH237904   8.092   7.116   4.713
12654TIP3    H137905   8.146   7.059   4.768
12654TIP3    H237906   8.068   7.056   4.641
12655TIP3   OH237907   7.425   6.978   5.040
12655TIP3    H137908   7.451   6.916   5.111
12655TIP3    H237909   7.498   7.041   5.045
12656TIP3   OH237910   7.403   7.418   4.785
12656TIP3    H137911   7.393   7.320   4.789
12656TIP3    H237912   7.499   7.426   4.783
12657TIP3   OH237913   7.109   6.618   4.572
12657TIP3    H137914   7.059   6.699   4.590
12657TIP3    H237915   7.039   6.564   4.531
12658TIP3   OH237916   7.168   6.906   4.752
12658TIP3    H137917   7.217   6.827   4.785
12658TIP3    H237918   7.220   6.930   4.674
12659TIP3   OH237919   7.914   7.322   4.732
12659TIP3    H137920   7.978   7.249   4.715
12659TIP3    H237921   7.971   7.391   4.771
12660TIP3   OH237922   8.371   6.830   4.751
12660TIP3    H137923   8.387   6.735   4.772
12660TIP3    H237924   8.318   6.819   4.669
12661TIP3   OH237925   7.684   6.497   4.744
12661TIP3    H137926   7.662   6.569   4.681
12661TIP3    H237927   7.636   6.423   4.702
12662TIP3   OH237928   7.312   6.697   4.853
12662TIP3    H137929   7.395   6.680   4.901
12662TIP3    H237930   7.326   6.641   4.774
12663TIP3   OH237931   7.754   6.895   4.643
12663TIP3    H137932   7.848   6.869   4.656
12663TIP3    H237933   7.715   6.810   4.611
12664TIP3   OH237934   7.675   6.484   5.183
12664TIP3    H137935   7.615   6.517   5.113
12664TIP3    H237936   7.619   6.497   5.262
12665TIP3   OH237937   8.006   7.322   4.190
12665TIP3    H137938   7.957   7.304   4.108
12665TIP3    H237939   7.967   7.408   4.217
12666TIP3   OH237940   7.778   7.244   4.955
12666TIP3    H137941   7.707   7.309   4.957
12666TIP3    H237942   7.831   7.273   4.878
12667TIP3   OH237943   8.655   6.558   4.564
12667TIP3    H137944   8.568   6.517   4.565
12667TIP3    H237945   8.637   6.645   4.596
12668TIP3   OH237946   7.549   6.595   4.963
12668TIP3    H137947   7.612   6.666   4.987
12668TIP3    H237948   7.597   6.555   4.887
12669TIP3   OH237949   7.005   7.142   4.308
12669TIP3    H137950   6.961   7.168   4.225
12669TIP3    H237951   7.035   7.228   4.343
12670TIP3   OH237952   8.026   6.196   4.894
12670TIP3    H137953   8.010   6.101   4.911
12670TIP3    H237954   7.949   6.235   4.941
12671TIP3   OH237955   8.245   7.477   4.143
12671TIP3    H137956   8.184   7.408   4.113
12671TIP3    H237957   8.295   7.432   4.211
12672TIP3   OH237958   7.964   6.963   4.154
12672TIP3    H137959   7.884   7.014   4.132
12672TIP3    H237960   8.006   6.953   4.066
12673TIP3   OH237961   7.918   6.748   3.867
12673TIP3    H137962   7.989   6.799   3.911
12673TIP3    H237963   7.971   6.683   3.818
12674TIP3   OH237964   8.302   7.030   4.133
12674TIP3    H137965   8.252   7.050   4.215
12674TIP3    H237966   8.390   7.007   4.170
12675TIP3   OH237967   7.541   7.042   4.540
12675TIP3    H137968   7.498   6.984   4.473
12675TIP3    H237969   7.618   6.987   4.568
12676TIP3   OH237970   7.676   7.453   4.686
12676TIP3    H137971   7.641   7.424   4.599
12676TIP3    H237972   7.759   7.402   4.692
12677TIP3   OH237973   7.686   6.995   4.890
12677TIP3    H137974   7.710   6.973   4.798
12677TIP3    H237975   7.726   7.083   4.903
12678TIP3   OH237976   8.141   6.905   3.946
12678TIP3    H137977   8.203   6.955   4.002
12678TIP3    H237978   8.174   6.926   3.855
12679TIP3   OH237979   7.517   7.142   5.264
12679TIP3    H137980   7.480   7.221   5.223
12679TIP3    H237981   7.441   7.107   5.315
12680TIP3   OH237982   7.900   7.582   4.220
12680TIP3    H137983   7.944   7.659   4.256
12680TIP3    H237984   7.829   7.622   4.168
12681TIP3   OH237985   8.653   6.149   4.023
12681TIP3    H137986   8.564   6.149   4.061
12681TIP3    H237987   8.652   6.226   3.966
12682TIP3   OH237988   7.408   6.886   4.345
12682TIP3    H137989   7.339   6.930   4.289
12682TIP3    H237990   7.371   6.798   4.354
12683TIP3   OH237991   7.173   7.245   5.244
12683TIP3    H137992   7.104   7.239   5.175
12683TIP3    H237993   7.194   7.151   5.259
12684TIP3   OH237994   7.041   7.461   4.886
12684TIP3    H137995   7.137   7.465   4.876
12684TIP3    H237996   7.020   7.547   4.926
12685TIP3   OH237997   7.739   7.837   4.040
12685TIP3    H137998   7.721   7.803   3.950
12685TIP3    H237999   7.809   7.903   4.025
12686TIP3   OH238000   7.211   7.676   4.408
12686TIP3    H138001   7.256   7.667   4.495
12686TIP3    H238002   7.158   7.595   4.407
12687TIP3   OH238003   7.380   7.414   5.189
12687TIP3    H138004   7.431   7.448   5.263
12687TIP3    H238005   7.311   7.358   5.230
12688TIP3   OH238006   7.793   6.277   5.025
12688TIP3    H138007   7.705   6.244   4.996
12688TIP3    H238008   7.763   6.356   5.075
12689TIP3   OH238009   8.304   6.392   5.204
12689TIP3    H138010   8.374   6.371   5.267
12689TIP3    H238011   8.222   6.366   5.252
12690TIP3   OH238012   8.234   6.953   3.696
12690TIP3    H138013   8.185   6.924   3.616
12690TIP3    H238014   8.303   7.008   3.658
12691TIP3   OH238015   7.946   6.317   4.002
12691TIP3    H138016   7.909   6.316   4.092
12691TIP3    H238017   7.902   6.237   3.966
12692TIP3   OH238018   7.733   6.785   5.049
12692TIP3    H138019   7.673   6.803   5.125
12692TIP3    H238020   7.712   6.862   4.991
12693TIP3   OH238021   7.608   6.677   4.557
12693TIP3    H138022   7.516   6.651   4.575
12693TIP3    H238023   7.620   6.637   4.468
12694TIP3   OH238024   8.100   6.761   4.285
12694TIP3    H138025   8.049   6.830   4.238
12694TIP3    H238026   8.153   6.722   4.212
12695TIP3   OH238027   8.254   6.779   4.509
12695TIP3    H138028   8.190   6.797   4.436
12695TIP3    H238029   8.291   6.696   4.474
12696TIP3   OH238030   7.544   6.812   5.245
12696TIP3    H138031   7.577   6.877   5.308
12696TIP3    H238032   7.529   6.734   5.302
12697TIP3   OH238033   7.592   6.300   3.960
12697TIP3    H138034   7.585   6.297   4.058
12697TIP3    H238035   7.515   6.354   3.937
12698TIP3   OH238036   7.138   6.339   4.834
12698TIP3    H138037   7.213   6.371   4.886
12698TIP3    H238038   7.178   6.310   4.751
12699TIP3   OH238039   7.105   6.321   4.351
12699TIP3    H138040   7.151   6.358   4.272
12699TIP3    H238041   7.043   6.395   4.370
12700TIP3   OH238042   7.941   6.501   4.617
12700TIP3    H138043   7.858   6.497   4.667
12700TIP3    H238044   8.008   6.489   4.686
12701TIP3   OH238045   7.370   6.556   4.624
12701TIP3    H138046   7.276   6.564   4.596
12701TIP3    H238047   7.392   6.464   4.601
12702TIP3   OH238048   7.635   6.551   4.316
12702TIP3    H138049   7.729   6.564   4.295
12702TIP3    H238050   7.589   6.572   4.232
12703TIP3   OH238051   8.399   6.567   4.813
12703TIP3    H138052   8.363   6.576   4.903
12703TIP3    H238053   8.341   6.497   4.776
12704TIP3   OH238054   7.485   6.586   4.091
12704TIP3    H138055   7.413   6.542   4.043
12704TIP3    H238056   7.537   6.623   4.017
12705TIP3   OH238057   8.016   6.820   4.714
12705TIP3    H138058   8.084   6.775   4.661
12705TIP3    H238059   8.021   6.775   4.800
12706TIP3   OH238060   7.541   6.314   4.598
12706TIP3    H138061   7.504   6.237   4.646
12706TIP3    H238062   7.585   6.272   4.523
12707TIP3   OH238063   7.995   6.721   4.997
12707TIP3    H138064   7.901   6.747   5.010
12707TIP3    H238065   8.039   6.764   5.071
12708TIP3   OH238066   7.733   7.116   4.099
12708TIP3    H138067   7.661   7.050   4.087
12708TIP3    H238068   7.712   7.149   4.190
12709TIP3   OH238069   8.175   6.448   3.926
12709TIP3    H138070   8.095   6.407   3.965
12709TIP3    H238071   8.203   6.508   3.997
12710TIP3   OH238072   8.256   6.677   4.075
12710TIP3    H138073   8.349   6.687   4.102
12710TIP3    H238074   8.244   6.750   4.012
12711TIP3   OH238075   7.436   7.145   4.777
12711TIP3    H138076   7.468   7.111   4.691
12711TIP3    H238077   7.454   7.070   4.836
12712TIP3   OH238078   7.876   7.263   3.919
12712TIP3    H138079   7.828   7.349   3.925
12712TIP3    H238080   7.823   7.207   3.980
12713TIP3   OH238081   7.293   7.028   5.400
12713TIP3    H138082   7.278   7.006   5.494
12713TIP3    H238083   7.217   6.983   5.358
12714TIP3   OH238084   7.528   7.445   4.408
12714TIP3    H138085   7.523   7.525   4.353
12714TIP3    H238086   7.435   7.421   4.414
12715TIP3   OH238087   7.090   6.745   4.106
12715TIP3    H138088   7.134   6.830   4.128
12715TIP3    H238089   7.013   6.748   4.167
12716TIP3   OH238090   7.658   7.207   4.342
12716TIP3    H138091   7.625   7.296   4.365
12716TIP3    H238092   7.624   7.154   4.417
12717TIP3   OH238093   7.446   7.675   4.253
12717TIP3    H138094   7.360   7.688   4.298
12717TIP3    H238095   7.481   7.767   4.255
12718TIP3   OH238096   8.085   7.307   3.701
12718TIP3    H138097   8.149   7.286   3.770
12718TIP3    H238098   8.003   7.274   3.741
12719TIP3   OH238099   7.506   6.565   5.397
12719TIP3    H138100   7.409   6.580   5.402
12719TIP3    H238101   7.517   6.496   5.463
12720TIP3   OH238102   8.332   7.226   3.943
12720TIP3    H138103   8.289   7.173   4.014
12720TIP3    H238104   8.411   7.172   3.929
12721TIP3   OH238105   7.256   7.645   5.027
12721TIP3    H138106   7.284   7.559   5.065
12721TIP3    H238107   7.242   7.699   5.105
12722TIP3   OH238108   7.517   7.292   3.711
12722TIP3    H138109   7.536   7.199   3.686
12722TIP3    H238110   7.498   7.281   3.807
12723TIP3   OH238111   7.467   7.297   3.983
12723TIP3    H138112   7.541   7.271   4.040
12723TIP3    H238113   7.468   7.395   3.991
12724TIP3   OH238114   7.202   6.990   4.188
12724TIP3    H138115   7.135   7.035   4.244
12724TIP3    H238116   7.214   7.058   4.119
12725TIP3   OH238117   8.343   6.631   5.076
12725TIP3    H138118   8.311   6.680   5.154
12725TIP3    H238119   8.327   6.540   5.108
12726TIP3   OH238120   7.735   7.492   3.943
12726TIP3    H138121   7.645   7.512   3.976
12726TIP3    H238122   7.746   7.568   3.883
12727TIP3   OH238123   7.916   6.562   4.347
12727TIP3    H138124   7.986   6.629   4.327
12727TIP3    H238125   7.927   6.553   4.444
12728TIP3   OH238126   8.084   6.288   4.443
12728TIP3    H138127   8.061   6.369   4.492
12728TIP3    H238128   8.170   6.317   4.403
12729TIP3   OH238129   7.478   7.568   4.002
12729TIP3    H138130   7.447   7.639   3.941
12729TIP3    H238131   7.466   7.611   4.089
12730TIP3   OH238132   7.579   6.285   4.237
12730TIP3    H138133   7.577   6.375   4.275
12730TIP3    H238134   7.675   6.265   4.246
12731TIP3   OH238135   8.506   6.932   4.515
12731TIP3    H138136   8.411   6.911   4.511
12731TIP3    H238137   8.518   6.944   4.610
12732TIP3   OH238138   7.197   7.195   3.992
12732TIP3    H138139   7.265   7.264   4.000
12732TIP3    H238140   7.241   7.138   3.924
12733TIP3   OH238141   7.137   6.475   4.125
12733TIP3    H138142   7.139   6.572   4.123
12733TIP3    H238143   7.050   6.457   4.087
12734TIP3   OH238144   7.530   6.195   4.997
12734TIP3    H138145   7.498   6.160   4.911
12734TIP3    H238146   7.518   6.118   5.056
12735TIP3   OH238147   7.064   7.413   4.376
12735TIP3    H138148   6.999   7.443   4.441
12735TIP3    H238149   7.030   7.456   4.294
12736TIP3   OH238150   7.685   7.491   3.623
12736TIP3    H138151   7.628   7.419   3.659
12736TIP3    H238152   7.758   7.438   3.585
12737TIP3   OH238153   7.333   7.010   3.846
12737TIP3    H138154   7.388   6.979   3.919
12737TIP3    H238155   7.400   7.016   3.775
12738TIP3   OH238156   7.818   7.200   3.656
12738TIP3    H138157   7.819   7.212   3.752
12738TIP3    H238158   7.836   7.104   3.648
12739TIP3   OH238159   7.540   6.919   4.066
12739TIP3    H138160   7.511   6.877   4.148
12739TIP3    H238161   7.577   6.843   4.016
12740TIP3   OH238162   7.795   6.978   5.300
12740TIP3    H138163   7.751   7.058   5.333
12740TIP3    H238164   7.823   7.006   5.212
12741TIP3   OH238165   7.642   6.713   3.907
12741TIP3    H138166   7.618   6.721   3.812
12741TIP3    H238167   7.740   6.714   3.901
12742TIP3   OH238168   7.888   6.759   5.448
12742TIP3    H138169   7.920   6.695   5.383
12742TIP3    H238170   7.866   6.836   5.390
12743TIP3   OH238171   7.935   6.549   5.226
12743TIP3    H138172   7.961   6.583   5.139
12743TIP3    H238173   7.839   6.531   5.212
12744TIP3   OH238174   8.064   6.322   5.317
12744TIP3    H138175   8.013   6.399   5.284
12744TIP3    H238176   8.000   6.249   5.299
12745TIP3   OH238177   7.647   6.651   5.746
12745TIP3    H138178   7.658   6.608   5.662
12745TIP3    H238179   7.720   6.718   5.747
12746TIP3   OH238180   8.170   6.329   5.572
12746TIP3    H138181   8.226   6.255   5.550
12746TIP3    H238182   8.120   6.339   5.488
12747TIP3   OH238183   7.442   7.777   3.822
12747TIP3    H138184   7.537   7.759   3.808
12747TIP3    H238185   7.421   7.821   3.737
12748TIP3   OH238186   6.928   7.156   4.027
12748TIP3    H138187   7.023   7.176   4.014
12748TIP3    H238188   6.921   7.067   3.986
12749TIP3   OH238189   6.845   7.767   4.442
12749TIP3    H138190   6.778   7.706   4.404
12749TIP3    H238191   6.889   7.708   4.506
12750TIP3   OH238192   6.979   7.614   4.628
12750TIP3    H138193   6.962   7.544   4.694
12750TIP3    H238194   7.029   7.678   4.681
12751TIP3   OH238195   8.524   6.675   3.708
12751TIP3    H138196   8.489   6.712   3.626
12751TIP3    H238197   8.506   6.580   3.696
12752TIP3   OH238198   8.541   6.952   4.242
12752TIP3    H138199   8.544   6.857   4.217
12752TIP3    H238200   8.542   6.946   4.340
12753TIP3   OH238201   7.160   7.021   5.000
12753TIP3    H138202   7.152   6.988   4.907
12753TIP3    H238203   7.257   7.016   5.011
12754TIP3   OH238204   8.476   6.403   3.701
12754TIP3    H138205   8.502   6.374   3.788
12754TIP3    H238206   8.388   6.360   3.690
12755TIP3   OH238207   8.524   6.682   4.155
12755TIP3    H138208   8.502   6.600   4.204
12755TIP3    H238209   8.577   6.651   4.081
12756TIP3   OH238210   7.374   6.693   5.674
12756TIP3    H138211   7.467   6.691   5.703
12756TIP3    H238212   7.340   6.614   5.722
12757TIP3   OH238213   7.345   6.404   5.007
12757TIP3    H138214   7.406   6.328   5.014
12757TIP3    H238215   7.408   6.478   4.997
12758TIP3   OH238216   7.145   6.676   5.078
12758TIP3    H138217   7.193   6.670   4.994
12758TIP3    H238218   7.175   6.762   5.111
12759TIP3   OH238219   7.131   6.180   4.580
12759TIP3    H138220   7.038   6.175   4.608
12759TIP3    H238221   7.125   6.239   4.502
12760TIP3   OH238222   7.353   6.266   5.406
12760TIP3    H138223   7.295   6.257   5.483
12760TIP3    H238224   7.290   6.300   5.339
12761TIP3   OH238225   7.158   7.768   4.787
12761TIP3    H138226   7.188   7.740   4.876
12761TIP3    H238227   7.227   7.726   4.732
12762TIP3   OH238228   7.342   7.638   4.641
12762TIP3    H138229   7.359   7.555   4.692
12762TIP3    H238230   7.434   7.671   4.629
12763TIP3   OH238231   7.603   7.715   4.641
12763TIP3    H138232   7.643   7.626   4.646
12763TIP3    H238233   7.635   7.756   4.721
12764TIP3   OH238234   8.189   6.386   4.740
12764TIP3    H138235   8.143   6.313   4.786
12764TIP3    H238236   8.251   6.338   4.682
12765TIP3   OH238237   8.726   6.271   4.640
12765TIP3    H138238   8.762   6.343   4.585
12765TIP3    H238239   8.630   6.291   4.639
12766TIP3   OH238240   8.863   6.384   4.416
12766TIP3    H138241   8.845   6.336   4.334
12766TIP3    H238242   8.796   6.454   4.417
12767TIP3   OH238243   7.440   6.102   4.750
12767TIP3    H138244   7.347   6.070   4.753
12767TIP3    H238245   7.487   6.016   4.746
12768TIP3   OH238246   7.232   5.973   4.398
12768TIP3    H138247   7.259   6.032   4.325
12768TIP3    H238248   7.202   6.037   4.465
12769TIP3   OH238249   7.884   6.134   4.632
12769TIP3    H138250   7.941   6.176   4.566
12769TIP3    H238251   7.914   6.175   4.714
12770TIP3   OH238252   8.457   6.289   4.621
12770TIP3    H138253   8.425   6.307   4.529
12770TIP3    H238254   8.419   6.202   4.643
12771TIP3   OH238255   6.944   7.547   4.175
12771TIP3    H138256   6.858   7.514   4.144
12771TIP3    H238257   6.935   7.641   4.151
12772TIP3   OH238258   7.347   6.131   4.162
12772TIP3    H138259   7.394   6.068   4.104
12772TIP3    H238260   7.421   6.185   4.197
12773TIP3   OH238261   7.857   6.309   4.265
12773TIP3    H138262   7.927   6.263   4.315
12773TIP3    H238263   7.879   6.402   4.288
12774TIP3   OH238264   7.709   7.718   3.781
12774TIP3    H138265   7.775   7.777   3.737
12774TIP3    H238266   7.698   7.648   3.712
12775TIP3   OH238267   7.635   6.397   5.627
12775TIP3    H138268   7.602   6.304   5.630
12775TIP3    H238269   7.709   6.382   5.566
12776TIP3   OH238270   7.878   6.373   5.782
12776TIP3    H138271   7.959   6.410   5.745
12776TIP3    H238272   7.883   6.280   5.753
12777TIP3   OH238273   7.019   7.566   3.815
12777TIP3    H138274   7.021   7.590   3.909
12777TIP3    H238275   7.107   7.524   3.802
12778TIP3   OH238276   1.370   7.442   6.402
12778TIP3    H138277   1.403   7.517   6.456
12778TIP3    H238278   1.422   7.457   6.321
12779TIP3   OH238279   0.837   7.393   6.065
12779TIP3    H138280   0.821   7.310   6.112
12779TIP3    H238281   0.771   7.386   5.992
12780TIP3   OH238282   1.465   7.623   6.592
12780TIP3    H138283   1.407   7.695   6.567
12780TIP3    H238284   1.442   7.609   6.686
12781TIP3   OH238285   1.084   7.417   6.228
12781TIP3    H138286   1.038   7.346   6.272
12781TIP3    H238287   1.172   7.413   6.270
12782TIP3   OH238288   1.193   7.350   6.600
12782TIP3    H138289   1.110   7.390   6.573
12782TIP3    H238290   1.254   7.376   6.528
12783TIP3   OH238291   1.113   6.926   5.684
12783TIP3    H138292   1.034   6.951   5.737
12783TIP3    H238293   1.123   7.005   5.628
12784TIP3   OH238294   1.155   7.558   5.583
12784TIP3    H138295   1.093   7.515   5.520
12784TIP3    H238296   1.148   7.649   5.547
12785TIP3   OH238297   1.267   7.535   6.796
12785TIP3    H138298   1.185   7.527   6.847
12785TIP3    H238299   1.255   7.463   6.732
12786TIP3   OH238300   0.931   7.826   5.253
12786TIP3    H138301   0.880   7.782   5.181
12786TIP3    H238302   0.908   7.919   5.240
12787TIP3   OH238303   1.057   7.999   5.592
12787TIP3    H138304   1.127   8.063   5.567
12787TIP3    H238305   1.093   7.963   5.676
12788TIP3   OH238306   1.177   7.877   5.808
12788TIP3    H138307   1.124   7.878   5.889
12788TIP3    H238308   1.262   7.915   5.839
12789TIP3   OH238309   1.119   7.785   5.440
12789TIP3    H138310   1.048   7.788   5.372
12789TIP3    H238311   1.089   7.861   5.496
12790TIP3   OH238312   0.999   7.469   5.379
12790TIP3    H138313   0.930   7.507   5.324
12790TIP3    H238314   0.973   7.374   5.378
12791TIP3   OH238315   0.935   7.207   5.404
12791TIP3    H138316   1.019   7.175   5.442
12791TIP3    H238317   0.874   7.134   5.426
12792TIP3   OH238318   1.046   7.475   5.884
12792TIP3    H138319   1.066   7.381   5.863
12792TIP3    H238320   1.037   7.512   5.794
12793TIP3   OH238321   1.737   7.388   7.109
12793TIP3    H138322   1.763   7.306   7.059
12793TIP3    H238323   1.689   7.434   7.039
12794TIP3   OH238324   1.092   7.205   5.877
12794TIP3    H138325   1.146   7.184   5.956
12794TIP3    H238326   1.030   7.129   5.877
12795TIP3   OH238327   1.612   7.445   6.870
12795TIP3    H138328   1.549   7.500   6.919
12795TIP3    H238329   1.552   7.380   6.830
12796TIP3   OH238330   1.185   7.139   5.510
12796TIP3    H138331   1.249   7.071   5.484
12796TIP3    H238332   1.242   7.218   5.516
12797TIP3   OH238333   1.436   7.252   6.775
12797TIP3    H138334   1.345   7.224   6.752
12797TIP3    H238335   1.480   7.164   6.774
12798TIP3   OH238336   1.179   7.054   6.318
12798TIP3    H138337   1.220   7.105   6.246
12798TIP3    H238338   1.085   7.081   6.310
12799TIP3   OH238339   1.261   7.165   6.087
12799TIP3    H138340   1.334   7.108   6.055
12799TIP3    H238341   1.302   7.253   6.070
12800TIP3   OH238342   0.914   7.106   6.281
12800TIP3    H138343   0.838   7.078   6.229
12800TIP3    H238344   0.913   7.034   6.348
12801TIP3   OH238345   0.912   6.988   5.867
12801TIP3    H138346   0.821   7.014   5.849
12801TIP3    H238347   0.898   6.904   5.916
12802TIP3   OH238348   2.382   8.139   5.503
12802TIP3    H138349   2.344   8.225   5.478
12802TIP3    H238350   2.312   8.081   5.470
12803TIP3   OH238351   2.382   8.155   5.880
12803TIP3    H138352   2.417   8.131   5.968
12803TIP3    H238353   2.342   8.071   5.852
12804TIP3   OH238354   1.701   8.066   6.253
12804TIP3    H138355   1.711   7.989   6.311
12804TIP3    H238356   1.782   8.062   6.198
12805TIP3   OH238357   2.598   8.456   5.569
12805TIP3    H138358   2.596   8.384   5.633
12805TIP3    H238359   2.653   8.522   5.614
12806TIP3   OH238360   1.728   8.369   6.061
12806TIP3    H138361   1.674   8.315   6.002
12806TIP3    H238362   1.805   8.394   6.004
12807TIP3   OH238363   1.358   7.648   5.748
12807TIP3    H138364   1.321   7.733   5.774
12807TIP3    H238365   1.281   7.608   5.702
12808TIP3   OH238366   1.422   7.945   5.899
12808TIP3    H138367   1.464   7.873   5.951
12808TIP3    H238368   1.496   8.008   5.892
12809TIP3   OH238369   2.195   8.370   5.921
12809TIP3    H138370   2.243   8.292   5.888
12809TIP3    H238371   2.273   8.424   5.947
12810TIP3   OH238372   3.192   7.701   5.924
12810TIP3    H138373   3.223   7.784   5.965
12810TIP3    H238374   3.217   7.716   5.831
12811TIP3   OH238375   2.590   7.882   5.955
12811TIP3    H138376   2.634   7.797   5.978
12811TIP3    H238377   2.558   7.863   5.865
12812TIP3   OH238378   1.930   7.542   5.922
12812TIP3    H138379   1.911   7.614   5.859
12812TIP3    H238380   1.881   7.469   5.879
12813TIP3   OH238381   2.625   7.635   5.542
12813TIP3    H138382   2.696   7.619   5.609
12813TIP3    H238383   2.679   7.668   5.468
12814TIP3   OH238384   1.561   7.744   6.030
12814TIP3    H138385   1.641   7.723   6.081
12814TIP3    H238386   1.577   7.692   5.949
12815TIP3   OH238387   1.999   7.941   5.834
12815TIP3    H138388   2.094   7.918   5.842
12815TIP3    H238389   1.962   7.857   5.798
12816TIP3   OH238390   3.267   7.911   6.092
12816TIP3    H138391   3.181   7.955   6.075
12816TIP3    H238392   3.281   7.935   6.185
12817TIP3   OH238393   1.927   7.525   6.357
12817TIP3    H138394   1.864   7.560   6.292
12817TIP3    H238395   1.875   7.537   6.440
12818TIP3   OH238396   2.259   8.342   5.366
12818TIP3    H138397   2.218   8.342   5.278
12818TIP3    H238398   2.290   8.434   5.375
12819TIP3   OH238399   2.036   8.308   6.151
12819TIP3    H138400   1.989   8.385   6.190
12819TIP3    H238401   2.074   8.350   6.072
12820TIP3   OH238402   2.829   7.639   5.720
12820TIP3    H138403   2.820   7.591   5.803
12820TIP3    H238404   2.883   7.716   5.747
12821TIP3   OH238405   1.795   7.639   6.142
12821TIP3    H138406   1.858   7.710   6.166
12821TIP3    H238407   1.845   7.598   6.067
12822TIP3   OH238408   1.261   8.155   5.497
12822TIP3    H138409   1.221   8.175   5.411
12822TIP3    H238410   1.274   8.246   5.529
12823TIP3   OH238411   2.986   7.601   6.090
12823TIP3    H138412   2.899   7.628   6.057
12823TIP3    H238413   3.046   7.633   6.020
12824TIP3   OH238414   2.276   7.240   6.070
12824TIP3    H138415   2.264   7.145   6.092
12824TIP3    H238416   2.200   7.279   6.118
12825TIP3   OH238417   2.631   8.472   5.287
12825TIP3    H138418   2.604   8.391   5.240
12825TIP3    H238419   2.640   8.442   5.379
12826TIP3   OH238420   2.915   8.612   6.073
12826TIP3    H138421   2.898   8.534   6.017
12826TIP3    H238422   2.939   8.681   6.008
12827TIP3   OH238423   2.213   8.001   5.333
12827TIP3    H138424   2.133   8.053   5.315
12827TIP3    H238425   2.257   7.999   5.246
12828TIP3   OH238426   2.169   7.792   5.042
12828TIP3    H138427   2.236   7.844   5.090
12828TIP3    H238428   2.228   7.729   4.994
12829TIP3   OH238429   3.117   8.254   5.917
12829TIP3    H138430   3.032   8.302   5.923
12829TIP3    H238431   3.144   8.278   5.826
12830TIP3   OH238432   2.560   8.081   5.303
12830TIP3    H138433   2.505   8.101   5.383
12830TIP3    H238434   2.645   8.056   5.346
12831TIP3   OH238435   2.792   8.127   6.214
12831TIP3    H138436   2.791   8.207   6.270
12831TIP3    H238437   2.705   8.135   6.170
12832TIP3   OH238438   1.800   8.088   5.706
12832TIP3    H138439   1.757   8.027   5.642
12832TIP3    H238440   1.873   8.033   5.742
12833TIP3   OH238441   1.934   8.462   5.911
12833TIP3    H138442   1.895   8.461   5.822
12833TIP3    H238443   2.029   8.444   5.895
12834TIP3   OH238444   1.913   8.065   6.075
12834TIP3    H138445   1.951   8.038   5.988
12834TIP3    H238446   1.959   8.151   6.091
12835TIP3   OH238447   2.393   7.949   5.126
12835TIP3    H138448   2.455   8.006   5.176
12835TIP3    H238449   2.423   7.963   5.033
12836TIP3   OH238450   2.915   7.187   5.174
12836TIP3    H138451   2.833   7.209   5.224
12836TIP3    H238452   2.929   7.269   5.123
12837TIP3   OH238453   1.662   7.929   5.517
12837TIP3    H138454   1.593   7.972   5.460
12837TIP3    H238455   1.619   7.846   5.539
12838TIP3   OH238456   3.050   8.089   6.391
12838TIP3    H138457   2.962   8.100   6.350
12838TIP3    H238458   3.064   7.993   6.380
12839TIP3   OH238459   2.041   7.319   6.202
12839TIP3    H138460   1.952   7.290   6.174
12839TIP3    H238461   2.015   7.400   6.252
12840TIP3   OH238462   2.577   7.434   6.396
12840TIP3    H138463   2.647   7.406   6.459
12840TIP3    H238464   2.495   7.414   6.445
12841TIP3   OH238465   2.813   7.866   6.311
12841TIP3    H138466   2.762   7.860   6.395
12841TIP3    H238467   2.790   7.954   6.277
12842TIP3   OH238468   2.476   7.976   4.872
12842TIP3    H138469   2.442   7.955   4.783
12842TIP3    H238470   2.543   8.044   4.850
12843TIP3   OH238471   2.182   7.370   5.171
12843TIP3    H138472   2.150   7.365   5.264
12843TIP3    H238473   2.147   7.285   5.138
12844TIP3   OH238474   1.973   7.839   6.218
12844TIP3    H138475   1.932   7.863   6.304
12844TIP3    H238476   1.957   7.920   6.166
12845TIP3   OH238477   1.858   7.724   5.733
12845TIP3    H138478   1.765   7.698   5.753
12845TIP3    H238479   1.869   7.681   5.645
12846TIP3   OH238480   2.350   7.803   5.464
12846TIP3    H138481   2.298   7.872   5.418
12846TIP3    H238482   2.406   7.769   5.391
12847TIP3   OH238483   2.524   8.081   6.533
12847TIP3    H138484   2.506   8.012   6.600
12847TIP3    H238485   2.617   8.103   6.552
12848TIP3   OH238486   2.504   7.833   5.699
12848TIP3    H138487   2.442   7.860   5.628
12848TIP3    H238488   2.541   7.753   5.655
12849TIP3   OH238489   1.793   7.860   6.433
12849TIP3    H138490   1.844   7.898   6.506
12849TIP3    H238491   1.768   7.773   6.470
12850TIP3   OH238492   1.841   7.340   5.138
12850TIP3    H138493   1.835   7.338   5.236
12850TIP3    H238494   1.767   7.398   5.116
12851TIP3   OH238495   1.386   7.387   6.012
12851TIP3    H138496   1.457   7.423   6.069
12851TIP3    H238497   1.432   7.369   5.929
12852TIP3   OH238498   1.351   7.365   5.525
12852TIP3    H138499   1.403   7.395   5.448
12852TIP3    H238500   1.296   7.444   5.543
12853TIP3   OH238501   2.512   8.080   6.120
12853TIP3    H138502   2.547   8.008   6.062
12853TIP3    H238503   2.484   8.026   6.197
12854TIP3   OH238504   2.188   7.547   5.794
12854TIP3    H138505   2.109   7.543   5.851
12854TIP3    H238506   2.260   7.535   5.859
12855TIP3   OH238507   1.620   7.600   5.802
12855TIP3    H138508   1.526   7.605   5.774
12855TIP3    H238509   1.646   7.509   5.779
12856TIP3   OH238510   1.884   7.594   5.493
12856TIP3    H138511   1.979   7.608   5.475
12856TIP3    H238512   1.840   7.617   5.409
12857TIP3   OH238513   2.678   7.621   5.998
12857TIP3    H138514   2.645   7.633   6.090
12857TIP3    H238515   2.612   7.560   5.963
12858TIP3   OH238516   1.733   7.632   5.267
12858TIP3    H138517   1.668   7.585   5.213
12858TIP3    H238518   1.789   7.672   5.197
12859TIP3   OH238519   2.267   7.875   5.892
12859TIP3    H138520   2.339   7.835   5.841
12859TIP3    H238521   2.273   7.829   5.977
12860TIP3   OH238522   1.785   7.360   5.774
12860TIP3    H138523   1.751   7.282   5.822
12860TIP3    H238524   1.840   7.319   5.706
12861TIP3   OH238525   2.244   7.771   6.179
12861TIP3    H138526   2.154   7.807   6.195
12861TIP3    H238527   2.302   7.830   6.230
12862TIP3   OH238528   1.982   8.144   5.283
12862TIP3    H138529   1.904   8.087   5.269
12862TIP3    H238530   1.958   8.189   5.368
12863TIP3   OH238531   2.880   8.392   5.908
12863TIP3    H138532   2.907   8.442   5.828
12863TIP3    H238533   2.796   8.350   5.880
12864TIP3   OH238534   2.438   7.467   5.147
12864TIP3    H138535   2.340   7.451   5.151
12864TIP3    H238536   2.446   7.563   5.167
12865TIP3   OH238537   2.417   8.481   6.271
12865TIP3    H138538   2.460   8.440   6.347
12865TIP3    H238539   2.339   8.522   6.314
12866TIP3   OH238540   2.507   7.720   5.245
12866TIP3    H138541   2.604   7.725   5.259
12866TIP3    H238542   2.489   7.799   5.191
12867TIP3   OH238543   1.640   8.117   5.931
12867TIP3    H138544   1.697   8.116   5.851
12867TIP3    H238545   1.705   8.101   6.001
12868TIP3   OH238546   2.091   8.333   5.119
12868TIP3    H138547   2.049   8.402   5.175
12868TIP3    H238548   2.056   8.253   5.165
12869TIP3   OH238549   2.273   8.197   6.577
12869TIP3    H138550   2.258   8.193   6.481
12869TIP3    H238551   2.368   8.180   6.581
12870TIP3   OH238552   2.947   7.814   5.079
12870TIP3    H138553   2.885   7.769   5.016
12870TIP3    H238554   2.945   7.902   5.038
12871TIP3   OH238555   3.168   8.654   6.166
12871TIP3    H138556   3.071   8.663   6.149
12871TIP3    H238557   3.198   8.640   6.073
12872TIP3   OH238558   2.644   8.264   5.809
12872TIP3    H138559   2.553   8.237   5.831
12872TIP3    H238560   2.679   8.180   5.772
12873TIP3   OH238561   1.344   7.787   5.284
12873TIP3    H138562   1.388   7.872   5.303
12873TIP3    H238563   1.266   7.793   5.344
12874TIP3   OH238564   1.908   8.265   5.520
12874TIP3    H138565   1.869   8.345   5.557
12874TIP3    H238566   1.882   8.200   5.589
12875TIP3   OH238567   2.438   8.464   5.997
12875TIP3    H138568   2.429   8.471   6.095
12875TIP3    H238569   2.522   8.417   5.989
12876TIP3   OH238570   2.441   8.294   4.860
12876TIP3    H138571   2.472   8.281   4.951
12876TIP3    H238572   2.360   8.347   4.873
12877TIP3   OH238573   1.767   7.602   6.575
12877TIP3    H138574   1.670   7.593   6.587
12877TIP3    H238575   1.800   7.546   6.646
12878TIP3   OH238576   2.565   8.268   5.108
12878TIP3    H138577   2.561   8.196   5.174
12878TIP3    H238578   2.661   8.269   5.087
12879TIP3   OH238579   1.747   8.284   4.939
12879TIP3    H138580   1.792   8.200   4.914
12879TIP3    H238581   1.792   8.306   5.021
12880TIP3   OH238582   1.459   8.030   5.359
12880TIP3    H138583   1.393   8.067   5.422
12880TIP3    H238584   1.463   8.102   5.293
12881TIP3   OH238585   2.603   7.671   6.257
12881TIP3    H138586   2.683   7.711   6.296
12881TIP3    H238587   2.591   7.591   6.312
12882TIP3   OH238588   2.482   7.421   5.425
12882TIP3    H138589   2.470   7.441   5.331
12882TIP3    H238590   2.523   7.503   5.460
12883TIP3   OH238591   2.165   7.605   5.525
12883TIP3    H138592   2.232   7.675   5.507
12883TIP3    H238593   2.174   7.595   5.622
12884TIP3   OH238594   2.438   7.918   6.326
12884TIP3    H138595   2.463   7.973   6.402
12884TIP3    H238596   2.493   7.839   6.338
12885TIP3   OH238597   2.313   7.324   5.623
12885TIP3    H138598   2.313   7.398   5.685
12885TIP3    H238599   2.375   7.358   5.554
12886TIP3   OH238600   1.827   7.330   5.413
12886TIP3    H138601   1.826   7.420   5.452
12886TIP3    H238602   1.923   7.310   5.422
12887TIP3   OH238603   3.079   7.822   6.310
12887TIP3    H138604   2.981   7.822   6.317
12887TIP3    H238605   3.089   7.771   6.228
12888TIP3   OH238606   2.731   8.016   5.701
12888TIP3    H138607   2.655   7.956   5.713
12888TIP3    H238608   2.802   7.969   5.749
12889TIP3   OH238609   1.449   8.245   5.171
12889TIP3    H138610   1.481   8.337   5.165
12889TIP3    H238611   1.508   8.199   5.108
12890TIP3   OH238612   1.376   7.513   5.288
12890TIP3    H138613   1.397   7.609   5.289
12890TIP3    H238614   1.280   7.516   5.295
12891TIP3   OH238615   1.774   7.242   6.175
12891TIP3    H138616   1.746   7.204   6.089
12891TIP3    H238617   1.766   7.164   6.235
12892TIP3   OH238618   1.577   8.045   5.030
12892TIP3    H138619   1.629   8.013   5.106
12892TIP3    H238620   1.649   8.050   4.963
12893TIP3   OH238621   2.019   8.227   4.845
12893TIP3    H138622   2.065   8.248   4.928
12893TIP3    H238623   2.054   8.138   4.826
12894TIP3   OH238624   2.702   8.488   6.206
12894TIP3    H138625   2.760   8.555   6.164
12894TIP3    H238626   2.617   8.534   6.207
12895TIP3   OH238627   1.776   7.961   5.237
12895TIP3    H138628   1.753   7.919   5.322
12895TIP3    H238629   1.819   7.888   5.189
12896TIP3   OH238630   2.053   8.013   6.462
12896TIP3    H138631   2.064   8.087   6.524
12896TIP3    H238632   2.109   8.046   6.388
12897TIP3   OH238633   1.892   7.757   5.086
12897TIP3    H138634   1.868   7.758   4.991
12897TIP3    H238635   1.990   7.759   5.079
12898TIP3   OH238636   2.570   8.406   6.557
12898TIP3    H138637   2.665   8.421   6.550
12898TIP3    H238638   2.562   8.370   6.646
12899TIP3   OH238639   2.707   8.095   4.746
12899TIP3    H138640   2.686   8.041   4.667
12899TIP3    H238641   2.686   8.184   4.711
12900TIP3   OH238642   2.189   7.811   6.584
12900TIP3    H138643   2.191   7.729   6.531
12900TIP3    H238644   2.144   7.873   6.523
12901TIP3   OH238645   2.185   7.600   6.403
12901TIP3    H138646   2.213   7.639   6.318
12901TIP3    H238647   2.091   7.576   6.385
12902TIP3   OH238648   2.210   8.144   6.288
12902TIP3    H138649   2.292   8.146   6.236
12902TIP3    H238650   2.153   8.207   6.239
12903TIP3   OH238651   2.799   8.095   6.626
12903TIP3    H138652   2.846   8.011   6.637
12903TIP3    H238653   2.873   8.157   6.623
12904TIP3   OH238654   2.838   8.349   6.389
12904TIP3    H138655   2.778   8.401   6.331
12904TIP3    H238656   2.925   8.373   6.349
12905TIP3   OH238657   2.045   7.914   6.801
12905TIP3    H138658   1.990   7.833   6.813
12905TIP3    H238659   2.090   7.895   6.716
12906TIP3   OH238660   2.316   7.363   6.476
12906TIP3    H138661   2.266   7.444   6.452
12906TIP3    H238662   2.247   7.294   6.465
12907TIP3   OH238663   2.448   7.863   6.678
12907TIP3    H138664   2.424   7.840   6.770
12907TIP3    H238665   2.361   7.846   6.636
12908TIP3   OH238666   2.681   7.810   6.537
12908TIP3    H138667   2.606   7.818   6.599
12908TIP3    H238668   2.754   7.781   6.596
12909TIP3   OH238669   2.905   7.752   6.691
12909TIP3    H138670   2.922   7.656   6.700
12909TIP3    H238671   2.906   7.781   6.785
12910TIP3   OH238672   1.895   7.703   6.881
12910TIP3    H138673   1.879   7.618   6.837
12910TIP3    H238674   1.943   7.672   6.961
12911TIP3   OH238675   2.410   7.369   6.734
12911TIP3    H138676   2.476   7.298   6.726
12911TIP3    H238677   2.369   7.366   6.645
12912TIP3   OH238678   2.482   7.586   6.888
12912TIP3    H138679   2.464   7.511   6.827
12912TIP3    H238680   2.400   7.639   6.877
12913TIP3   OH238681   1.187   8.157   5.201
12913TIP3    H138682   1.275   8.192   5.175
12913TIP3    H238683   1.179   8.078   5.145
12914TIP3   OH238684   2.837   8.264   5.088
12914TIP3    H138685   2.907   8.324   5.054
12914TIP3    H238686   2.884   8.225   5.166
12915TIP3   OH238687   2.973   8.138   5.288
12915TIP3    H138688   2.909   8.094   5.348
12915TIP3    H238689   3.040   8.172   5.350
12916TIP3   OH238690   3.014   8.527   5.714
12916TIP3    H138691   3.078   8.469   5.669
12916TIP3    H238692   3.017   8.609   5.663
12917TIP3   OH238693   2.909   8.049   4.929
12917TIP3    H138694   2.839   8.052   4.860
12917TIP3    H238695   2.880   8.123   4.985
12918TIP3   OH238696   2.781   7.722   4.886
12918TIP3    H138697   2.739   7.755   4.806
12918TIP3    H238698   2.758   7.626   4.880
12919TIP3   OH238699   2.788   7.995   5.433
12919TIP3    H138700   2.796   7.899   5.422
12919TIP3    H238701   2.774   8.005   5.530
12920TIP3   OH238702   1.419   8.042   6.179
12920TIP3    H138703   1.424   8.055   6.084
12920TIP3    H238704   1.508   8.069   6.208
12921TIP3   OH238705   3.082   8.420   6.293
12921TIP3    H138706   3.152   8.353   6.281
12921TIP3    H238707   3.104   8.486   6.225
12922TIP3   OH238708   3.266   8.223   6.296
12922TIP3    H138709   3.190   8.175   6.337
12922TIP3    H238710   3.338   8.159   6.316
12923TIP3   OH238711   2.724   7.457   4.874
12923TIP3    H138712   2.800   7.422   4.925
12923TIP3    H238713   2.653   7.393   4.890
12924TIP3   OH238714   2.786   7.715   5.322
12924TIP3    H138715   2.825   7.626   5.338
12924TIP3    H238716   2.843   7.745   5.250
12925TIP3   OH238717   2.943   7.885   5.820
12925TIP3    H138718   3.030   7.909   5.779
12925TIP3    H238719   2.959   7.921   5.909
12926TIP3   OH238720   3.016   8.031   6.050
12926TIP3    H138721   2.939   8.064   6.101
12926TIP3    H238722   3.048   8.112   6.007
12927TIP3   OH238723   3.464   7.622   6.605
12927TIP3    H138724   3.526   7.557   6.565
12927TIP3    H238725   3.437   7.675   6.528
12928TIP3   OH238726   2.891   7.464   5.364
12928TIP3    H138727   2.940   7.447   5.447
12928TIP3    H238728   2.831   7.387   5.362
12929TIP3   OH238729   1.587   7.448   6.189
12929TIP3    H138730   1.650   7.374   6.196
12929TIP3    H238731   1.649   7.523   6.179
12930TIP3   OH238732   1.392   7.735   6.257
12930TIP3    H138733   1.441   7.729   6.174
12930TIP3    H238734   1.392   7.830   6.272
12931TIP3   OH238735   3.336   7.761   6.408
12931TIP3    H138736   3.251   7.802   6.432
12931TIP3    H238737   3.303   7.687   6.353
12932TIP3   OH238738   2.971   7.394   4.997
12932TIP3    H138739   3.010   7.324   4.941
12932TIP3    H238740   3.039   7.464   4.992
12933TIP3   OH238741   1.377   7.222   5.752
12933TIP3    H138742   1.286   7.225   5.783
12933TIP3    H238743   1.376   7.284   5.677
12934TIP3   OH238744   1.601   7.311   6.555
12934TIP3    H138745   1.549   7.296   6.636
12934TIP3    H238746   1.532   7.340   6.494
12935TIP3   OH238747   3.236   7.521   6.292
12935TIP3    H138748   3.145   7.509   6.258
12935TIP3    H238749   3.271   7.429   6.283
12936TIP3   OH238750   2.435   7.435   5.906
12936TIP3    H138751   2.397   7.364   5.961
12936TIP3    H238752   2.513   7.392   5.866
12937TIP3   OH238753   2.960   7.321   5.817
12937TIP3    H138754   2.997   7.371   5.740
12937TIP3    H238755   2.864   7.339   5.808
12938TIP3   OH238756   3.056   7.418   5.580
12938TIP3    H138757   3.130   7.366   5.542
12938TIP3    H238758   3.091   7.509   5.565
12939TIP3   OH238759   1.688   7.144   5.926
12939TIP3    H138760   1.596   7.112   5.932
12939TIP3    H238761   1.737   7.059   5.924
12940TIP3   OH238762   1.455   7.019   5.567
12940TIP3    H138763   1.506   7.069   5.499
12940TIP3    H238764   1.444   7.087   5.637
12941TIP3   OH238765   2.132   7.181   5.811
12941TIP3    H138766   2.188   7.227   5.746
12941TIP3    H238767   2.166   7.216   5.894
12942TIP3   OH238768   2.674   7.326   5.792
12942TIP3    H138769   2.681   7.285   5.705
12942TIP3    H238770   2.664   7.247   5.850
12943TIP3   OH238771   2.709   7.251   5.355
12943TIP3    H138772   2.622   7.292   5.369
12943TIP3    H238773   2.697   7.164   5.400
12944TIP3   OH238774   1.597   7.157   5.368
12944TIP3    H138775   1.627   7.112   5.287
12944TIP3    H238776   1.670   7.220   5.383
12945TIP3   OH238777   2.104   7.354   5.437
12945TIP3    H138778   2.165   7.306   5.497
12945TIP3    H238779   2.126   7.446   5.463
12946TIP3   OH238780   1.908   7.437   6.796
12946TIP3    H138781   1.850   7.388   6.856
12946TIP3    H238782   1.996   7.423   6.836
12947TIP3   OH238783   2.152   7.415   6.929
12947TIP3    H138784   2.237   7.389   6.888
12947TIP3    H238785   2.141   7.344   6.996
12948TIP3   OH238786   2.974   7.486   6.724
12948TIP3    H138787   2.991   7.455   6.815
12948TIP3    H238788   3.064   7.481   6.684
12949TIP3   OH238789   4.174   8.409   5.002
12949TIP3    H138790   4.135   8.486   4.956
12949TIP3    H238791   4.114   8.340   4.966
12950TIP3   OH238792   4.185   8.400   5.364
12950TIP3    H138793   4.207   8.372   5.456
12950TIP3    H238794   4.138   8.318   5.335
12951TIP3   OH238795   3.472   8.300   5.730
12951TIP3    H138796   3.499   8.231   5.793
12951TIP3    H238797   3.550   8.357   5.731
12952TIP3   OH238798   4.379   8.720   5.100
12952TIP3    H138799   4.430   8.639   5.104
12952TIP3    H238800   4.448   8.787   5.092
12953TIP3   OH238801   3.515   8.665   5.526
12953TIP3    H138802   3.476   8.577   5.507
12953TIP3    H238803   3.594   8.661   5.469
12954TIP3   OH238804   3.153   7.918   5.235
12954TIP3    H138805   3.104   8.000   5.252
12954TIP3    H238806   3.084   7.864   5.193
12955TIP3   OH238807   3.207   8.205   5.417
12955TIP3    H138808   3.256   8.126   5.449
12955TIP3    H238809   3.268   8.241   5.352
12956TIP3   OH238810   4.072   8.649   5.376
12956TIP3    H138811   4.011   8.577   5.355
12956TIP3    H238812   4.044   8.673   5.465
12957TIP3   OH238813   4.978   7.956   5.402
12957TIP3    H138814   5.013   8.034   5.451
12957TIP3    H238815   5.021   7.969   5.315
12958TIP3   OH238816   4.388   8.142   5.439
12958TIP3    H138817   4.430   8.057   5.464
12958TIP3    H238818   4.356   8.120   5.349
12959TIP3   OH238819   3.728   7.799   5.407
12959TIP3    H138820   3.706   7.870   5.344
12959TIP3    H238821   3.680   7.724   5.365
12960TIP3   OH238822   4.425   7.894   5.031
12960TIP3    H138823   4.497   7.873   5.094
12960TIP3    H238824   4.477   7.924   4.954
12961TIP3   OH238825   3.359   8.000   5.516
12961TIP3    H138826   3.441   7.979   5.564
12961TIP3    H238827   3.372   7.944   5.436
12962TIP3   OH238828   3.798   8.198   5.316
12962TIP3    H138829   3.891   8.172   5.327
12962TIP3    H238830   3.758   8.115   5.283
12963TIP3   OH238831   5.051   8.156   5.578
12963TIP3    H138832   4.970   8.208   5.566
12963TIP3    H238833   5.087   8.192   5.660
12964TIP3   OH238834   3.722   7.782   5.844
12964TIP3    H138835   3.661   7.817   5.777
12964TIP3    H238836   3.670   7.797   5.925
12965TIP3   OH238837   4.060   8.601   4.850
12965TIP3    H138838   4.014   8.589   4.765
12965TIP3    H238839   4.073   8.697   4.853
12966TIP3   OH238840   3.831   8.576   5.630
12966TIP3    H138841   3.764   8.601   5.696
12966TIP3    H238842   3.812   8.643   5.560
12967TIP3   OH238843   4.634   7.891   5.207
12967TIP3    H138844   4.614   7.851   5.292
12967TIP3    H238845   4.685   7.970   5.232
12968TIP3   OH238846   3.594   7.896   5.627
12968TIP3    H138847   3.657   7.967   5.651
12968TIP3    H238848   3.642   7.855   5.552
12969TIP3   OH238849   3.647   8.772   5.738
12969TIP3    H138850   3.594   8.737   5.663
12969TIP3    H238851   3.575   8.771   5.807
12970TIP3   OH238852   3.046   8.406   4.978
12970TIP3    H138853   3.013   8.411   4.885
12970TIP3    H238854   3.060   8.501   4.994
12971TIP3   OH238855   4.781   7.855   5.574
12971TIP3    H138856   4.696   7.888   5.542
12971TIP3    H238857   4.844   7.890   5.506
12972TIP3   OH238858   4.073   7.497   5.558
12972TIP3    H138859   4.061   7.402   5.578
12972TIP3    H238860   3.996   7.536   5.606
12973TIP3   OH238861   4.418   8.718   4.788
12973TIP3    H138862   4.398   8.656   4.715
12973TIP3    H238863   4.439   8.658   4.859
12974TIP3   OH238864   4.696   8.874   5.559
12974TIP3    H138865   4.699   8.794   5.502
12974TIP3    H238866   4.739   8.941   5.501
12975TIP3   OH238867   4.016   8.264   4.823
12975TIP3    H138868   3.932   8.311   4.803
12975TIP3    H238869   4.055   8.256   4.734
12976TIP3   OH238870   3.967   8.048   4.530
12976TIP3    H138871   4.035   8.102   4.573
12976TIP3    H238872   4.023   7.984   4.482
12977TIP3   OH238873   4.912   8.501   5.402
12977TIP3    H138874   4.834   8.559   5.408
12977TIP3    H238875   4.945   8.525   5.312
12978TIP3   OH238876   4.354   8.341   4.793
12978TIP3    H138877   4.301   8.358   4.874
12978TIP3    H238878   4.439   8.310   4.832
12979TIP3   OH238879   4.587   8.386   5.703
12979TIP3    H138880   4.586   8.469   5.753
12979TIP3    H238881   4.499   8.390   5.660
12980TIP3   OH238882   3.591   8.343   5.197
12980TIP3    H138883   3.546   8.285   5.132
12980TIP3    H238884   3.665   8.286   5.227
12981TIP3   OH238885   3.750   8.701   5.387
12981TIP3    H138886   3.685   8.701   5.314
12981TIP3    H238887   3.818   8.762   5.353
12982TIP3   OH238888   3.723   8.319   5.557
12982TIP3    H138889   3.751   8.286   5.469
12982TIP3    H238890   3.771   8.404   5.564
12983TIP3   OH238891   3.861   8.846   5.901
12983TIP3    H138892   3.827   8.807   5.983
12983TIP3    H238893   3.809   8.800   5.834
12984TIP3   OH238894   4.188   8.205   4.612
12984TIP3    H138895   4.251   8.263   4.660
12984TIP3    H238896   4.218   8.220   4.519
12985TIP3   OH238897   3.616   8.434   5.977
12985TIP3    H138898   3.620   8.515   6.031
12985TIP3    H238899   3.524   8.406   5.994
12986TIP3   OH238900   3.452   8.187   5.013
12986TIP3    H138901   3.387   8.228   4.952
12986TIP3    H238902   3.418   8.097   5.019
12987TIP3   OH238903   3.249   8.571   5.920
12987TIP3    H138904   3.177   8.555   5.857
12987TIP3    H238905   3.281   8.481   5.941
12988TIP3   OH238906   4.843   8.344   5.878
12988TIP3    H138907   4.761   8.354   5.828
12988TIP3    H238908   4.860   8.248   5.869
12989TIP3   OH238909   3.452   8.756   5.918
12989TIP3    H138910   3.493   8.723   6.000
12989TIP3    H238911   3.370   8.702   5.912
12990TIP3   OH238912   3.837   7.577   5.689
12990TIP3    H138913   3.749   7.545   5.659
12990TIP3    H238914   3.809   7.656   5.739
12991TIP3   OH238915   4.374   7.692   5.883
12991TIP3    H138916   4.444   7.663   5.944
12991TIP3    H238917   4.292   7.671   5.932
12992TIP3   OH238918   4.606   8.119   5.799
12992TIP3    H138919   4.559   8.116   5.885
12992TIP3    H238920   4.585   8.208   5.766
12993TIP3   OH238921   4.272   8.233   4.359
12993TIP3    H138922   4.238   8.212   4.270
12993TIP3    H238923   4.342   8.297   4.336
12994TIP3   OH238924   3.982   7.624   4.660
12994TIP3    H138925   3.947   7.620   4.751
12994TIP3    H238926   3.944   7.543   4.623
12995TIP3   OH238927   3.770   8.095   5.707
12995TIP3    H138928   3.719   8.112   5.789
12995TIP3    H238929   3.752   8.177   5.656
12996TIP3   OH238930   3.652   7.983   5.221
12996TIP3    H138931   3.560   7.954   5.239
12996TIP3    H238932   3.665   7.941   5.132
12997TIP3   OH238933   4.149   8.064   4.953
12997TIP3    H138934   4.096   8.131   4.904
12997TIP3    H238935   4.204   8.027   4.880
12998TIP3   OH238936   4.322   8.337   6.031
12998TIP3    H138937   4.299   8.266   6.095
12998TIP3    H238938   4.416   8.352   6.056
12999TIP3   OH238939   4.304   8.093   5.182
12999TIP3    H138940   4.239   8.110   5.110
12999TIP3    H238941   4.344   8.013   5.142
13000TIP3   OH238942   3.590   8.118   5.915
13000TIP3    H138943   3.617   8.177   5.987
13000TIP3    H238944   3.576   8.034   5.963
13001TIP3   OH238945   3.640   7.600   4.624
13001TIP3    H138946   3.629   7.598   4.721
13001TIP3    H238947   3.561   7.651   4.598
13002TIP3   OH238948   3.181   7.642   5.497
13002TIP3    H138949   3.258   7.673   5.549
13002TIP3    H238950   3.220   7.610   5.415
13003TIP3   OH238951   3.149   7.622   5.016
13003TIP3    H138952   3.194   7.658   4.937
13003TIP3    H238953   3.087   7.696   5.034
13004TIP3   OH238954   4.308   8.336   5.604
13004TIP3    H138955   4.344   8.262   5.549
13004TIP3    H238956   4.281   8.285   5.683
13005TIP3   OH238957   3.987   7.810   5.283
13005TIP3    H138958   3.906   7.801   5.337
13005TIP3    H238959   4.056   7.788   5.348
13006TIP3   OH238960   3.416   7.857   5.288
13006TIP3    H138961   3.322   7.864   5.260
13006TIP3    H238962   3.439   7.765   5.266
13007TIP3   OH238963   3.680   7.855   4.980
13007TIP3    H138964   3.774   7.865   4.957
13007TIP3    H238965   3.634   7.874   4.896
13008TIP3   OH238966   4.469   7.881   5.484
13008TIP3    H138967   4.438   7.891   5.577
13008TIP3    H238968   4.406   7.815   5.450
13009TIP3   OH238969   3.529   7.890   4.756
13009TIP3    H138970   3.459   7.842   4.708
13009TIP3    H238971   3.582   7.925   4.681
13010TIP3   OH238972   3.610   8.675   6.133
13010TIP3    H138973   3.687   8.697   6.190
13010TIP3    H238974   3.540   8.669   6.201
13011TIP3   OH238975   4.066   8.139   5.383
13011TIP3    H138976   4.129   8.086   5.332
13011TIP3    H238977   4.064   8.091   5.468
13012TIP3   OH238978   3.584   7.615   5.261
13012TIP3    H138979   3.548   7.538   5.310
13012TIP3    H238980   3.630   7.572   5.188
13013TIP3   OH238981   4.040   8.035   5.657
13013TIP3    H138982   3.949   8.063   5.680
13013TIP3    H238983   4.096   8.089   5.716
13014TIP3   OH238984   3.780   8.401   4.775
13014TIP3    H138985   3.703   8.341   4.760
13014TIP3    H238986   3.755   8.444   4.860
13015TIP3   OH238987   4.683   8.655   5.393
13015TIP3    H138988   4.711   8.702   5.310
13015TIP3    H238989   4.596   8.619   5.369
13016TIP3   OH238990   4.235   7.724   4.636
13016TIP3    H138991   4.139   7.705   4.639
13016TIP3    H238992   4.240   7.820   4.654
13017TIP3   OH238993   4.158   8.737   5.763
13017TIP3    H138994   4.219   8.698   5.827
13017TIP3    H238995   4.129   8.818   5.807
13018TIP3   OH238996   4.304   7.979   4.736
13018TIP3    H138997   4.401   7.980   4.744
13018TIP3    H238998   4.286   8.054   4.676
13019TIP3   OH238999   3.462   8.413   5.433
13019TIP3    H139000   3.504   8.391   5.348
13019TIP3    H239001   3.505   8.350   5.494
13020TIP3   OH239002   3.891   8.586   4.607
13020TIP3    H139003   3.848   8.657   4.660
13020TIP3    H239004   3.852   8.507   4.652
13021TIP3   OH239005   3.358   8.348   6.051
13021TIP3    H139006   3.369   8.334   6.147
13021TIP3    H239007   3.285   8.287   6.032
13022TIP3   OH239008   4.082   8.461   6.073
13022TIP3    H139009   4.019   8.398   6.031
13022TIP3    H239010   4.168   8.424   6.043
13023TIP3   OH239011   4.736   8.071   4.571
13023TIP3    H139012   4.679   8.024   4.506
13023TIP3    H239013   4.740   8.157   4.523
13024TIP3   OH239014   4.963   8.903   5.654
13024TIP3    H139015   4.869   8.926   5.642
13024TIP3    H239016   4.990   8.891   5.559
13025TIP3   OH239017   4.417   8.515   5.302
13025TIP3    H139018   4.371   8.445   5.351
13025TIP3    H239019   4.478   8.457   5.251
13026TIP3   OH239020   3.138   8.045   4.772
13026TIP3    H139021   3.182   8.130   4.790
13026TIP3    H239022   3.059   8.051   4.830
13027TIP3   OH239023   3.709   8.521   5.016
13027TIP3    H139024   3.654   8.597   5.037
13027TIP3    H239025   3.680   8.459   5.085
13028TIP3   OH239026   4.239   8.551   4.348
13028TIP3    H139027   4.269   8.540   4.441
13028TIP3    H239028   4.158   8.604   4.360
13029TIP3   OH239029   3.560   7.865   6.057
13029TIP3    H139030   3.463   7.866   6.071
13029TIP3    H239031   3.589   7.809   6.131
13030TIP3   OH239032   4.363   8.531   4.598
13030TIP3    H139033   4.357   8.457   4.661
13030TIP3    H239034   4.459   8.526   4.573
13031TIP3   OH239035   3.552   8.544   4.423
13031TIP3    H139036   3.590   8.457   4.397
13031TIP3    H239037   3.585   8.553   4.513
13032TIP3   OH239038   3.257   8.288   4.848
13032TIP3    H139039   3.187   8.324   4.907
13032TIP3    H239040   3.260   8.360   4.781
13033TIP3   OH239041   4.396   7.931   5.746
13033TIP3    H139042   4.480   7.967   5.780
13033TIP3    H239043   4.385   7.849   5.799
13034TIP3   OH239044   4.270   7.683   4.914
13034TIP3    H139045   4.264   7.698   4.818
13034TIP3    H239046   4.317   7.763   4.945
13035TIP3   OH239047   3.965   7.863   5.012
13035TIP3    H139048   4.032   7.932   4.995
13035TIP3    H239049   3.972   7.853   5.109
13036TIP3   OH239050   4.240   8.178   5.813
13036TIP3    H139051   4.267   8.224   5.896
13036TIP3    H239052   4.290   8.095   5.820
13037TIP3   OH239053   4.109   7.581   5.112
13037TIP3    H139054   4.110   7.658   5.171
13037TIP3    H239055   4.168   7.615   5.040
13038TIP3   OH239056   3.622   7.586   4.901
13038TIP3    H139057   3.620   7.676   4.940
13038TIP3    H239058   3.718   7.567   4.908
13039TIP3   OH239059   4.876   8.080   5.806
13039TIP3    H139060   4.778   8.074   5.806
13039TIP3    H239061   4.896   8.037   5.722
13040TIP3   OH239062   4.524   8.288   5.194
13040TIP3    H139063   4.453   8.222   5.199
13040TIP3    H239064   4.598   8.240   5.238
13041TIP3   OH239065   3.247   8.503   4.663
13041TIP3    H139066   3.272   8.596   4.646
13041TIP3    H239067   3.301   8.455   4.596
13042TIP3   OH239068   3.183   7.775   4.793
13042TIP3    H139069   3.183   7.872   4.790
13042TIP3    H239070   3.109   7.752   4.735
13043TIP3   OH239071   3.572   7.497   5.661
13043TIP3    H139072   3.542   7.461   5.575
13043TIP3    H239073   3.562   7.419   5.720
13044TIP3   OH239074   3.399   8.651   6.310
13044TIP3    H139075   3.424   8.556   6.314
13044TIP3    H239076   3.314   8.647   6.262
13045TIP3   OH239077   3.371   8.305   4.515
13045TIP3    H139078   3.422   8.268   4.589
13045TIP3    H239079   3.443   8.309   4.447
13046TIP3   OH239080   4.008   8.717   6.104
13046TIP3    H139081   4.013   8.741   6.010
13046TIP3    H239082   4.045   8.627   6.103
13047TIP3   OH239083   3.826   8.485   4.330
13047TIP3    H139084   3.864   8.500   4.417
13047TIP3    H239085   3.858   8.395   4.311
13048TIP3   OH239086   4.493   8.750   5.698
13048TIP3    H139087   4.564   8.799   5.650
13048TIP3    H239088   4.416   8.806   5.677
13049TIP3   OH239089   3.526   8.401   6.294
13049TIP3    H139090   3.594   8.336   6.273
13049TIP3    H239091   3.555   8.432   6.382
13050TIP3   OH239092   3.579   8.215   4.729
13050TIP3    H139093   3.550   8.166   4.807
13050TIP3    H239094   3.619   8.144   4.674
13051TIP3   OH239095   3.853   8.284   5.961
13051TIP3    H139096   3.774   8.342   5.961
13051TIP3    H239097   3.902   8.317   5.882
13052TIP3   OH239098   3.688   8.015   4.571
13052TIP3    H139099   3.663   8.015   4.477
13052TIP3    H239100   3.786   8.016   4.564
13053TIP3   OH239101   4.378   8.676   6.087
13053TIP3    H139102   4.457   8.644   6.041
13053TIP3    H239103   4.373   8.614   6.162
13054TIP3   OH239104   4.500   8.352   4.234
13054TIP3    H139105   4.482   8.297   4.155
13054TIP3    H239106   4.481   8.440   4.197
13055TIP3   OH239107   3.977   8.071   6.083
13055TIP3    H139108   3.978   7.992   6.026
13055TIP3    H239109   3.931   8.137   6.026
13056TIP3   OH239110   3.980   7.861   5.891
13056TIP3    H139111   4.008   7.894   5.804
13056TIP3    H239112   3.886   7.836   5.874
13057TIP3   OH239113   3.996   8.393   5.762
13057TIP3    H139114   4.086   8.395   5.727
13057TIP3    H239115   3.953   8.466   5.714
13058TIP3   OH239116   4.587   8.358   6.142
13058TIP3    H139117   4.629   8.273   6.164
13058TIP3    H239118   4.662   8.407   6.105
13059TIP3   OH239119   4.630   8.614   5.887
13059TIP3    H139120   4.572   8.668   5.827
13059TIP3    H239121   4.717   8.632   5.845
13060TIP3   OH239122   3.851   8.181   6.312
13060TIP3    H139123   3.786   8.111   6.331
13060TIP3    H239124   3.888   8.150   6.227
13061TIP3   OH239125   4.112   7.620   5.960
13061TIP3    H139126   4.060   7.701   5.939
13061TIP3    H239127   4.044   7.551   5.950
13062TIP3   OH239128   4.236   8.125   6.177
13062TIP3    H139129   4.226   8.108   6.272
13062TIP3    H239130   4.146   8.099   6.147
13063TIP3   OH239131   4.477   8.077   6.032
13063TIP3    H139132   4.404   8.074   6.096
13063TIP3    H239133   4.552   8.044   6.085
13064TIP3   OH239134   4.707   8.013   6.172
13064TIP3    H139135   4.722   7.918   6.189
13064TIP3    H239136   4.704   8.050   6.263
13065TIP3   OH239137   3.696   7.959   6.370
13065TIP3    H139138   3.699   7.867   6.339
13065TIP3    H239139   3.734   7.949   6.460
13066TIP3   OH239140   4.205   7.631   6.219
13066TIP3    H139141   4.272   7.560   6.214
13066TIP3    H239142   4.166   7.624   6.129
13067TIP3   OH239143   4.272   7.846   6.375
13067TIP3    H139144   4.252   7.773   6.313
13067TIP3    H239145   4.192   7.902   6.370
13068TIP3   OH239146   2.985   8.404   4.710
13068TIP3    H139147   3.061   8.451   4.672
13068TIP3    H239148   2.969   8.333   4.644
13069TIP3   OH239149   4.852   9.051   5.938
13069TIP3    H139150   4.775   9.018   5.990
13069TIP3    H239151   4.905   9.089   6.012
13070TIP3   OH239152   4.632   8.525   4.575
13070TIP3    H139153   4.704   8.582   4.538
13070TIP3    H239154   4.681   8.485   4.651
13071TIP3   OH239155   4.764   8.402   4.776
13071TIP3    H139156   4.709   8.350   4.839
13071TIP3    H239157   4.841   8.429   4.831
13072TIP3   OH239158   4.794   8.776   5.180
13072TIP3    H139159   4.868   8.718   5.149
13072TIP3    H239160   4.819   8.862   5.145
13073TIP3   OH239161   4.704   8.304   4.418
13073TIP3    H139162   4.635   8.307   4.348
13073TIP3    H239163   4.676   8.381   4.472
13074TIP3   OH239164   4.569   7.978   4.379
13074TIP3    H139165   4.540   8.011   4.293
13074TIP3    H239166   4.552   7.882   4.369
13075TIP3   OH239167   4.579   8.250   4.922
13075TIP3    H139168   4.594   8.155   4.906
13075TIP3    H239169   4.574   8.256   5.020
13076TIP3   OH239170   3.208   8.333   5.665
13076TIP3    H139171   3.204   8.295   5.574
13076TIP3    H239172   3.305   8.329   5.681
13077TIP3   OH239173   4.869   8.670   5.769
13077TIP3    H139174   4.946   8.609   5.767
13077TIP3    H239175   4.901   8.743   5.712
13078TIP3   OH239176   5.060   8.484   5.804
13078TIP3    H139177   4.983   8.430   5.829
13078TIP3    H239178   5.132   8.417   5.817
13079TIP3   OH239179   4.525   7.711   4.363
13079TIP3    H139180   4.600   7.679   4.417
13079TIP3    H239181   4.454   7.648   4.382
13080TIP3   OH239182   4.584   7.973   4.808
13080TIP3    H139183   4.624   7.883   4.820
13080TIP3    H239184   4.639   8.004   4.733
13081TIP3   OH239185   4.736   8.150   5.303
13081TIP3    H139186   4.823   8.171   5.262
13081TIP3    H239187   4.756   8.177   5.395
13082TIP3   OH239188   4.810   8.287   5.540
13082TIP3    H139189   4.734   8.325   5.588
13082TIP3    H239190   4.846   8.365   5.493
13083TIP3   OH239191   3.431   8.013   6.340
13083TIP3    H139192   3.528   8.006   6.344
13083TIP3    H239193   3.405   7.926   6.377
13084TIP3   OH239194   5.254   7.871   6.085
13084TIP3    H139195   5.322   7.809   6.050
13084TIP3    H239196   5.233   7.926   6.007
13085TIP3   OH239197   4.689   7.722   4.851
13085TIP3    H139198   4.730   7.700   4.937
13085TIP3    H239199   4.626   7.646   4.841
13086TIP3   OH239200   3.388   7.706   5.672
13086TIP3    H139201   3.448   7.629   5.679
13086TIP3    H239202   3.453   7.778   5.662
13087TIP3   OH239203   3.189   7.979   5.740
13087TIP3    H139204   3.239   7.973   5.656
13087TIP3    H239205   3.222   8.060   5.778
13088TIP3   OH239206   5.130   8.019   5.891
13088TIP3    H139207   5.038   8.052   5.894
13088TIP3    H239208   5.116   7.940   5.834
13089TIP3   OH239209   4.776   7.655   4.481
13089TIP3    H139210   4.809   7.585   4.423
13089TIP3    H239211   4.844   7.725   4.473
13090TIP3   OH239212   3.176   7.486   5.247
13090TIP3    H139213   3.082   7.477   5.271
13090TIP3    H239214   3.171   7.542   5.167
13091TIP3   OH239215   3.396   7.565   6.059
13091TIP3    H139216   3.344   7.557   6.141
13091TIP3    H239217   3.329   7.599   5.997
13092TIP3   OH239218   5.029   7.774   5.782
13092TIP3    H139219   4.939   7.759   5.748
13092TIP3    H239220   5.068   7.684   5.772
13093TIP3   OH239221   4.230   7.692   5.395
13093TIP3    H139222   4.192   7.621   5.450
13093TIP3    H239223   4.307   7.648   5.354
13094TIP3   OH239224   4.756   7.564   5.294
13094TIP3    H139225   4.794   7.622   5.225
13094TIP3    H239226   4.662   7.591   5.294
13095TIP3   OH239227   4.863   7.671   5.064
13095TIP3    H139228   4.948   7.641   5.030
13095TIP3    H239229   4.879   7.768   5.058
13096TIP3   OH239230   3.484   7.403   5.413
13096TIP3    H139231   3.392   7.370   5.417
13096TIP3    H239232   3.532   7.317   5.410
13097TIP3   OH239233   3.274   7.275   5.064
13097TIP3    H139234   3.304   7.330   4.990
13097TIP3    H239235   3.248   7.342   5.130
13098TIP3   OH239236   3.930   7.437   5.296
13098TIP3    H139237   3.987   7.482   5.232
13098TIP3    H239238   3.962   7.472   5.380
13099TIP3   OH239239   4.471   7.585   5.279
13099TIP3    H139240   4.473   7.544   5.191
13099TIP3    H239241   4.460   7.505   5.336
13100TIP3   OH239242   4.512   7.513   4.860
13100TIP3    H139243   4.419   7.539   4.850
13100TIP3    H239244   4.504   7.422   4.894
13101TIP3   OH239245   3.391   7.430   4.826
13101TIP3    H139246   3.438   7.367   4.767
13101TIP3    H239247   3.465   7.484   4.860
13102TIP3   OH239248   3.899   7.612   4.924
13102TIP3    H139249   3.958   7.562   4.982
13102TIP3    H239250   3.924   7.703   4.949
13103TIP3   OH239251   3.693   7.686   6.306
13103TIP3    H139252   3.657   7.614   6.361
13103TIP3    H239253   3.787   7.684   6.334
13104TIP3   OH239254   3.943   7.681   6.424
13104TIP3    H139255   4.029   7.654   6.385
13104TIP3    H239256   3.930   7.612   6.492
13105TIP3   OH239257   4.769   7.745   6.209
13105TIP3    H139258   4.786   7.713   6.301
13105TIP3    H239259   4.858   7.739   6.170
13106TIP3   OH239260   5.975   8.655   4.478
13106TIP3    H139261   5.936   8.740   4.450
13106TIP3    H239262   5.906   8.595   4.443
13107TIP3   OH239263   5.961   8.665   4.857
13107TIP3    H139264   5.997   8.634   4.943
13107TIP3    H239265   5.924   8.582   4.822
13108TIP3   OH239266   5.264   8.567   5.230
13108TIP3    H139267   5.297   8.495   5.287
13108TIP3    H239268   5.346   8.602   5.194
13109TIP3   OH239269   6.188   8.964   4.545
13109TIP3    H139270   6.184   8.888   4.608
13109TIP3    H239271   6.247   9.024   4.593
13110TIP3   OH239272   5.295   8.913   5.017
13110TIP3    H139273   5.271   8.823   4.988
13110TIP3    H239274   5.380   8.926   4.968
13111TIP3   OH239275   4.940   8.164   4.731
13111TIP3    H139276   4.906   8.254   4.735
13111TIP3    H239277   4.872   8.121   4.676
13112TIP3   OH239278   5.001   8.460   4.902
13112TIP3    H139279   5.051   8.382   4.934
13112TIP3    H239280   5.069   8.508   4.853
13113TIP3   OH239281   5.783   8.885   4.889
13113TIP3    H139282   5.828   8.803   4.860
13113TIP3    H239283   5.860   8.943   4.903
13114TIP3   OH239284   6.783   8.209   4.905
13114TIP3    H139285   6.798   8.294   4.949
13114TIP3    H239286   6.807   8.229   4.813
13115TIP3   OH239287   6.183   8.398   4.928
13115TIP3    H139288   6.226   8.312   4.949
13115TIP3    H239289   6.150   8.379   4.838
13116TIP3   OH239290   5.531   8.061   4.890
13116TIP3    H139291   5.503   8.131   4.828
13116TIP3    H239292   5.480   7.985   4.852
13117TIP3   OH239293   6.218   8.148   4.518
13117TIP3    H139294   6.290   8.132   4.584
13117TIP3    H239295   6.270   8.181   4.443
13118TIP3   OH239296   5.151   8.254   5.003
13118TIP3    H139297   5.237   8.237   5.047
13118TIP3    H239298   5.167   8.202   4.921
13119TIP3   OH239299   5.588   8.450   4.804
13119TIP3    H139300   5.683   8.429   4.814
13119TIP3    H239301   5.553   8.367   4.765
13120TIP3   OH239302   5.853   8.857   4.338
13120TIP3    H139303   5.809   8.850   4.253
13120TIP3    H239304   5.877   8.951   4.344
13121TIP3   OH239305   5.621   8.819   5.124
13121TIP3    H139306   5.570   8.891   5.167
13121TIP3    H239307   5.658   8.867   5.048
13122TIP3   OH239308   6.425   8.150   4.694
13122TIP3    H139309   6.403   8.106   4.777
13122TIP3    H239310   6.475   8.229   4.724
13123TIP3   OH239311   5.384   8.156   5.110
13123TIP3    H139312   5.451   8.215   5.151
13123TIP3    H239313   5.442   8.105   5.050
13124TIP3   OH239314   5.450   9.034   5.227
13124TIP3    H139315   5.415   9.026   5.137
13124TIP3    H239316   5.368   9.028   5.279
13125TIP3   OH239317   4.840   8.664   4.465
13125TIP3    H139318   4.810   8.671   4.371
13125TIP3    H239319   4.858   8.758   4.482
13126TIP3   OH239320   6.559   8.103   5.058
13126TIP3    H139321   6.476   8.127   5.013
13126TIP3    H239322   6.628   8.137   4.998
13127TIP3   OH239323   5.867   7.759   5.057
13127TIP3    H139324   5.845   7.664   5.065
13127TIP3    H239325   5.792   7.799   5.106
13128TIP3   OH239326   6.219   8.985   4.261
13128TIP3    H139327   6.196   8.904   4.211
13128TIP3    H239328   6.230   8.952   4.352
13129TIP3   OH239329   5.807   8.517   4.306
13129TIP3    H139330   5.723   8.565   4.287
13129TIP3    H239331   5.847   8.512   4.217
13130TIP3   OH239332   5.768   8.307   4.009
13130TIP3    H139333   5.834   8.356   4.061
13130TIP3    H239334   5.826   8.243   3.963
13131TIP3   OH239335   6.153   8.596   4.278
13131TIP3    H139336   6.098   8.616   4.357
13131TIP3    H239337   6.237   8.570   4.321
13132TIP3   OH239338   5.389   8.603   4.682
13132TIP3    H139339   5.340   8.541   4.623
13132TIP3    H239340   5.461   8.546   4.715
13133TIP3   OH239341   5.521   8.972   4.888
13133TIP3    H139342   5.481   8.965   4.800
13133TIP3    H239343   5.616   8.958   4.871
13134TIP3   OH239344   5.499   8.578   5.044
13134TIP3    H139345   5.540   8.546   4.961
13134TIP3    H239346   5.551   8.659   5.063
13135TIP3   OH239347   5.596   9.020   5.493
13135TIP3    H139348   5.595   9.114   5.464
13135TIP3    H239349   5.597   8.977   5.406
13136TIP3   OH239350   5.989   8.459   4.101
13136TIP3    H139351   6.048   8.519   4.151
13136TIP3    H239352   6.019   8.476   4.008
13137TIP3   OH239353   5.417   8.678   5.474
13137TIP3    H139354   5.409   8.765   5.517
13137TIP3    H239355   5.323   8.656   5.463
13138TIP3   OH239356   6.507   7.699   4.149
13138TIP3    H139357   6.425   7.721   4.198
13138TIP3    H239358   6.521   7.782   4.098
13139TIP3   OH239359   5.240   8.440   4.513
13139TIP3    H139360   5.180   8.476   4.444
13139TIP3    H239361   5.234   8.345   4.498
13140TIP3   OH239362   5.042   8.828   5.404
13140TIP3    H139363   5.000   8.796   5.323
13140TIP3    H239364   5.082   8.746   5.441
13141TIP3   OH239365   5.229   9.033   5.399
13141TIP3    H139366   5.281   8.990   5.470
13141TIP3    H239367   5.156   8.968   5.390
13142TIP3   OH239368   6.162   7.946   5.374
13142TIP3    H139369   6.222   7.917   5.444
13142TIP3    H239370   6.074   7.931   5.413
13143TIP3   OH239371   6.071   8.490   3.846
13143TIP3    H139372   6.035   8.469   3.758
13143TIP3    H239373   6.133   8.561   3.824
13144TIP3   OH239374   5.774   7.882   4.133
13144TIP3    H139375   5.752   7.880   4.229
13144TIP3    H239376   5.733   7.797   4.107
13145TIP3   OH239377   5.568   8.352   5.192
13145TIP3    H139378   5.521   8.371   5.276
13145TIP3    H239379   5.547   8.432   5.140
13146TIP3   OH239380   5.448   8.231   4.688
13146TIP3    H139381   5.356   8.207   4.712
13146TIP3    H239382   5.452   8.191   4.599
13147TIP3   OH239383   5.944   8.325   4.440
13147TIP3    H139384   5.889   8.390   4.393
13147TIP3    H239385   5.994   8.285   4.367
13148TIP3   OH239386   6.096   8.348   4.672
13148TIP3    H139387   6.033   8.372   4.601
13148TIP3    H239388   6.133   8.267   4.630
13149TIP3   OH239389   5.381   8.380   5.403
13149TIP3    H139390   5.443   8.431   5.458
13149TIP3    H239391   5.372   8.297   5.456
13150TIP3   OH239392   5.001   7.889   4.990
13150TIP3    H139393   5.067   7.926   5.052
13150TIP3    H239394   5.036   7.918   4.904
13151TIP3   OH239395   4.954   7.877   4.520
13151TIP3    H139396   5.008   7.903   4.444
13151TIP3    H239397   4.894   7.953   4.523
13152TIP3   OH239398   6.078   8.586   5.094
13152TIP3    H139399   6.128   8.521   5.039
13152TIP3    H239400   6.052   8.528   5.169
13153TIP3   OH239401   5.784   8.053   4.777
13153TIP3    H139402   5.697   8.055   4.823
13153TIP3    H239403   5.846   8.055   4.851
13154TIP3   OH239404   5.209   8.111   4.779
13154TIP3    H139405   5.122   8.116   4.735
13154TIP3    H239406   5.249   8.031   4.739
13155TIP3   OH239407   6.268   8.132   4.965
13155TIP3    H139408   6.243   8.145   5.059
13155TIP3    H239409   6.197   8.072   4.937
13156TIP3   OH239410   5.375   8.917   5.599
13156TIP3    H139411   5.464   8.956   5.587
13156TIP3    H239412   5.353   8.933   5.693
13157TIP3   OH239413   5.858   8.389   4.866
13157TIP3    H139414   5.928   8.344   4.818
13157TIP3    H239415   5.860   8.343   4.953
13158TIP3   OH239416   5.382   7.883   4.747
13158TIP3    H139417   5.346   7.797   4.775
13158TIP3    H239418   5.402   7.870   4.653
13159TIP3   OH239419   5.832   8.282   5.142
13159TIP3    H139420   5.742   8.314   5.164
13159TIP3    H239421   5.889   8.336   5.202
13160TIP3   OH239422   5.572   8.657   4.257
13160TIP3    H139423   5.495   8.595   4.247
13160TIP3    H239424   5.549   8.701   4.342
13161TIP3   OH239425   6.028   7.982   4.116
13161TIP3    H139426   5.931   7.964   4.122
13161TIP3    H239427   6.034   8.076   4.143
13162TIP3   OH239428   6.098   8.232   4.221
13162TIP3    H139429   6.194   8.238   4.235
13162TIP3    H239430   6.078   8.312   4.169
13163TIP3   OH239431   5.252   8.652   4.916
13163TIP3    H139432   5.294   8.645   4.828
13163TIP3    H239433   5.319   8.610   4.972
13164TIP3   OH239434   5.683   8.843   4.092
13164TIP3    H139435   5.641   8.913   4.146
13164TIP3    H239436   5.647   8.763   4.138
13165TIP3   OH239437   5.140   8.617   5.546
13165TIP3    H139438   5.168   8.592   5.637
13165TIP3    H239439   5.084   8.542   5.521
13166TIP3   OH239440   6.539   8.326   4.050
13166TIP3    H139441   6.479   8.281   3.986
13166TIP3    H239442   6.532   8.416   4.012
13167TIP3   OH239443   6.201   8.781   4.773
13167TIP3    H139444   6.119   8.731   4.788
13167TIP3    H239445   6.264   8.708   4.754
13168TIP3   OH239446   4.927   8.307   4.244
13168TIP3    H139447   4.978   8.386   4.272
13168TIP3    H239448   4.858   8.304   4.313
13169TIP3   OH239449   5.502   8.779   4.496
13169TIP3    H139450   5.458   8.856   4.534
13169TIP3    H239451   5.479   8.712   4.564
13170TIP3   OH239452   6.043   8.961   4.979
13170TIP3    H139453   6.013   8.901   5.047
13170TIP3    H239454   6.100   8.904   4.924
13171TIP3   OH239455   6.034   8.807   3.833
13171TIP3    H139456   6.064   8.795   3.925
13171TIP3    H239457   5.952   8.858   3.846
13172TIP3   OH239458   5.345   8.151   5.565
13172TIP3    H139459   5.257   8.115   5.549
13172TIP3    H239460   5.396   8.070   5.579
13173TIP3   OH239461   6.157   8.782   4.081
13173TIP3    H139462   6.152   8.710   4.148
13173TIP3    H239463   6.254   8.781   4.060
13174TIP3   OH239464   5.349   8.801   3.911
13174TIP3    H139465   5.382   8.713   3.884
13174TIP3    H239466   5.380   8.807   4.002
13175TIP3   OH239467   5.050   8.542   4.334
13175TIP3    H139468   4.984   8.579   4.396
13175TIP3    H239469   5.056   8.613   4.268
13176TIP3   OH239470   6.209   8.180   5.228
13176TIP3    H139471   6.254   8.235   5.293
13176TIP3    H239472   6.184   8.101   5.280
13177TIP3   OH239473   6.085   7.927   4.398
13177TIP3    H139474   6.060   7.950   4.307
13177TIP3    H239475   6.116   8.013   4.434
13178TIP3   OH239476   5.788   8.104   4.506
13178TIP3    H139477   5.836   8.188   4.489
13178TIP3    H239478   5.775   8.106   4.602
13179TIP3   OH239479   6.007   8.424   5.305
13179TIP3    H139480   5.990   8.442   5.400
13179TIP3    H239481   6.094   8.381   5.313
13180TIP3   OH239482   5.909   7.840   4.606
13180TIP3    H139483   5.883   7.924   4.648
13180TIP3    H239484   5.966   7.873   4.534
13181TIP3   OH239485   6.323   8.529   4.673
13181TIP3    H139486   6.245   8.471   4.685
13181TIP3    H239487   6.392   8.482   4.723
13182TIP3   OH239488   5.040   8.759   4.147
13182TIP3    H139489   5.071   8.849   4.133
13182TIP3    H239490   5.097   8.707   4.085
13183TIP3   OH239491   4.944   8.021   4.286
13183TIP3    H139492   5.004   8.098   4.279
13183TIP3    H239493   4.889   8.031   4.209
13184TIP3   OH239494   5.191   8.883   5.806
13184TIP3    H139495   5.220   8.794   5.777
13184TIP3    H239496   5.108   8.893   5.754
13185TIP3   OH239497   5.169   8.562   4.005
13185TIP3    H139498   5.216   8.518   4.079
13185TIP3    H239499   5.241   8.563   3.938
13186TIP3   OH239500   5.624   8.744   3.812
13186TIP3    H139501   5.653   8.757   3.903
13186TIP3    H239502   5.655   8.652   3.795
13187TIP3   OH239503   5.323   8.641   5.786
13187TIP3    H139504   5.401   8.599   5.748
13187TIP3    H239505   5.344   8.649   5.880
13188TIP3   OH239506   5.369   8.471   4.224
13188TIP3    H139507   5.357   8.409   4.298
13188TIP3    H239508   5.414   8.411   4.160
13189TIP3   OH239509   5.640   8.525   5.439
13189TIP3    H139510   5.571   8.595   5.444
13189TIP3    H239511   5.704   8.567   5.377
13190TIP3   OH239512   5.491   8.305   4.052
13190TIP3    H139513   5.460   8.275   3.964
13190TIP3    H239514   5.587   8.292   4.046
13191TIP3   OH239515   6.302   8.611   3.717
13191TIP3    H139516   6.279   8.556   3.639
13191TIP3    H239517   6.279   8.699   3.682
13192TIP3   OH239518   5.753   8.318   5.572
13192TIP3    H139519   5.752   8.241   5.511
13192TIP3    H239520   5.717   8.388   5.513
13193TIP3   OH239521   5.750   8.111   5.369
13193TIP3    H139522   5.782   8.150   5.285
13193TIP3    H239523   5.684   8.046   5.335
13194TIP3   OH239524   5.792   8.646   5.251
13194TIP3    H139525   5.874   8.645   5.200
13194TIP3    H239526   5.739   8.715   5.206
13195TIP3   OH239527   5.636   8.439   5.794
13195TIP3    H139528   5.574   8.364   5.810
13195TIP3    H239529   5.674   8.411   5.707
13196TIP3   OH239530   5.894   7.885   5.440
13196TIP3    H139531   5.851   7.972   5.424
13196TIP3    H239532   5.825   7.829   5.402
13197TIP3   OH239533   6.027   8.382   5.590
13197TIP3    H139534   6.061   8.396   5.680
13197TIP3    H239535   5.935   8.355   5.606
13198TIP3   OH239536   5.494   8.211   5.847
13198TIP3    H139537   5.488   8.122   5.807
13198TIP3    H239538   5.522   8.190   5.938
13199TIP3   OH239539   5.998   7.881   5.698
13199TIP3    H139540   6.066   7.812   5.690
13199TIP3    H239541   5.955   7.877   5.610
13200TIP3   OH239542   6.030   8.082   5.883
13200TIP3    H139543   6.023   8.011   5.816
13200TIP3    H239544   5.966   8.147   5.852
13201TIP3   OH239545   4.778   8.664   4.192
13201TIP3    H139546   4.859   8.707   4.158
13201TIP3    H239547   4.767   8.590   4.130
13202TIP3   OH239548   6.429   8.777   4.060
13202TIP3    H139549   6.499   8.838   4.029
13202TIP3    H239550   6.475   8.737   4.138
13203TIP3   OH239551   6.562   8.649   4.258
13203TIP3    H139552   6.501   8.607   4.322
13203TIP3    H239553   6.634   8.683   4.315
13204TIP3   OH239554   6.497   8.560   3.903
13204TIP3    H139555   6.427   8.567   3.835
13204TIP3    H239556   6.472   8.635   3.960
13205TIP3   OH239557   6.380   8.232   3.852
13205TIP3    H139558   6.325   8.268   3.782
13205TIP3    H239559   6.355   8.137   3.847
13206TIP3   OH239560   6.379   8.507   4.406
13206TIP3    H139561   6.386   8.411   4.396
13206TIP3    H239562   6.365   8.518   4.503
13207TIP3   OH239563   5.003   8.596   5.153
13207TIP3    H139564   5.003   8.557   5.063
13207TIP3    H239565   5.100   8.594   5.172
13208TIP3   OH239566   6.318   7.967   3.843
13208TIP3    H139567   6.389   7.933   3.901
13208TIP3    H239568   6.242   7.910   3.862
13209TIP3   OH239569   6.378   8.227   4.297
13209TIP3    H139570   6.417   8.138   4.313
13209TIP3    H239571   6.435   8.259   4.225
13210TIP3   OH239572   6.537   8.400   4.794
13210TIP3    H139573   6.621   8.427   4.752
13210TIP3    H239574   6.553   8.440   4.882
13211TIP3   OH239575   5.226   8.275   5.840
13211TIP3    H139576   5.320   8.259   5.816
13211TIP3    H239577   5.202   8.185   5.869
13212TIP3   OH239578   6.486   7.978   4.335
13212TIP3    H139579   6.533   7.961   4.419
13212TIP3    H239580   6.424   7.902   4.333
13213TIP3   OH239581   5.203   7.955   5.167
13213TIP3    H139582   5.274   7.893   5.192
13213TIP3    H239583   5.258   8.035   5.151
13214TIP3   OH239584   4.982   8.238   5.221
13214TIP3    H139585   5.034   8.231   5.138
13214TIP3    H239586   5.030   8.308   5.267
13215TIP3   OH239587   6.565   7.907   3.973
13215TIP3    H139588   6.602   7.837   3.915
13215TIP3    H239589   6.631   7.978   3.966
13216TIP3   OH239590   4.946   7.706   4.728
13216TIP3    H139591   4.856   7.744   4.752
13216TIP3    H239592   4.967   7.775   4.653
13217TIP3   OH239593   5.189   7.851   5.558
13217TIP3    H139594   5.137   7.820   5.632
13217TIP3    H239595   5.123   7.859   5.488
13218TIP3   OH239596   6.815   8.018   5.236
13218TIP3    H139597   6.720   8.005   5.239
13218TIP3    H239598   6.849   7.928   5.234
13219TIP3   OH239599   6.043   7.956   4.902
13219TIP3    H139600   5.991   7.885   4.943
13219TIP3    H239601   6.100   7.907   4.840
13220TIP3   OH239602   6.554   7.830   4.785
13220TIP3    H139603   6.590   7.884   4.711
13220TIP3    H239604   6.458   7.850   4.780
13221TIP3   OH239605   6.650   7.931   4.551
13221TIP3    H139606   6.725   7.880   4.513
13221TIP3    H239607   6.683   8.023   4.539
13222TIP3   OH239608   5.274   7.647   4.849
13222TIP3    H139609   5.207   7.640   4.918
13222TIP3    H239610   5.345   7.591   4.884
13223TIP3   OH239611   5.731   7.683   4.784
13223TIP3    H139612   5.786   7.734   4.721
13223TIP3    H239613   5.734   7.740   4.862
13224TIP3   OH239614   6.275   7.843   4.758
13224TIP3    H139615   6.262   7.805   4.670
13224TIP3    H239616   6.259   7.765   4.816
13225TIP3   OH239617   6.303   7.766   4.328
13225TIP3    H139618   6.219   7.813   4.346
13225TIP3    H239619   6.285   7.679   4.370
13226TIP3   OH239620   5.184   7.711   4.302
13226TIP3    H139621   5.254   7.656   4.261
13226TIP3    H239622   5.233   7.789   4.334
13227TIP3   OH239623   5.721   7.859   4.397
13227TIP3    H139624   5.765   7.828   4.477
13227TIP3    H239625   5.710   7.954   4.420
13228TIP3   OH239626   5.486   7.933   5.803
13228TIP3    H139627   5.457   7.855   5.852
13228TIP3    H239628   5.581   7.935   5.826
13229TIP3   OH239629   5.736   7.947   5.924
13229TIP3    H139630   5.823   7.928   5.884
13229TIP3    H239631   5.726   7.872   5.986
13230TIP3   OH239632   6.742   8.428   4.207
13230TIP3    H139633   6.697   8.513   4.228
13230TIP3    H239634   6.668   8.380   4.165
13231TIP3   OH239635   6.801   8.709   4.374
13231TIP3    H139636   6.851   8.644   4.428
13231TIP3    H239637   6.871   8.754   4.326
13232TIP3   OH239638   7.297   8.313   4.398
13232TIP3    H139639   7.288   8.385   4.334
13232TIP3    H239640   7.256   8.240   4.350
13233TIP3   OH239641   6.956   8.514   4.497
13233TIP3    H139642   7.050   8.516   4.515
13233TIP3    H239643   6.955   8.452   4.420
13234TIP3   OH239644   6.642   8.922   3.968
13234TIP3    H139645   6.619   8.944   3.876
13234TIP3    H239646   6.680   9.006   3.996
13235TIP3   OH239647   7.025   8.677   3.922
13235TIP3    H139648   7.024   8.766   3.958
13235TIP3    H239649   6.981   8.626   3.990
13236TIP3   OH239650   7.227   8.472   4.176
13236TIP3    H139651   7.142   8.444   4.216
13236TIP3    H239652   7.196   8.518   4.097
13237TIP3   OH239653   7.213   8.076   3.596
13237TIP3    H139654   7.206   8.081   3.693
13237TIP3    H239655   7.139   8.133   3.569
13238TIP3   OH239656   6.775   8.155   4.470
13238TIP3    H139657   6.852   8.188   4.521
13238TIP3    H239658   6.814   8.123   4.388
13239TIP3   OH239659   6.743   8.137   3.986
13239TIP3    H139660   6.789   8.172   3.907
13239TIP3    H239661   6.682   8.211   4.006
13240TIP3   OH239662   6.997   8.364   4.270
13240TIP3    H139663   6.903   8.373   4.240
13240TIP3    H239664   7.018   8.272   4.247
13241TIP3   OH239665   7.077   8.376   3.767
13241TIP3    H139666   7.005   8.336   3.715
13241TIP3    H239667   7.074   8.468   3.740
13242TIP3   OH239668   7.177   8.126   4.230
13242TIP3    H139669   7.138   8.053   4.282
13242TIP3    H239670   7.232   8.078   4.167
13243TIP3   OH239671   6.722   8.551   3.750
13243TIP3    H139672   6.755   8.641   3.763
13243TIP3    H239673   6.641   8.553   3.806
13244TIP3   OH239674   7.188   8.094   3.871
13244TIP3    H139675   7.169   8.187   3.893
13244TIP3    H239676   7.281   8.085   3.903
13245TIP3   OH239677   6.770   8.283   3.752
13245TIP3    H139678   6.765   8.381   3.760
13245TIP3    H239679   6.681   8.261   3.722
13246TIP3   OH239680   7.142   8.011   4.642
13246TIP3    H139681   7.136   7.976   4.551
13246TIP3    H239682   7.153   7.931   4.696
13247TIP3   OH239683   6.562   8.922   3.665
13247TIP3    H139684   6.634   8.971   3.623
13247TIP3    H239685   6.551   8.847   3.604
13248TIP3   OH239686   6.979   8.227   4.643
13248TIP3    H139687   7.034   8.144   4.646
13248TIP3    H239688   7.048   8.293   4.657
13249TIP3   OH239689   6.787   8.501   4.723
13249TIP3    H139690   6.836   8.477   4.642
13249TIP3    H239691   6.814   8.593   4.732
13250TIP3   OH239692   6.768   7.998   4.218
13250TIP3    H139693   6.675   7.990   4.245
13250TIP3    H239694   6.761   8.055   4.139
13251TIP3   OH239695   6.996   8.069   5.041
13251TIP3    H139696   6.933   8.070   5.116
13251TIP3    H239697   6.939   8.109   4.973
13252TIP3   OH239698   7.079   7.917   4.382
13252TIP3    H139699   6.986   7.887   4.388
13252TIP3    H239700   7.126   7.831   4.379
13253TIP3   OH239701   6.868   7.787   4.038
13253TIP3    H139702   6.894   7.843   3.963
13253TIP3    H239703   6.840   7.854   4.104
13254TIP3   OH239704   7.514   7.939   4.292
13254TIP3    H139705   7.586   7.992   4.255
13254TIP3    H239706   7.488   7.989   4.370
13255TIP3   OH239707   6.973   7.937   3.796
13255TIP3    H139708   7.023   7.876   3.738
13255TIP3    H239709   7.045   7.993   3.831
13256TIP3   OH239710   7.461   8.107   3.929
13256TIP3    H139711   7.494   8.031   3.881
13256TIP3    H239712   7.499   8.179   3.876
13257TIP3   OH239713   4.609   1.747   7.954
13257TIP3    H139714   4.623   1.841   7.928
13257TIP3    H239715   4.698   1.711   7.936
13258TIP3   OH239716   4.163   1.975   8.032
13258TIP3    H139717   4.210   1.893   8.014
13258TIP3    H239718   4.129   1.962   8.123
13259TIP3   OH239719   4.366   1.236   8.094
13259TIP3    H139720   4.330   1.202   8.010
13259TIP3    H239721   4.460   1.246   8.070
13260TIP3   OH239722   4.526   1.807   8.210
13260TIP3    H139723   4.524   1.713   8.232
13260TIP3    H239724   4.566   1.802   8.120
13261TIP3   OH239725   4.642   2.016   7.935
13261TIP3    H139726   4.683   2.084   7.878
13261TIP3    H239727   4.562   2.067   7.961
13262TIP3   OH239728   3.808   1.714   8.000
13262TIP3    H139729   3.826   1.631   8.048
13262TIP3    H239730   3.890   1.721   7.949
13263TIP3   OH239731   4.287   1.742   7.934
13263TIP3    H139732   4.374   1.750   7.975
13263TIP3    H239733   4.311   1.754   7.839
13264TIP3   OH239734   4.606   1.275   7.970
13264TIP3    H139735   4.592   1.218   7.892
13264TIP3    H239736   4.576   1.361   7.933
13265TIP3   OH239737   4.826   1.310   8.129
13265TIP3    H139738   4.744   1.288   8.080
13265TIP3    H239739   4.803   1.287   8.220
13266TIP3   OH239740   4.567   2.090   8.255
13266TIP3    H139741   4.566   1.994   8.239
13266TIP3    H239742   4.531   2.124   8.170
13267TIP3   OH239743   6.044   1.608   8.229
13267TIP3    H139744   6.027   1.699   8.196
13267TIP3    H239745   5.983   1.559   8.171
13268TIP3   OH239746   6.264   1.873   8.264
13268TIP3    H139747   6.204   1.837   8.331
13268TIP3    H239748   6.289   1.959   8.303
13269TIP3   OH239749   5.949   2.353   8.265
13269TIP3    H139750   6.009   2.280   8.241
13269TIP3    H239751   5.951   2.354   8.362
13270TIP3   OH239752   5.961   1.821   8.074
13270TIP3    H139753   5.918   1.809   7.988
13270TIP3    H239754   5.920   1.905   8.103
13271TIP3   OH239755   4.935   1.631   8.177
13271TIP3    H139756   4.890   1.630   8.090
13271TIP3    H239757   4.955   1.727   8.188
13272TIP3   OH239758   6.344   2.106   8.374
13272TIP3    H139759   6.273   2.137   8.433
13272TIP3    H239760   6.387   2.190   8.351
13273TIP3   OH239761   6.094   2.180   8.112
13273TIP3    H139762   6.146   2.102   8.082
13273TIP3    H239763   6.150   2.252   8.075
13274TIP3   OH239764   6.229   1.967   8.009
13274TIP3    H139765   6.181   1.896   7.964
13274TIP3    H239766   6.246   1.927   8.096
13275TIP3   OH239767   5.902   1.478   8.033
13275TIP3    H139768   5.817   1.524   8.013
13275TIP3    H239769   5.944   1.475   7.945
13276TIP3   OH239770   5.860   1.236   7.754
13276TIP3    H139771   5.923   1.288   7.805
13276TIP3    H239772   5.920   1.179   7.702
13277TIP3   OH239773   6.230   1.553   8.020
13277TIP3    H139774   6.169   1.589   8.087
13277TIP3    H239775   6.290   1.505   8.081
13278TIP3   OH239776   6.128   2.157   8.555
13278TIP3    H139777   6.198   2.220   8.584
13278TIP3    H239778   6.157   2.076   8.602
13279TIP3   OH239779   6.086   1.403   7.835
13279TIP3    H139780   6.144   1.466   7.883
13279TIP3    H239781   6.113   1.421   7.741
13280TIP3   OH239782   5.835   2.068   8.110
13280TIP3    H139783   5.915   2.119   8.133
13280TIP3    H239784   5.778   2.137   8.074
13281TIP3   OH239785   5.361   1.342   8.186
13281TIP3    H139786   5.285   1.395   8.154
13281TIP3    H239787   5.328   1.309   8.271
13282TIP3   OH239788   6.406   1.997   7.440
13282TIP3    H139789   6.415   2.094   7.425
13282TIP3    H239790   6.499   1.968   7.426
13283TIP3   OH239791   5.714   2.312   7.921
13283TIP3    H139792   5.671   2.300   7.835
13283TIP3    H239793   5.685   2.401   7.947
13284TIP3   OH239794   5.136   2.154   8.272
13284TIP3    H139795   5.148   2.105   8.355
13284TIP3    H239796   5.051   2.119   8.242
13285TIP3   OH239797   5.915   2.217   7.558
13285TIP3    H139798   5.975   2.148   7.522
13285TIP3    H239799   5.951   2.229   7.649
13286TIP3   OH239800   5.966   2.265   7.828
13286TIP3    H139801   5.879   2.274   7.872
13286TIP3    H239802   6.022   2.236   7.902
13287TIP3   OH239803   6.157   1.438   7.578
13287TIP3    H139804   6.130   1.407   7.490
13287TIP3    H239805   6.244   1.477   7.557
13288TIP3   OH239806   5.997   1.249   8.145
13288TIP3    H139807   5.963   1.334   8.115
13288TIP3    H239808   6.062   1.226   8.075
13289TIP3   OH239809   5.554   1.021   8.205
13289TIP3    H139810   5.646   1.025   8.176
13289TIP3    H239811   5.504   1.047   8.125
13290TIP3   OH239812   5.405   1.051   7.970
13290TIP3    H139813   5.336   1.043   7.903
13290TIP3    H239814   5.472   1.100   7.918
13291TIP3   OH239815   5.663   1.601   7.974
13291TIP3    H139816   5.592   1.535   7.961
13291TIP3    H239817   5.636   1.640   8.062
13292TIP3   OH239818   6.107   0.954   7.792
13292TIP3    H139819   6.051   0.907   7.858
13292TIP3    H239820   6.132   1.032   7.845
13293TIP3   OH239821   6.169   1.169   7.947
13293TIP3    H139822   6.260   1.184   7.982
13293TIP3    H239823   6.155   1.252   7.897
13294TIP3   OH239824   5.819   1.753   7.812
13294TIP3    H139825   5.771   1.839   7.814
13294TIP3    H239826   5.761   1.699   7.869
13295TIP3   OH239827   6.341   2.074   7.703
13295TIP3    H139828   6.312   2.005   7.765
13295TIP3    H239829   6.356   2.025   7.620
13296TIP3   OH239830   5.434   1.937   8.268
13296TIP3    H139831   5.501   2.005   8.247
13296TIP3    H239832   5.358   1.979   8.226
13297TIP3   OH239833   5.044   1.236   7.986
13297TIP3    H139834   5.097   1.314   8.010
13297TIP3    H239835   4.964   1.255   8.040
13298TIP3   OH239836   5.589   1.711   8.206
13298TIP3    H139837   5.545   1.793   8.236
13298TIP3    H239838   5.637   1.685   8.288
13299TIP3   OH239839   5.379   2.184   8.131
13299TIP3    H139840   5.291   2.195   8.170
13299TIP3    H239841   5.415   2.275   8.140
13300TIP3   OH239842   6.094   1.801   7.600
13300TIP3    H139843   6.148   1.777   7.678
13300TIP3    H239844   6.006   1.777   7.632
13301TIP3   OH239845   6.439   2.273   7.424
13301TIP3    H139846   6.476   2.346   7.373
13301TIP3    H239847   6.358   2.317   7.458
13302TIP3   OH239848   6.244   1.737   7.815
13302TIP3    H139849   6.241   1.675   7.891
13302TIP3    H239850   6.340   1.733   7.795
13303TIP3   OH239851   5.465   1.781   7.606
13303TIP3    H139852   5.478   1.687   7.582
13303TIP3    H239853   5.443   1.773   7.701
13304TIP3   OH239854   5.405   1.785   7.878
13304TIP3    H139855   5.477   1.758   7.937
13304TIP3    H239856   5.410   1.883   7.885
13305TIP3   OH239857   5.147   1.483   8.085
13305TIP3    H139858   5.069   1.520   8.132
13305TIP3    H239859   5.159   1.551   8.017
13306TIP3   OH239860   5.674   1.980   7.821
13306TIP3    H139861   5.588   2.005   7.859
13306TIP3    H239862   5.695   2.061   7.770
13307TIP3   OH239863   5.834   1.030   8.163
13307TIP3    H139864   5.883   1.115   8.149
13307TIP3    H239865   5.857   1.013   8.255
13308TIP3   OH239866   5.420   2.057   7.893
13308TIP3    H139867   5.392   2.125   7.828
13308TIP3    H239868   5.407   2.105   7.977
13309TIP3   OH239869   5.133   1.685   7.883
13309TIP3    H139870   5.203   1.752   7.893
13309TIP3    H239871   5.179   1.626   7.819
13310TIP3   OH239872   5.071   0.948   7.944
13310TIP3    H139873   5.068   1.042   7.972
13310TIP3    H239874   5.028   0.906   8.021
13311TIP3   OH239875   6.419   2.389   8.322
13311TIP3    H139876   6.352   2.443   8.274
13311TIP3    H239877   6.486   2.459   8.337
13312TIP3   OH239878   4.997   1.881   8.251
13312TIP3    H139879   4.968   1.931   8.330
13312TIP3    H239880   4.963   1.938   8.178
13313TIP3   OH239881   5.625   1.984   7.512
13313TIP3    H139882   5.571   1.912   7.552
13313TIP3    H239883   5.702   1.933   7.480
13314TIP3   OH239884   6.062   2.023   7.426
13314TIP3    H139885   6.106   1.961   7.487
13314TIP3    H239886   6.119   2.021   7.347
13315TIP3   OH239887   5.276   1.499   7.746
13315TIP3    H139888   5.335   1.470   7.818
13315TIP3    H239889   5.341   1.506   7.673
13316TIP3   OH239890   5.785   1.698   7.545
13316TIP3    H139891   5.787   1.713   7.641
13316TIP3    H239892   5.782   1.600   7.541
13317TIP3   OH239893   5.471   1.409   7.944
13317TIP3    H139894   5.443   1.381   8.034
13317TIP3    H239895   5.510   1.326   7.910
13318TIP3   OH239896   5.580   1.190   7.806
13318TIP3    H139897   5.552   1.196   7.713
13318TIP3    H239898   5.677   1.199   7.798
13319TIP3   OH239899   6.389   1.524   7.459
13319TIP3    H139900   6.372   1.484   7.372
13319TIP3    H239901   6.360   1.616   7.440
13320TIP3   OH239902   5.389   2.256   7.704
13320TIP3    H139903   5.485   2.251   7.687
13320TIP3    H239904   5.362   2.311   7.628
13321TIP3   OH239905   4.861   1.643   7.907
13321TIP3    H139906   4.957   1.665   7.896
13321TIP3    H239907   4.859   1.553   7.868
13322TIP3   OH239908   4.798   2.242   8.324
13322TIP3    H139909   4.717   2.206   8.283
13322TIP3    H239910   4.821   2.169   8.383
13323TIP3   OH239911   6.642   2.563   8.306
13323TIP3    H139912   6.664   2.627   8.376
13323TIP3    H239913   6.656   2.618   8.228
13324TIP3   OH239914   6.510   1.715   7.775
13324TIP3    H139915   6.569   1.786   7.744
13324TIP3    H239916   6.567   1.675   7.844
13325TIP3   OH239917   6.587   1.496   7.635
13325TIP3    H139918   6.517   1.490   7.567
13325TIP3    H239919   6.553   1.574   7.683
13326TIP3   OH239920   6.398   1.157   7.604
13326TIP3    H139921   6.449   1.230   7.566
13326TIP3    H239922   6.427   1.081   7.553
13327TIP3   OH239923   6.226   2.372   7.976
13327TIP3    H139924   6.283   2.367   7.897
13327TIP3    H239925   6.272   2.437   8.031
13328TIP3   OH239926   5.885   2.477   8.505
13328TIP3    H139927   5.793   2.487   8.480
13328TIP3    H239928   5.885   2.500   8.599
13329TIP3   OH239929   6.105   2.459   8.671
13329TIP3    H139930   6.068   2.462   8.581
13329TIP3    H239931   6.195   2.489   8.649
13330TIP3   OH239932   6.268   2.609   8.502
13330TIP3    H139933   6.285   2.704   8.496
13330TIP3    H239934   6.352   2.575   8.535
13331TIP3   OH239935   4.884   2.049   8.074
13331TIP3    H139936   4.802   2.014   8.036
13331TIP3    H239937   4.879   2.140   8.038
13332TIP3   OH239938   5.658   2.217   7.654
13332TIP3    H139939   5.746   2.240   7.618
13332TIP3    H239940   5.635   2.143   7.594
13333TIP3   OH239941   6.376   2.340   7.746
13333TIP3    H139942   6.367   2.243   7.736
13333TIP3    H239943   6.329   2.371   7.665
13334TIP3   OH239944   4.958   2.051   7.708
13334TIP3    H139945   4.968   2.088   7.797
13334TIP3    H239946   5.046   2.010   7.692
13335TIP3   OH239947   6.715   1.883   7.724
13335TIP3    H139948   6.704   1.898   7.629
13335TIP3    H239949   6.746   1.973   7.752
13336TIP3   OH239950   7.493   2.592   7.395
13336TIP3    H139951   7.455   2.555   7.313
13336TIP3    H239952   7.446   2.677   7.404
13337TIP3   OH239953   6.918   2.447   7.780
13337TIP3    H139954   6.983   2.382   7.813
13337TIP3    H239955   6.836   2.397   7.790
13338TIP3   OH239956   7.694   2.460   7.017
13338TIP3    H139957   7.727   2.375   6.983
13338TIP3    H239958   7.761   2.480   7.086
13339TIP3   OH239959   6.801   1.486   7.471
13339TIP3    H139960   6.841   1.575   7.485
13339TIP3    H239961   6.730   1.489   7.539
13340TIP3   OH239962   7.189   2.438   7.609
13340TIP3    H139963   7.121   2.414   7.674
13340TIP3    H239964   7.193   2.536   7.618
13341TIP3   OH239965   7.270   2.030   7.069
13341TIP3    H139966   7.274   1.935   7.047
13341TIP3    H239967   7.244   2.027   7.164
13342TIP3   OH239968   7.196   2.051   7.331
13342TIP3    H139969   7.220   2.020   7.420
13342TIP3    H239970   7.205   2.148   7.344
13343TIP3   OH239971   6.886   1.742   7.538
13343TIP3    H139972   6.871   1.786   7.623
13343TIP3    H239973   6.931   1.811   7.486
13344TIP3   OH239974   7.472   2.237   7.304
13344TIP3    H139975   7.387   2.266   7.342
13344TIP3    H239976   7.489   2.309   7.242
13345TIP3   OH239977   7.218   2.318   7.367
13345TIP3    H139978   7.182   2.390   7.311
13345TIP3    H239979   7.205   2.357   7.457
13346TIP3   OH239980   6.929   1.962   7.354
13346TIP3    H139981   6.997   2.032   7.362
13346TIP3    H239982   6.975   1.905   7.289
13347TIP3   OH239983   6.861   1.215   7.444
13347TIP3    H139984   6.849   1.308   7.469
13347TIP3    H239985   6.862   1.169   7.530
13348TIP3   OH239986   6.787   2.137   7.764
13348TIP3    H139987   6.722   2.191   7.812
13348TIP3    H239988   6.790   2.186   7.679
13349TIP3   OH239989   7.416   2.248   6.997
13349TIP3    H139990   7.363   2.171   7.030
13349TIP3    H239991   7.490   2.201   6.954
13350TIP3   OH239992   7.831   2.242   6.896
13350TIP3    H139993   7.910   2.256   6.952
13350TIP3    H239994   7.874   2.249   6.807
13351TIP3   OH239995   7.069   1.763   7.216
13351TIP3    H139996   7.114   1.730   7.295
13351TIP3    H239997   7.145   1.767   7.154
13352TIP3   OH239998   7.566   1.952   7.038
13352TIP3    H139999   7.548   1.982   7.129
13352TIP3    H240000   7.541   1.859   7.042
13353TIP3   OH240001   7.175   2.526   7.193
13353TIP3    H140002   7.270   2.517   7.175
13353TIP3    H240003   7.148   2.575   7.113
13354TIP3   OH240004   6.664   1.904   7.405
13354TIP3    H140005   6.758   1.929   7.391
13354TIP3    H240006   6.663   1.814   7.367
13355TIP3   OH240007   6.574   2.516   7.814
13355TIP3    H140008   6.508   2.453   7.778
13355TIP3    H240009   6.619   2.458   7.880
13356TIP3   OH240010   6.716   2.369   7.989
13356TIP3    H140011   6.753   2.287   8.029
13356TIP3    H240012   6.740   2.432   8.058
13357TIP3   OH240013   6.684   2.301   7.563
13357TIP3    H140014   6.601   2.261   7.532
13357TIP3    H240015   6.670   2.393   7.533
13358TIP3   OH240016   7.442   2.479   7.139
13358TIP3    H140017   7.529   2.499   7.100
13358TIP3    H240018   7.416   2.405   7.080
13359TIP3   OH240019   6.754   2.311   7.195
13359TIP3    H140020   6.757   2.334   7.289
13359TIP3    H240021   6.842   2.269   7.181
13360TIP3   OH240022   2.461   3.309   8.054
13360TIP3    H140023   2.471   3.398   8.018
13360TIP3    H240024   2.551   3.273   8.044
13361TIP3   OH240025   2.493   3.591   8.078
13361TIP3    H140026   2.537   3.670   8.039
13361TIP3    H240027   2.402   3.609   8.051
13362TIP3   OH240028   3.920   3.154   8.369
13362TIP3    H140029   3.890   3.247   8.356
13362TIP3    H240030   3.854   3.110   8.312
13363TIP3   OH240031   4.145   3.486   8.388
13363TIP3    H140032   4.158   3.406   8.442
13363TIP3    H240033   4.147   3.554   8.456
13364TIP3   OH240034   3.781   3.916   8.430
13364TIP3    H140035   3.828   3.854   8.370
13364TIP3    H240036   3.823   3.891   8.514
13365TIP3   OH240037   3.788   3.368   8.237
13365TIP3    H140038   3.767   3.362   8.142
13365TIP3    H240039   3.767   3.462   8.254
13366TIP3   OH240040   3.925   3.761   8.258
13366TIP3    H140041   3.968   3.675   8.238
13366TIP3    H240042   3.991   3.822   8.218
13367TIP3   OH240043   4.041   3.541   8.146
13367TIP3    H140044   4.043   3.456   8.098
13367TIP3    H240045   4.086   3.515   8.230
13368TIP3   OH240046   3.755   3.016   8.200
13368TIP3    H140047   3.672   3.063   8.178
13368TIP3    H240048   3.794   3.003   8.112
13369TIP3   OH240049   3.705   2.791   7.907
13369TIP3    H140050   3.773   2.846   7.950
13369TIP3    H240051   3.764   2.730   7.857
13370TIP3   OH240052   4.078   3.099   8.145
13370TIP3    H140053   4.034   3.109   8.231
13370TIP3    H240054   4.165   3.063   8.172
13371TIP3   OH240055   3.923   2.949   7.981
13371TIP3    H140056   3.982   3.011   8.030
13371TIP3    H240057   3.951   2.968   7.888
13372TIP3   OH240058   3.684   3.637   8.260
13372TIP3    H140059   3.762   3.696   8.250
13372TIP3    H240060   3.615   3.688   8.215
13373TIP3   OH240061   4.449   2.185   8.026
13373TIP3    H140062   4.360   2.203   8.065
13373TIP3    H240063   4.465   2.269   7.979
13374TIP3   OH240064   4.248   3.556   7.591
13374TIP3    H140065   4.256   3.652   7.573
13374TIP3    H240066   4.340   3.525   7.577
13375TIP3   OH240067   3.556   3.869   8.071
13375TIP3    H140068   3.513   3.851   7.986
13375TIP3    H240069   3.529   3.961   8.090
13376TIP3   OH240070   3.756   3.775   7.707
13376TIP3    H140071   3.815   3.705   7.670
13376TIP3    H240072   3.793   3.786   7.798
13377TIP3   OH240073   3.808   3.824   7.976
13377TIP3    H140074   3.721   3.832   8.020
13377TIP3    H240075   3.861   3.779   8.044
13378TIP3   OH240076   4.006   2.991   7.724
13378TIP3    H140077   3.981   2.974   7.632
13378TIP3    H240078   4.093   3.033   7.709
13379TIP3   OH240079   3.727   2.370   8.039
13379TIP3    H140080   3.673   2.394   8.115
13379TIP3    H240081   3.681   2.289   8.007
13380TIP3   OH240082   3.960   2.841   8.303
13380TIP3    H140083   3.877   2.879   8.271
13380TIP3    H240084   3.979   2.778   8.231
13381TIP3   OH240085   3.409   2.381   8.007
13381TIP3    H140086   3.382   2.315   8.073
13381TIP3    H240087   3.324   2.407   7.969
13382TIP3   OH240088   3.241   2.620   8.113
13382TIP3    H140089   3.192   2.616   8.028
13382TIP3    H240090   3.327   2.651   8.078
13383TIP3   OH240091   3.516   3.158   8.140
13383TIP3    H140092   3.445   3.103   8.099
13383TIP3    H240093   3.476   3.188   8.222
13384TIP3   OH240094   3.978   2.462   8.002
13384TIP3    H140095   3.881   2.449   8.010
13384TIP3    H240096   3.988   2.559   8.017
13385TIP3   OH240097   4.055   2.713   8.081
13385TIP3    H140098   4.151   2.716   8.098
13385TIP3    H240099   4.038   2.795   8.032
13386TIP3   OH240100   3.666   3.312   7.967
13386TIP3    H140101   3.616   3.397   7.970
13386TIP3    H240102   3.612   3.257   8.027
13387TIP3   OH240103   4.476   2.806   7.942
13387TIP3    H140104   4.414   2.770   7.874
13387TIP3    H240105   4.481   2.898   7.910
13388TIP3   OH240106   4.186   3.631   7.854
13388TIP3    H140107   4.155   3.559   7.912
13388TIP3    H240108   4.198   3.586   7.768
13389TIP3   OH240109   3.201   3.744   8.248
13389TIP3    H140110   3.169   3.743   8.339
13389TIP3    H240111   3.252   3.827   8.247
13390TIP3   OH240112   3.939   3.362   7.754
13390TIP3    H140113   3.993   3.340   7.833
13390TIP3    H240114   3.851   3.333   7.784
13391TIP3   OH240115   4.278   3.831   7.573
13391TIP3    H140116   4.314   3.904   7.518
13391TIP3    H240117   4.198   3.876   7.607
13392TIP3   OH240118   4.102   3.309   7.972
13392TIP3    H140119   4.087   3.235   8.034
13392TIP3    H240120   4.198   3.298   7.955
13393TIP3   OH240121   3.305   3.337   7.756
13393TIP3    H140122   3.317   3.246   7.726
13393TIP3    H240123   3.283   3.324   7.850
13394TIP3   OH240124   3.244   3.341   8.028
13394TIP3    H140125   3.309   3.326   8.098
13394TIP3    H240126   3.246   3.439   8.022
13395TIP3   OH240127   4.062   2.444   8.262
13395TIP3    H140128   4.033   2.449   8.169
13395TIP3    H240129   3.997   2.502   8.304
13396TIP3   OH240130   3.520   3.539   7.976
13396TIP3    H140131   3.429   3.561   8.004
13396TIP3    H240132   3.534   3.607   7.908
13397TIP3   OH240133   3.257   3.609   8.020
13397TIP3    H140134   3.232   3.681   7.958
13397TIP3    H240135   3.232   3.651   8.105
13398TIP3   OH240136   2.975   3.256   8.035
13398TIP3    H140137   3.053   3.314   8.044
13398TIP3    H240138   3.016   3.186   7.981
13399TIP3   OH240139   4.227   3.988   8.526
13399TIP3    H140140   4.193   4.040   8.449
13399TIP3    H240141   4.323   4.001   8.512
13400TIP3   OH240142   3.469   3.541   7.667
13400TIP3    H140143   3.415   3.466   7.702
13400TIP3    H240144   3.543   3.493   7.626
13401TIP3   OH240145   3.903   3.581   7.579
13401TIP3    H140146   3.946   3.515   7.636
13401TIP3    H240147   3.958   3.578   7.498
13402TIP3   OH240148   3.112   3.061   7.889
13402TIP3    H140149   3.178   3.035   7.957
13402TIP3    H240150   3.174   3.068   7.813
13403TIP3   OH240151   3.626   3.257   7.700
13403TIP3    H140152   3.630   3.270   7.796
13403TIP3    H240153   3.624   3.159   7.694
13404TIP3   OH240154   3.324   2.980   8.047
13404TIP3    H140155   3.298   2.956   8.137
13404TIP3    H240156   3.363   2.897   8.012
13405TIP3   OH240157   3.431   2.741   7.946
13405TIP3    H140158   3.408   2.749   7.852
13405TIP3    H240159   3.529   2.744   7.941
13406TIP3   OH240160   4.242   3.073   7.603
13406TIP3    H140161   4.260   3.035   7.516
13406TIP3    H240162   4.206   3.161   7.579
13407TIP3   OH240163   3.232   3.824   7.853
13407TIP3    H140164   3.328   3.816   7.835
13407TIP3    H240165   3.206   3.875   7.774
13408TIP3   OH240166   2.710   3.205   8.047
13408TIP3    H140167   2.807   3.223   8.041
13408TIP3    H240168   2.707   3.111   8.019
13409TIP3   OH240169   4.491   4.075   8.485
13409TIP3    H140170   4.525   4.120   8.564
13409TIP3    H240171   4.558   4.098   8.418
13410TIP3   OH240172   4.377   3.277   7.942
13410TIP3    H140173   4.442   3.341   7.908
13410TIP3    H240174   4.426   3.240   8.019
13411TIP3   OH240175   4.518   3.149   8.137
13411TIP3    H140176   4.447   3.102   8.185
13411TIP3    H240177   4.578   3.179   8.208
13412TIP3   OH240178   4.535   3.537   8.551
13412TIP3    H140179   4.608   3.471   8.545
13412TIP3    H240180   4.569   3.608   8.495
13413TIP3   OH240181   4.442   3.049   7.795
13413TIP3    H140182   4.371   3.048   7.727
13413TIP3    H240183   4.413   3.126   7.849
13414TIP3   OH240184   4.313   2.719   7.745
13414TIP3    H140185   4.276   2.753   7.662
13414TIP3    H240186   4.288   2.625   7.736
13415TIP3   OH240187   4.311   2.983   8.223
13415TIP3    H140188   4.316   2.888   8.200
13415TIP3    H240189   4.329   2.980   8.320
13416TIP3   OH240190   4.261   2.450   7.732
13416TIP3    H140191   4.331   2.422   7.793
13416TIP3    H240192   4.184   2.396   7.756
13417TIP3   OH240193   4.325   2.714   8.157
13417TIP3    H140194   4.362   2.631   8.193
13417TIP3    H240195   4.391   2.734   8.087
13418TIP3   OH240196   4.426   2.451   8.214
13418TIP3    H140197   4.450   2.427   8.305
13418TIP3    H240198   4.356   2.387   8.193
13419TIP3   OH240199   4.504   2.397   7.863
13419TIP3    H140200   4.547   2.332   7.804
13419TIP3    H240201   4.567   2.472   7.860
13420TIP3   OH240202   4.076   3.938   8.126
13420TIP3    H140203   4.125   3.923   8.043
13420TIP3    H240204   4.132   4.003   8.171
13421TIP3   OH240205   4.232   2.247   8.181
13421TIP3    H140206   4.158   2.310   8.195
13421TIP3    H240207   4.193   2.166   8.218
13422TIP3   OH240208   2.755   3.616   8.205
13422TIP3    H140209   2.681   3.599   8.145
13422TIP3    H240210   2.724   3.699   8.247
13423TIP3   OH240211   3.498   3.776   7.804
13423TIP3    H140212   3.587   3.798   7.767
13423TIP3    H240213   3.476   3.702   7.744
13424TIP3   OH240214   4.219   3.897   7.896
13424TIP3    H140215   4.211   3.799   7.885
13424TIP3    H240216   4.173   3.928   7.815
13425TIP3   OH240217   2.804   3.610   7.866
13425TIP3    H140218   2.821   3.632   7.958
13425TIP3    H240219   2.889   3.566   7.840
13426TIP3   OH240220   5.710   3.415   7.847
13426TIP3    H140221   5.678   3.505   7.825
13426TIP3    H240222   5.635   3.362   7.816
13427TIP3   OH240223   5.707   3.415   8.236
13427TIP3    H140224   5.743   3.386   8.322
13427TIP3    H240225   5.668   3.332   8.203
13428TIP3   OH240226   5.027   3.355   8.587
13428TIP3    H140227   5.042   3.280   8.647
13428TIP3    H240228   5.109   3.354   8.534
13429TIP3   OH240229   5.954   3.716   7.914
13429TIP3    H140230   5.938   3.645   7.978
13429TIP3    H240231   5.985   3.789   7.970
13430TIP3   OH240232   4.978   3.724   8.322
13430TIP3    H140233   4.967   3.626   8.315
13430TIP3    H240234   5.074   3.730   8.315
13431TIP3   OH240235   4.699   2.936   8.085
13431TIP3    H140236   4.642   3.015   8.096
13431TIP3    H240237   4.634   2.865   8.097
13432TIP3   OH240238   4.746   3.207   8.281
13432TIP3    H140239   4.793   3.130   8.321
13432TIP3    H240240   4.806   3.232   8.210
13433TIP3   OH240241   5.607   4.179   7.932
13433TIP3    H140242   5.648   4.108   7.877
13433TIP3    H240243   5.591   4.132   8.015
13434TIP3   OH240244   5.508   3.639   8.280
13434TIP3    H140245   5.546   3.560   8.238
13434TIP3    H240246   5.592   3.684   8.302
13435TIP3   OH240247   6.517   2.980   8.261
13435TIP3    H140248   6.550   3.062   8.304
13435TIP3    H240249   6.542   2.996   8.169
13436TIP3   OH240250   5.918   3.139   8.309
13436TIP3    H140251   5.964   3.054   8.327
13436TIP3    H240252   5.889   3.125   8.217
13437TIP3   OH240253   5.263   2.790   8.279
13437TIP3    H140254   5.243   2.870   8.227
13437TIP3    H240255   5.213   2.724   8.226
13438TIP3   OH240256   5.956   2.889   7.896
13438TIP3    H140257   6.026   2.873   7.962
13438TIP3    H240258   6.009   2.925   7.822
13439TIP3   OH240259   4.894   3.005   8.382
13439TIP3    H140260   4.953   2.964   8.447
13439TIP3    H240261   4.914   2.950   8.303
13440TIP3   OH240262   5.326   3.202   8.185
13440TIP3    H140263   5.422   3.182   8.189
13440TIP3    H240264   5.289   3.116   8.155
13441TIP3   OH240265   6.583   3.181   8.443
13441TIP3    H140266   6.499   3.227   8.424
13441TIP3    H240267   6.562   3.142   8.529
13442TIP3   OH240268   5.595   3.633   7.719
13442TIP3    H140269   5.557   3.618   7.631
13442TIP3    H240270   5.551   3.716   7.745
13443TIP3   OH240271   5.370   3.573   8.506
13443TIP3    H140272   5.302   3.639   8.534
13443TIP3    H240273   5.410   3.616   8.428
13444TIP3   OH240274   6.160   2.893   8.075
13444TIP3    H140275   6.132   2.861   8.162
13444TIP3    H240276   6.212   2.972   8.099
13445TIP3   OH240277   5.111   2.882   8.501
13445TIP3    H140278   5.176   2.956   8.500
13445TIP3    H240279   5.146   2.829   8.427
13446TIP3   OH240280   5.180   3.748   8.608
13446TIP3    H140281   5.151   3.835   8.572
13446TIP3    H240282   5.118   3.737   8.682
13447TIP3   OH240283   4.579   3.444   7.836
13447TIP3    H140284   4.541   3.472   7.751
13447TIP3    H240285   4.612   3.529   7.872
13448TIP3   OH240286   6.023   3.961   8.080
13448TIP3    H140287   5.932   3.952   8.118
13448TIP3    H240288   6.013   4.046   8.032
13449TIP3   OH240289   6.321   2.890   8.446
13449TIP3    H140290   6.230   2.894   8.413
13449TIP3    H240291   6.372   2.919   8.367
13450TIP3   OH240292   5.611   2.494   8.403
13450TIP3    H140293   5.621   2.401   8.431
13450TIP3    H240294   5.591   2.536   8.489
13451TIP3   OH240295   5.721   4.005   7.751
13451TIP3    H140296   5.770   3.921   7.732
13451TIP3    H240297   5.784   4.069   7.711
13452TIP3   OH240298   5.864   3.790   7.664
13452TIP3    H140299   5.834   3.709   7.620
13452TIP3    H240300   5.902   3.754   7.747
13453TIP3   OH240301   6.240   3.871   8.420
13453TIP3    H140302   6.233   3.791   8.364
13453TIP3    H240303   6.227   3.943   8.355
13454TIP3   OH240304   5.541   3.265   7.682
13454TIP3    H140305   5.461   3.318   7.662
13454TIP3    H240306   5.586   3.263   7.596
13455TIP3   OH240307   5.499   3.051   7.393
13455TIP3    H140308   5.564   3.104   7.442
13455TIP3    H240309   5.558   2.989   7.346
13456TIP3   OH240310   6.446   3.517   8.269
13456TIP3    H140311   6.361   3.565   8.276
13456TIP3    H240312   6.470   3.536   8.176
13457TIP3   OH240313   5.888   3.348   7.650
13457TIP3    H140314   5.834   3.372   7.729
13457TIP3    H240315   5.973   3.323   7.694
13458TIP3   OH240316   6.122   3.377   8.574
13458TIP3    H140317   6.122   3.459   8.628
13458TIP3    H240318   6.036   3.386   8.528
13459TIP3   OH240319   5.122   3.344   8.065
13459TIP3    H140320   5.081   3.284   7.998
13459TIP3    H240321   5.196   3.289   8.098
13460TIP3   OH240322   5.250   3.756   8.216
13460TIP3    H140323   5.226   3.722   8.129
13460TIP3    H240324   5.339   3.718   8.230
13461TIP3   OH240325   5.246   3.341   8.419
13461TIP3    H140326   5.277   3.310   8.332
13461TIP3    H240327   5.297   3.425   8.432
13462TIP3   OH240328   5.781   3.957   8.201
13462TIP3    H140329   5.765   4.033   8.260
13462TIP3    H240330   5.766   3.880   8.259
13463TIP3   OH240331   5.396   3.896   8.699
13463TIP3    H140332   5.342   3.951   8.756
13463TIP3    H240333   5.328   3.836   8.662
13464TIP3   OH240334   5.726   3.206   7.478
13464TIP3    H140335   5.786   3.266   7.528
13464TIP3    H240336   5.753   3.227   7.385
13465TIP3   OH240337   5.473   3.883   7.756
13465TIP3    H140338   5.555   3.936   7.762
13465TIP3    H240339   5.413   3.943   7.710
13466TIP3   OH240340   6.242   2.444   7.527
13466TIP3    H140341   6.162   2.467   7.577
13466TIP3    H240342   6.258   2.527   7.477
13467TIP3   OH240343   4.988   3.187   7.870
13467TIP3    H140344   4.918   3.230   7.817
13467TIP3    H240345   4.947   3.102   7.890
13468TIP3   OH240346   6.045   3.811   7.077
13468TIP3    H140347   6.054   3.907   7.060
13468TIP3    H240348   6.137   3.780   7.066
13469TIP3   OH240349   4.625   3.771   8.408
13469TIP3    H140350   4.721   3.767   8.396
13469TIP3    H240351   4.614   3.845   8.470
13470TIP3   OH240352   6.489   4.222   8.469
13470TIP3    H140353   6.490   4.124   8.481
13470TIP3    H240354   6.402   4.242   8.510
13471TIP3   OH240355   5.609   4.005   8.588
13471TIP3    H140356   5.605   4.095   8.627
13471TIP3    H240357   5.528   3.964   8.627
13472TIP3   OH240358   5.356   4.129   7.557
13472TIP3    H140359   5.308   4.110   7.474
13472TIP3    H240360   5.321   4.216   7.583
13473TIP3   OH240361   4.790   3.978   7.941
13473TIP3    H140362   4.837   3.968   8.027
13473TIP3    H240363   4.740   3.894   7.938
13474TIP3   OH240364   5.554   4.032   7.194
13474TIP3    H140365   5.612   3.962   7.158
13474TIP3    H240366   5.589   4.042   7.285
13475TIP3   OH240367   5.606   4.081   7.464
13475TIP3    H140368   5.517   4.091   7.505
13475TIP3    H240369   5.656   4.039   7.536
13476TIP3   OH240370   6.387   3.351   8.711
13476TIP3    H140371   6.293   3.365   8.691
13476TIP3    H240372   6.396   3.254   8.704
13477TIP3   OH240373   6.136   3.124   8.694
13477TIP3    H140374   6.124   3.149   8.787
13477TIP3    H240375   6.122   3.209   8.646
13478TIP3   OH240376   5.802   3.248   7.222
13478TIP3    H140377   5.768   3.226   7.133
13478TIP3    H240378   5.887   3.290   7.198
13479TIP3   OH240379   5.515   2.625   7.526
13479TIP3    H140380   5.482   2.622   7.618
13479TIP3    H240381   5.475   2.543   7.491
13480TIP3   OH240382   5.284   3.087   8.506
13480TIP3    H140383   5.338   3.085   8.588
13480TIP3    H240384   5.281   3.180   8.483
13481TIP3   OH240385   5.191   2.978   8.092
13481TIP3    H140386   5.098   2.953   8.112
13481TIP3    H240387   5.201   2.937   8.003
13482TIP3   OH240388   5.678   3.064   7.816
13482TIP3    H140389   5.627   3.136   7.772
13482TIP3    H240390   5.733   3.031   7.742
13483TIP3   OH240391   5.839   3.093   8.050
13483TIP3    H140392   5.772   3.119   7.984
13483TIP3    H240393   5.872   3.012   8.006
13484TIP3   OH240394   5.172   2.599   7.492
13484TIP3    H140395   5.162   2.600   7.589
13484TIP3    H240396   5.096   2.654   7.465
13485TIP3   OH240397   4.667   2.684   8.252
13485TIP3    H140398   4.723   2.702   8.329
13485TIP3    H240399   4.720   2.616   8.206
13486TIP3   OH240400   4.684   2.625   7.882
13486TIP3    H140401   4.727   2.665   7.803
13486TIP3    H240402   4.624   2.699   7.906
13487TIP3   OH240403   5.845   3.340   8.472
13487TIP3    H140404   5.877   3.265   8.417
13487TIP3    H240405   5.819   3.292   8.554
13488TIP3   OH240406   5.517   2.798   8.143
13488TIP3    H140407   5.435   2.796   8.196
13488TIP3    H240408   5.586   2.800   8.212
13489TIP3   OH240409   4.952   2.861   8.156
13489TIP3    H140410   4.859   2.874   8.123
13489TIP3    H240411   4.971   2.769   8.132
13490TIP3   OH240412   5.214   2.851   7.847
13490TIP3    H140413   5.307   2.869   7.826
13490TIP3    H240414   5.167   2.875   7.764
13491TIP3   OH240415   6.013   2.878   8.334
13491TIP3    H140416   5.996   2.885   8.430
13491TIP3    H240417   5.943   2.815   8.308
13492TIP3   OH240418   5.065   2.886   7.622
13492TIP3    H140419   4.993   2.843   7.573
13492TIP3    H240420   5.116   2.925   7.548
13493TIP3   OH240421   6.189   4.561   8.556
13493TIP3    H140422   6.188   4.580   8.460
13493TIP3    H240423   6.226   4.643   8.591
13494TIP3   OH240424   5.594   3.146   8.229
13494TIP3    H140425   5.670   3.094   8.201
13494TIP3    H240426   5.589   3.123   8.325
13495TIP3   OH240427   5.118   2.624   8.116
13495TIP3    H140428   5.077   2.547   8.161
13495TIP3    H240429   5.164   2.581   8.043
13496TIP3   OH240430   5.583   3.075   8.492
13496TIP3    H140431   5.501   3.030   8.515
13496TIP3    H240432   5.645   3.032   8.552
13497TIP3   OH240433   5.310   3.417   7.629
13497TIP3    H140434   5.238   3.351   7.618
13497TIP3    H240435   5.290   3.451   7.720
13498TIP3   OH240436   6.208   3.653   8.256
13498TIP3    H140437   6.232   3.704   8.176
13498TIP3    H240438   6.124   3.609   8.230
13499TIP3   OH240439   5.768   2.727   7.496
13499TIP3    H140440   5.671   2.710   7.504
13499TIP3    H240441   5.776   2.821   7.520
13500TIP3   OH240442   5.725   3.744   8.620
13500TIP3    H140443   5.703   3.685   8.694
13500TIP3    H240444   5.667   3.821   8.634
13501TIP3   OH240445   5.836   2.977   7.597
13501TIP3    H140446   5.932   2.984   7.613
13501TIP3    H240447   5.818   3.058   7.545
13502TIP3   OH240448   4.998   3.453   8.286
13502TIP3    H140449   5.039   3.417   8.205
13502TIP3    H240450   5.031   3.393   8.354
13503TIP3   OH240451   5.455   3.567   7.453
13503TIP3    H140452   5.407   3.652   7.457
13503TIP3    H240453   5.401   3.512   7.514
13504TIP3   OH240454   5.875   4.004   8.521
13504TIP3    H140455   5.780   3.982   8.528
13504TIP3    H240456   5.882   4.071   8.590
13505TIP3   OH240457   6.276   3.071   7.433
13505TIP3    H140458   6.214   3.027   7.370
13505TIP3    H240459   6.275   3.160   7.392
13506TIP3   OH240460   6.487   3.942   8.505
13506TIP3    H140461   6.392   3.921   8.490
13506TIP3    H240462   6.525   3.902   8.423
13507TIP3   OH240463   5.981   3.887   7.341
13507TIP3    H140464   5.954   3.815   7.400
13507TIP3    H240465   5.995   3.842   7.256
13508TIP3   OH240466   5.973   3.517   8.174
13508TIP3    H140467   5.881   3.490   8.188
13508TIP3    H240468   6.009   3.437   8.131
13509TIP3   OH240469   5.105   3.746   7.934
13509TIP3    H140470   5.101   3.826   7.878
13509TIP3    H240471   5.012   3.724   7.943
13510TIP3   OH240472   4.671   3.045   7.641
13510TIP3    H140473   4.714   3.131   7.660
13510TIP3    H240474   4.592   3.050   7.699
13511TIP3   OH240475   5.238   3.509   7.872
13511TIP3    H140476   5.204   3.599   7.894
13511TIP3    H240477   5.203   3.457   7.946
13512TIP3   OH240478   5.372   4.092   8.394
13512TIP3    H140479   5.413   4.164   8.342
13512TIP3    H240480   5.450   4.050   8.432
13513TIP3   OH240481   5.022   3.983   7.782
13513TIP3    H140482   4.936   3.992   7.829
13513TIP3    H240483   5.054   4.076   7.785
13514TIP3   OH240484   5.763   3.723   8.354
13514TIP3    H140485   5.758   3.722   8.452
13514TIP3    H240486   5.835   3.660   8.337
13515TIP3   OH240487   5.738   3.618   7.243
13515TIP3    H140488   5.791   3.592   7.322
13515TIP3    H240489   5.650   3.587   7.270
13516TIP3   OH240490   6.001   4.256   8.410
13516TIP3    H140491   5.924   4.200   8.390
13516TIP3    H240492   5.996   4.321   8.336
13517TIP3   OH240493   6.074   4.087   7.060
13517TIP3    H140494   6.111   4.160   7.007
13517TIP3    H240495   5.994   4.131   7.095
13518TIP3   OH240496   5.898   3.551   7.460
13518TIP3    H140497   5.887   3.483   7.529
13518TIP3    H240498   5.995   3.546   7.445
13519TIP3   OH240499   4.831   3.970   8.544
13519TIP3    H140500   4.869   3.883   8.564
13519TIP3    H240501   4.772   3.983   8.621
13520TIP3   OH240502   5.101   3.595   7.242
13520TIP3    H140503   5.113   3.502   7.215
13520TIP3    H240504   5.080   3.585   7.337
13521TIP3   OH240505   5.045   3.600   7.514
13521TIP3    H140506   5.119   3.573   7.569
13521TIP3    H240507   5.049   3.698   7.522
13522TIP3   OH240508   4.779   3.292   7.718
13522TIP3    H140509   4.712   3.337   7.774
13522TIP3    H240510   4.792   3.361   7.650
13523TIP3   OH240511   5.966   2.917   8.596
13523TIP3    H140512   6.026   2.972   8.649
13523TIP3    H240513   5.887   2.906   8.653
13524TIP3   OH240514   5.816   2.676   7.778
13524TIP3    H140515   5.801   2.700   7.684
13524TIP3    H240516   5.855   2.758   7.814
13525TIP3   OH240517   5.314   3.797   7.462
13525TIP3    H140518   5.226   3.821   7.499
13525TIP3    H240519   5.327   3.870   7.400
13526TIP3   OH240520   5.498   2.862   7.875
13526TIP3    H140521   5.562   2.934   7.859
13526TIP3    H240522   5.504   2.852   7.973
13527TIP3   OH240523   5.789   3.210   8.706
13527TIP3    H140524   5.815   3.258   8.788
13527TIP3    H240525   5.824   3.122   8.722
13528TIP3   OH240526   5.641   2.581   7.975
13528TIP3    H140527   5.633   2.658   8.035
13528TIP3    H240528   5.705   2.616   7.909
13529TIP3   OH240529   5.059   3.873   7.531
13529TIP3    H140530   5.028   3.942   7.469
13529TIP3    H240531   5.042   3.915   7.618
13530TIP3   OH240532   5.156   2.587   7.768
13530TIP3    H140533   5.153   2.677   7.806
13530TIP3    H240534   5.253   2.571   7.776
13531TIP3   OH240535   6.404   3.074   8.638
13531TIP3    H140536   6.311   3.081   8.668
13531TIP3    H240537   6.392   3.002   8.574
13532TIP3   OH240538   6.060   3.276   8.053
13532TIP3    H140539   5.984   3.215   8.062
13532TIP3    H240540   6.131   3.228   8.100
13533TIP3   OH240541   4.775   3.498   7.522
13533TIP3    H140542   4.845   3.565   7.530
13533TIP3    H240543   4.818   3.440   7.455
13534TIP3   OH240544   4.714   2.775   7.654
13534TIP3    H140545   4.720   2.872   7.656
13534TIP3    H240546   4.629   2.762   7.611
13535TIP3   OH240547   6.030   4.233   8.001
13535TIP3    H140548   5.987   4.280   7.926
13535TIP3    H240549   6.124   4.250   7.980
13536TIP3   OH240550   4.644   3.719   7.906
13536TIP3    H140551   4.578   3.746   7.971
13536TIP3    H240552   4.609   3.761   7.824
13537TIP3   OH240553   5.264   3.797   7.152
13537TIP3    H140554   5.208   3.725   7.190
13537TIP3    H240555   5.340   3.745   7.119
13538TIP3   OH240556   5.940   4.111   8.778
13538TIP3    H140557   5.978   4.024   8.758
13538TIP3    H240558   6.012   4.171   8.756
13539TIP3   OH240559   5.700   3.836   7.066
13539TIP3    H140560   5.740   3.770   7.127
13539TIP3    H240561   5.757   3.831   6.988
13540TIP3   OH240562   4.911   3.313   7.377
13540TIP3    H140563   4.967   3.282   7.450
13540TIP3    H240564   4.977   3.318   7.305
13541TIP3   OH240565   5.425   3.514   7.183
13541TIP3    H140566   5.426   3.526   7.280
13541TIP3    H240567   5.424   3.416   7.177
13542TIP3   OH240568   6.037   3.768   8.577
13542TIP3    H140569   6.110   3.803   8.523
13542TIP3    H240570   5.963   3.823   8.546
13543TIP3   OH240571   5.116   3.221   7.596
13543TIP3    H140572   5.088   3.181   7.680
13543TIP3    H240573   5.153   3.144   7.548
13544TIP3   OH240574   5.220   3.014   7.436
13544TIP3    H140575   5.194   3.023   7.342
13544TIP3    H240576   5.317   3.017   7.429
13545TIP3   OH240577   6.034   3.341   7.106
13545TIP3    H140578   6.022   3.298   7.019
13545TIP3    H240579   6.004   3.432   7.083
13546TIP3   OH240580   5.539   3.418   8.662
13546TIP3    H140581   5.612   3.373   8.617
13546TIP3    H240582   5.499   3.472   8.591
13547TIP3   OH240583   6.165   3.594   8.745
13547TIP3    H140584   6.106   3.657   8.696
13547TIP3    H240585   6.252   3.628   8.715
13548TIP3   OH240586   5.028   4.077   7.345
13548TIP3    H140587   5.123   4.068   7.324
13548TIP3    H240588   4.999   4.127   7.266
13549TIP3   OH240589   4.506   3.457   7.558
13549TIP3    H140590   4.600   3.477   7.542
13549TIP3    H240591   4.498   3.368   7.517
13550TIP3   OH240592   4.422   4.069   7.976
13550TIP3    H140593   4.357   4.007   7.935
13550TIP3    H240594   4.466   4.009   8.040
13551TIP3   OH240595   4.555   3.916   8.162
13551TIP3    H140596   4.548   3.844   8.228
13551TIP3    H240597   4.609   3.980   8.213
13552TIP3   OH240598   6.285   4.317   7.960
13552TIP3    H140599   6.310   4.352   8.047
13552TIP3    H240600   6.347   4.363   7.901
13553TIP3   OH240601   6.310   4.340   8.241
13553TIP3    H140602   6.267   4.252   8.236
13553TIP3    H240603   6.387   4.318   8.295
13554TIP3   OH240604   6.175   3.529   7.434
13554TIP3    H140605   6.242   3.593   7.402
13554TIP3    H240606   6.221   3.492   7.512
13555TIP3   OH240607   6.304   3.397   7.639
13555TIP3    H140608   6.237   3.355   7.697
13555TIP3    H240609   6.367   3.435   7.703
13556TIP3   OH240610   6.362   3.792   8.072
13556TIP3    H140611   6.412   3.723   8.025
13556TIP3    H240612   6.357   3.863   8.005
13557TIP3   OH240613   6.187   4.093   8.261
13557TIP3    H140614   6.113   4.128   8.313
13557TIP3    H240615   6.141   4.045   8.189
13558TIP3   OH240616   6.241   3.305   7.283
13558TIP3    H140617   6.170   3.307   7.215
13558TIP3    H240618   6.212   3.381   7.338
13559TIP3   OH240619   6.109   2.977   7.240
13559TIP3    H140620   6.072   3.017   7.161
13559TIP3    H240621   6.086   2.883   7.228
13560TIP3   OH240622   6.116   3.256   7.784
13560TIP3    H140623   6.124   3.160   7.776
13560TIP3    H240624   6.101   3.268   7.880
13561TIP3   OH240625   4.753   3.375   8.507
13561TIP3    H140626   4.745   3.319   8.427
13561TIP3    H240627   4.847   3.365   8.530
13562TIP3   OH240628   6.403   3.693   8.646
13562TIP3    H140629   6.472   3.626   8.636
13562TIP3    H240630   6.444   3.771   8.604
13563TIP3   OH240631   6.601   3.498   8.640
13563TIP3    H140632   6.524   3.440   8.662
13563TIP3    H240633   6.652   3.489   8.722
13564TIP3   OH240634   6.057   2.709   7.219
13564TIP3    H140635   6.130   2.681   7.277
13564TIP3    H240636   5.983   2.652   7.244
13565TIP3   OH240637   6.114   2.972   7.676
13565TIP3    H140638   6.155   2.883   7.690
13565TIP3    H240639   6.172   3.005   7.605
13566TIP3   OH240640   6.270   3.143   8.170
13566TIP3    H140641   6.356   3.166   8.130
13566TIP3    H240642   6.284   3.180   8.259
13567TIP3   OH240643   6.335   3.294   8.395
13567TIP3    H140644   6.263   3.327   8.452
13567TIP3    H240645   6.373   3.376   8.359
13568TIP3   OH240646   6.222   2.722   7.714
13568TIP3    H140647   6.270   2.707   7.798
13568TIP3    H240648   6.161   2.645   7.714
13569TIP3   OH240649   6.300   2.653   7.351
13569TIP3    H140650   6.342   2.584   7.296
13569TIP3    H240651   6.367   2.725   7.348
13570TIP3   OH240652   4.700   2.458   8.091
13570TIP3    H140653   4.607   2.468   8.119
13570TIP3    H240654   4.704   2.524   8.018
13571TIP3   OH240655   5.868   4.188   7.617
13571TIP3    H140656   5.918   4.175   7.533
13571TIP3    H240657   5.923   4.254   7.662
13572TIP3   OH240658   5.154   4.013   8.549
13572TIP3    H140659   5.088   4.079   8.519
13572TIP3    H240660   5.232   4.045   8.499
13573TIP3   OH240661   5.615   4.256   8.693
13573TIP3    H140662   5.666   4.274   8.773
13573TIP3    H240663   5.662   4.315   8.629
13574TIP3   OH240664   5.781   4.416   8.548
13574TIP3    H140665   5.835   4.362   8.489
13574TIP3    H240666   5.844   4.486   8.572
13575TIP3   OH240667   4.830   4.306   8.566
13575TIP3    H140668   4.743   4.343   8.540
13575TIP3    H240669   4.814   4.289   8.660
13576TIP3   OH240670   5.065   4.262   8.432
13576TIP3    H140671   4.979   4.278   8.479
13576TIP3    H240672   5.042   4.291   8.341
13577TIP3   OH240673   5.485   4.287   8.229
13577TIP3    H140674   5.415   4.302   8.162
13577TIP3    H240675   5.494   4.376   8.267
13578TIP3   OH240676   5.752   4.230   8.289
13578TIP3    H140677   5.659   4.245   8.263
13578TIP3    H240678   5.798   4.295   8.232
13579TIP3   OH240679   5.958   4.416   8.194
13579TIP3    H140680   5.944   4.500   8.146
13579TIP3    H240681   5.987   4.357   8.121
13580TIP3   OH240682   4.734   4.076   8.313
13580TIP3    H140683   4.772   4.056   8.402
13580TIP3    H240684   4.803   4.033   8.259
13581TIP3   OH240685   4.928   3.947   8.174
13581TIP3    H140686   4.942   3.864   8.226
13581TIP3    H240687   5.019   3.982   8.170
13582TIP3   OH240688   5.195   4.039   8.178
13582TIP3    H140689   5.226   3.947   8.167
13582TIP3    H240690   5.239   4.061   8.262
13583TIP3   OH240691   5.772   2.696   8.260
13583TIP3    H140692   5.729   2.618   8.300
13583TIP3    H240693   5.851   2.656   8.218
13584TIP3   OH240694   6.288   2.569   8.158
13584TIP3    H140695   6.321   2.628   8.087
13584TIP3    H240696   6.197   2.602   8.171
13585TIP3   OH240697   6.386   2.679   7.930
13585TIP3    H140698   6.459   2.627   7.890
13585TIP3    H240699   6.421   2.770   7.915
13586TIP3   OH240700   5.016   2.403   8.232
13586TIP3    H140701   4.926   2.381   8.261
13586TIP3    H240702   5.062   2.319   8.247
13587TIP3   OH240703   4.811   2.268   7.924
13587TIP3    H140704   4.839   2.328   7.853
13587TIP3    H240705   4.776   2.331   7.990
13588TIP3   OH240706   5.468   2.439   8.167
13588TIP3    H140707   5.516   2.488   8.097
13588TIP3    H240708   5.514   2.470   8.247
13589TIP3   OH240709   5.999   2.586   8.143
13589TIP3    H140710   6.012   2.547   8.056
13589TIP3    H240711   5.985   2.504   8.197
13590TIP3   OH240712   6.038   2.509   7.707
13590TIP3    H140713   5.953   2.554   7.725
13590TIP3    H240714   6.023   2.423   7.754
13591TIP3   OH240715   4.521   3.850   7.705
13591TIP3    H140716   4.435   3.816   7.673
13591TIP3    H240717   4.512   3.944   7.679
13592TIP3   OH240718   4.924   2.429   7.694
13592TIP3    H140719   4.973   2.371   7.633
13592TIP3    H240720   4.995   2.486   7.729
13593TIP3   OH240721   5.434   2.611   7.791
13593TIP3    H140722   5.497   2.568   7.850
13593TIP3    H240723   5.452   2.705   7.814
13594TIP3   OH240724   5.295   4.031   7.290
13594TIP3    H140725   5.383   4.054   7.254
13594TIP3    H240726   5.272   3.957   7.230
13595TIP3   OH240727   6.014   4.154   7.385
13595TIP3    H140728   6.007   4.056   7.374
13595TIP3    H240729   5.968   4.184   7.304
13596TIP3   OH240730   4.599   3.871   7.344
13596TIP3    H140731   4.601   3.890   7.439
13596TIP3    H240732   4.686   3.827   7.330
13597TIP3   OH240733   6.237   4.289   8.561
13597TIP3    H140734   6.157   4.269   8.508
13597TIP3    H240735   6.225   4.385   8.575
13598TIP3   OH240736   7.503   3.667   7.339
13598TIP3    H140737   7.477   3.759   7.318
13598TIP3    H240738   7.429   3.620   7.296
13599TIP3   OH240739   7.497   3.669   7.712
13599TIP3    H140740   7.570   3.616   7.747
13599TIP3    H240741   7.451   3.606   7.655
13600TIP3   OH240742   6.801   3.570   8.075
13600TIP3    H140743   6.830   3.500   8.136
13600TIP3    H240744   6.886   3.613   8.056
13601TIP3   OH240745   7.748   3.967   7.399
13601TIP3    H140746   7.744   3.896   7.465
13601TIP3    H240747   7.783   4.041   7.452
13602TIP3   OH240748   6.780   3.977   7.808
13602TIP3    H140749   6.771   3.879   7.808
13602TIP3    H240750   6.876   3.985   7.797
13603TIP3   OH240751   6.482   3.176   7.589
13603TIP3    H140752   6.433   3.258   7.606
13603TIP3    H240753   6.412   3.123   7.547
13604TIP3   OH240754   6.539   3.468   7.767
13604TIP3    H140755   6.586   3.389   7.800
13604TIP3    H240756   6.594   3.494   7.692
13605TIP3   OH240757   7.402   4.437   7.417
13605TIP3    H140758   7.443   4.365   7.366
13605TIP3    H240759   7.393   4.397   7.504
13606TIP3   OH240760   7.303   3.899   7.763
13606TIP3    H140761   7.343   3.816   7.733
13606TIP3    H240762   7.385   3.950   7.779
13607TIP3   OH240763   7.072   3.062   7.720
13607TIP3    H140764   7.031   3.143   7.685
13607TIP3    H240765   7.008   2.995   7.690
13608TIP3   OH240766   7.726   3.189   7.363
13608TIP3    H140767   7.789   3.122   7.399
13608TIP3    H240768   7.773   3.220   7.284
13609TIP3   OH240769   6.682   3.259   7.865
13609TIP3    H140770   6.767   3.241   7.910
13609TIP3    H240771   6.695   3.202   7.786
13610TIP3   OH240772   7.126   3.456   7.668
13610TIP3    H140773   7.218   3.422   7.677
13610TIP3    H240774   7.080   3.378   7.629
13611TIP3   OH240775   6.960   3.062   8.257
13611TIP3    H140776   6.969   3.080   8.162
13611TIP3    H240777   7.051   3.059   8.287
13612TIP3   OH240778   7.400   3.890   7.201
13612TIP3    H140779   7.354   3.872   7.118
13612TIP3    H240780   7.353   3.971   7.231
13613TIP3   OH240781   7.142   3.823   7.976
13613TIP3    H140782   7.087   3.893   8.016
13613TIP3    H240783   7.193   3.872   7.909
13614TIP3   OH240784   6.920   3.171   7.969
13614TIP3    H140785   6.986   3.239   7.995
13614TIP3    H240786   6.981   3.098   7.945
13615TIP3   OH240787   6.986   4.018   8.097
13615TIP3    H140788   6.960   4.105   8.059
13615TIP3    H240789   6.905   3.999   8.149
13616TIP3   OH240790   6.376   3.699   7.325
13616TIP3    H140791   6.339   3.722   7.237
13616TIP3    H240792   6.408   3.786   7.356
13617TIP3   OH240793   7.822   4.223   7.558
13617TIP3    H140794   7.737   4.201   7.604
13617TIP3    H240795   7.796   4.310   7.522
13618TIP3   OH240796   7.518   4.262   7.237
13618TIP3    H140797   7.568   4.179   7.221
13618TIP3    H240798   7.580   4.326   7.196
13619TIP3   OH240799   7.664   4.047   7.150
13619TIP3    H140800   7.615   3.970   7.117
13619TIP3    H240801   7.700   4.011   7.235
13620TIP3   OH240802   7.336   3.530   7.164
13620TIP3    H140803   7.253   3.580   7.148
13620TIP3    H240804   7.374   3.526   7.075
13621TIP3   OH240805   7.296   3.304   6.883
13621TIP3    H140806   7.363   3.361   6.926
13621TIP3    H240807   7.354   3.242   6.835
13622TIP3   OH240808   7.682   3.608   7.137
13622TIP3    H140809   7.626   3.630   7.215
13622TIP3    H240810   7.766   3.584   7.182
13623TIP3   OH240811   6.914   3.602   7.555
13623TIP3    H140812   6.871   3.543   7.489
13623TIP3    H240813   6.989   3.547   7.585
13624TIP3   OH240814   7.045   4.014   7.702
13624TIP3    H140815   7.023   3.979   7.615
13624TIP3    H240816   7.134   3.976   7.717
13625TIP3   OH240817   7.049   3.571   7.913
13625TIP3    H140818   7.078   3.543   7.824
13625TIP3    H240819   7.083   3.663   7.919
13626TIP3   OH240820   7.582   4.220   7.677
13626TIP3    H140821   7.568   4.298   7.734
13626TIP3    H240822   7.564   4.144   7.737
13627TIP3   OH240823   7.190   4.145   8.237
13627TIP3    H140824   7.119   4.200   8.278
13627TIP3    H240825   7.135   4.081   8.187
13628TIP3   OH240826   7.523   3.461   6.963
13628TIP3    H140827   7.579   3.524   7.013
13628TIP3    H240828   7.550   3.482   6.870
13629TIP3   OH240829   6.928   3.694   8.338
13629TIP3    H140830   6.920   3.781   8.380
13629TIP3    H240831   6.836   3.662   8.346
13630TIP3   OH240832   7.270   4.136   7.243
13630TIP3    H140833   7.349   4.193   7.252
13630TIP3    H240834   7.209   4.194   7.196
13631TIP3   OH240835   6.981   4.295   8.325
13631TIP3    H140836   6.944   4.302   8.234
13631TIP3    H240837   6.901   4.278   8.379
13632TIP3   OH240838   7.973   2.700   6.962
13632TIP3    H140839   7.914   2.717   7.039
13632TIP3    H240840   7.986   2.789   6.926
13633TIP3   OH240841   6.779   3.446   7.362
13633TIP3    H140842   6.712   3.490   7.305
13633TIP3    H240843   6.741   3.358   7.371
13634TIP3   OH240844   7.840   4.068   6.563
13634TIP3    H140845   7.848   4.165   6.547
13634TIP3    H240846   7.933   4.039   6.550
13635TIP3   OH240847   6.563   3.829   8.268
13635TIP3    H140848   6.495   3.809   8.201
13635TIP3    H240849   6.598   3.740   8.289
13636TIP3   OH240850   6.417   4.021   7.900
13636TIP3    H140851   6.513   4.016   7.891
13636TIP3    H240852   6.407   4.102   7.953
13637TIP3   OH240853   7.369   4.274   8.085
13637TIP3    H140854   7.404   4.332   8.153
13637TIP3    H240855   7.302   4.223   8.137
13638TIP3   OH240856   7.154   4.388   7.042
13638TIP3    H140857   7.102   4.366   6.962
13638TIP3    H240858   7.116   4.474   7.068
13639TIP3   OH240859   6.587   4.235   7.429
13639TIP3    H140860   6.632   4.225   7.515
13639TIP3    H240861   6.538   4.151   7.424
13640TIP3   OH240862   7.351   4.290   6.681
13640TIP3    H140863   7.409   4.220   6.646
13640TIP3    H240864   7.384   4.299   6.773
13641TIP3   OH240865   7.403   4.337   6.951
13641TIP3    H140866   7.313   4.349   6.989
13641TIP3    H240867   7.449   4.293   7.024
13642TIP3   OH240868   6.763   4.014   8.258
13642TIP3    H140869   6.804   3.993   8.345
13642TIP3    H240870   6.688   3.950   8.257
13643TIP3   OH240871   7.084   2.955   8.022
13643TIP3    H140872   7.081   2.907   8.105
13643TIP3    H240873   7.148   2.903   7.971
13644TIP3   OH240874   7.604   3.504   6.711
13644TIP3    H140875   7.565   3.483   6.624
13644TIP3    H240876   7.686   3.550   6.683
13645TIP3   OH240877   7.315   2.879   7.011
13645TIP3    H140878   7.274   2.877   7.100
13645TIP3    H240879   7.272   2.799   6.973
13646TIP3   OH240880   7.106   3.352   8.068
13646TIP3    H140881   7.043   3.372   8.141
13646TIP3    H240882   7.096   3.431   8.013
13647TIP3   OH240883   6.969   3.258   7.559
13647TIP3    H140884   6.879   3.226   7.582
13647TIP3    H240885   6.982   3.211   7.473
13648TIP3   OH240886   7.459   3.327   7.297
13648TIP3    H140887   7.411   3.399   7.250
13648TIP3    H240888   7.522   3.297   7.230
13649TIP3   OH240889   7.603   3.372   7.535
13649TIP3    H140890   7.542   3.401   7.465
13649TIP3    H240891   7.642   3.296   7.488
13650TIP3   OH240892   6.907   3.391   8.255
13650TIP3    H140893   6.919   3.444   8.335
13650TIP3    H240894   6.878   3.306   8.291
13651TIP3   OH240895   6.973   2.858   6.979
13651TIP3    H140896   6.958   2.856   7.075
13651TIP3    H240897   6.895   2.909   6.950
13652TIP3   OH240898   6.512   2.901   7.844
13652TIP3    H140899   6.584   2.937   7.899
13652TIP3    H240900   6.557   2.870   7.765
13653TIP3   OH240901   6.476   2.881   7.369
13653TIP3    H140902   6.520   2.918   7.289
13653TIP3    H240903   6.415   2.954   7.389
13654TIP3   OH240904   7.323   3.051   7.631
13654TIP3    H140905   7.228   3.046   7.658
13654TIP3    H240906   7.358   3.095   7.710
13655TIP3   OH240907   6.745   3.119   7.636
13655TIP3    H140908   6.650   3.123   7.609
13655TIP3    H240909   6.770   3.026   7.616
13656TIP3   OH240910   7.012   3.112   7.330
13656TIP3    H140911   7.103   3.128   7.300
13656TIP3    H240912   6.958   3.130   7.249
13657TIP3   OH240913   6.858   3.144   7.112
13657TIP3    H140914   6.789   3.097   7.062
13657TIP3    H240915   6.910   3.182   7.038
13658TIP3   OH240916   6.899   3.923   8.493
13658TIP3    H140917   6.976   3.969   8.528
13658TIP3    H240918   6.861   3.881   8.572
13659TIP3   OH240919   7.393   3.369   7.716
13659TIP3    H140920   7.472   3.363   7.659
13659TIP3    H240921   7.431   3.360   7.804
13660TIP3   OH240922   6.906   2.879   7.603
13660TIP3    H140923   6.865   2.811   7.662
13660TIP3    H240924   6.943   2.824   7.533
13661TIP3   OH240925   7.106   3.677   7.119
13661TIP3    H140926   7.037   3.607   7.108
13661TIP3    H240927   7.084   3.710   7.209
13662TIP3   OH240928   7.564   2.982   6.988
13662TIP3    H140929   7.468   2.961   6.992
13662TIP3    H240930   7.567   3.078   7.005
13663TIP3   OH240931   7.448   3.989   8.069
13663TIP3    H140932   7.459   3.941   8.153
13663TIP3    H240933   7.436   4.080   8.098
13664TIP3   OH240934   7.635   3.239   7.079
13664TIP3    H140935   7.731   3.252   7.073
13664TIP3    H240936   7.601   3.317   7.028
13665TIP3   OH240937   6.802   3.703   7.789
13665TIP3    H140938   6.836   3.671   7.703
13665TIP3    H240939   6.835   3.635   7.849
13666TIP3   OH240940   7.254   3.825   6.945
13666TIP3    H140941   7.205   3.911   6.946
13666TIP3    H240942   7.196   3.770   7.002
13667TIP3   OH240943   6.674   3.603   8.398
13667TIP3    H140944   6.659   3.572   8.490
13667TIP3    H240945   6.603   3.553   8.354
13668TIP3   OH240946   7.649   4.283   8.024
13668TIP3    H140947   7.555   4.279   7.998
13668TIP3    H240948   7.645   4.343   8.100
13669TIP3   OH240949   8.073   3.328   6.924
13669TIP3    H140950   8.015   3.285   6.857
13669TIP3    H240951   8.073   3.418   6.884
13670TIP3   OH240952   7.785   4.142   6.831
13670TIP3    H140953   7.747   4.076   6.890
13670TIP3    H240954   7.790   4.096   6.745
13671TIP3   OH240955   7.758   3.771   7.604
13671TIP3    H140956   7.663   3.764   7.623
13671TIP3    H240957   7.780   3.680   7.579
13672TIP3   OH240958   6.901   4.003   7.422
13672TIP3    H140959   6.897   4.083   7.365
13672TIP3    H240960   6.808   3.978   7.426
13673TIP3   OH240961   6.466   3.303   7.119
13673TIP3    H140962   6.509   3.389   7.138
13673TIP3    H240963   6.388   3.308   7.178
13674TIP3   OH240964   7.037   3.767   7.364
13674TIP3    H140965   7.002   3.856   7.383
13674TIP3    H240966   6.997   3.714   7.435
13675TIP3   OH240967   7.169   4.343   7.884
13675TIP3    H140968   7.211   4.411   7.827
13675TIP3    H240969   7.247   4.306   7.930
13676TIP3   OH240970   6.818   4.240   7.271
13676TIP3    H140971   6.732   4.249   7.317
13676TIP3    H240972   6.849   4.334   7.273
13677TIP3   OH240973   7.560   3.989   7.827
13677TIP3    H140974   7.523   3.985   7.917
13677TIP3    H240975   7.646   3.943   7.842
13678TIP3   OH240976   7.532   3.876   6.725
13678TIP3    H140977   7.582   3.849   6.806
13678TIP3    H240978   7.444   3.842   6.747
13679TIP3   OH240979   7.871   4.343   6.546
13679TIP3    H140980   7.901   4.413   6.486
13679TIP3    H240981   7.791   4.387   6.583
13680TIP3   OH240982   7.692   3.805   6.940
13680TIP3    H140983   7.680   3.741   7.013
13680TIP3    H240984   7.789   3.802   6.929
13681TIP3   OH240985   6.606   4.206   8.043
13681TIP3    H140986   6.660   4.134   8.079
13681TIP3    H240987   6.633   4.281   8.099
13682TIP3   OH240988   6.899   3.844   6.730
13682TIP3    H140989   6.907   3.753   6.694
13682TIP3    H240990   6.868   3.825   6.821
13683TIP3   OH240991   6.835   3.864   7.008
13683TIP3    H140992   6.913   3.831   7.054
13683TIP3    H240993   6.847   3.962   7.012
13684TIP3   OH240994   6.578   3.550   7.203
13684TIP3    H140995   6.509   3.595   7.257
13684TIP3    H240996   6.592   3.617   7.133
13685TIP3   OH240997   7.610   2.947   7.262
13685TIP3    H140998   7.595   2.950   7.165
13685TIP3    H240999   7.629   3.041   7.282
13686TIP3   OH241000   7.113   4.056   6.950
13686TIP3    H141001   7.025   4.080   6.987
13686TIP3    H241002   7.121   4.123   6.882
13687TIP3   OH241003   7.300   3.117   7.363
13687TIP3    H141004   7.356   3.194   7.340
13687TIP3    H241005   7.299   3.122   7.460
13688TIP3   OH241006   7.435   2.861   7.459
13688TIP3    H141007   7.402   2.946   7.497
13688TIP3    H241008   7.499   2.894   7.392
13689TIP3   OH241009   6.861   4.136   7.019
13689TIP3    H141010   6.827   4.204   6.957
13689TIP3    H241011   6.840   4.176   7.106
13690TIP3   OH241012   6.948   2.843   7.255
13690TIP3    H141013   6.945   2.933   7.294
13690TIP3    H241014   7.045   2.827   7.260
13691TIP3   OH241015   7.862   3.489   7.534
13691TIP3    H141016   7.773   3.455   7.556
13691TIP3    H241017   7.895   3.516   7.621
13692TIP3   OH241018   6.571   3.762   7.012
13692TIP3    H141019   6.645   3.826   7.020
13692TIP3    H241020   6.614   3.701   6.947
13693TIP3   OH241021   6.511   3.033   7.145
13693TIP3    H141022   6.518   3.130   7.141
13693TIP3    H241023   6.443   3.017   7.079
13694TIP3   OH241024   7.815   4.500   7.493
13694TIP3    H141025   7.783   4.548   7.414
13694TIP3    H241026   7.906   4.480   7.468
13695TIP3   OH241027   6.824   2.707   8.054
13695TIP3    H141028   6.809   2.695   7.958
13695TIP3    H241029   6.911   2.665   8.066
13696TIP3   OH241030   6.442   3.978   7.393
13696TIP3    H141031   6.373   4.003   7.456
13696TIP3    H241032   6.408   4.018   7.310
13697TIP3   OH241033   6.602   4.505   8.441
13697TIP3    H141034   6.664   4.493   8.514
13697TIP3    H241035   6.557   4.419   8.441
13698TIP3   OH241036   7.059   4.050   6.641
13698TIP3    H141037   7.002   3.978   6.679
13698TIP3    H241038   7.134   3.996   6.610
13699TIP3   OH241039   7.497   4.094   6.555
13699TIP3    H141040   7.532   4.024   6.614
13699TIP3    H241041   7.554   4.087   6.476
13700TIP3   OH241042   6.709   3.586   6.866
13700TIP3    H141043   6.771   3.529   6.915
13700TIP3    H241044   6.696   3.537   6.783
13701TIP3   OH241045   7.229   3.776   6.671
13701TIP3    H141046   7.222   3.783   6.768
13701TIP3    H241047   7.222   3.679   6.660
13702TIP3   OH241048   6.929   3.472   7.096
13702TIP3    H141049   6.886   3.429   7.172
13702TIP3    H241050   6.957   3.396   7.041
13703TIP3   OH241051   7.170   3.570   8.334
13703TIP3    H141052   7.080   3.608   8.327
13703TIP3    H241053   7.208   3.597   8.248
13704TIP3   OH241054   7.018   3.269   6.930
13704TIP3    H141055   6.990   3.276   6.836
13704TIP3    H241056   7.115   3.273   6.920
13705TIP3   OH241057   7.837   3.599   6.589
13705TIP3    H141058   7.816   3.554   6.505
13705TIP3    H241059   7.802   3.689   6.568
13706TIP3   OH241060   7.300   3.644   8.107
13706TIP3    H141061   7.379   3.645   8.051
13706TIP3    H241062   7.241   3.707   8.059
13707TIP3   OH241063   6.825   4.339   6.833
13707TIP3    H141064   6.919   4.326   6.810
13707TIP3    H241065   6.795   4.385   6.752
13708TIP3   OH241066   6.303   3.715   7.052
13708TIP3    H141067   6.397   3.737   7.031
13708TIP3    H241068   6.294   3.628   7.006
13709TIP3   OH241069   6.218   4.326   7.461
13709TIP3    H141070   6.152   4.265   7.421
13709TIP3    H241071   6.262   4.267   7.525
13710TIP3   OH241072   6.351   4.174   7.648
13710TIP3    H141073   6.339   4.102   7.712
13710TIP3    H241074   6.404   4.236   7.701
13711TIP3   OH241075   7.970   3.787   6.920
13711TIP3    H141076   8.031   3.856   6.888
13711TIP3    H241077   8.019   3.750   6.996
13712TIP3   OH241078   8.099   3.659   7.132
13712TIP3    H141079   8.025   3.606   7.170
13712TIP3    H241080   8.117   3.720   7.204
13713TIP3   OH241081   8.077   4.002   7.480
13713TIP3    H141082   8.167   4.011   7.512
13713TIP3    H241083   8.044   4.093   7.481
13714TIP3   OH241084   7.997   4.380   7.711
13714TIP3    H141085   7.957   4.379   7.798
13714TIP3    H241086   7.941   4.316   7.663
13715TIP3   OH241087   8.034   3.561   6.776
13715TIP3    H141088   7.966   3.560   6.704
13715TIP3    H241089   8.004   3.640   6.825
13716TIP3   OH241090   7.909   3.235   6.730
13716TIP3    H141091   7.868   3.273   6.652
13716TIP3    H241092   7.885   3.140   6.717
13717TIP3   OH241093   7.912   3.509   7.262
13717TIP3    H141094   7.916   3.414   7.238
13717TIP3    H241095   7.897   3.506   7.359
13718TIP3   OH241096   6.536   3.585   8.018
13718TIP3    H141097   6.533   3.551   7.926
13718TIP3    H241098   6.633   3.587   8.033
13719TIP3   OH241099   7.850   2.971   6.708
13719TIP3    H141100   7.923   2.935   6.762
13719TIP3    H241101   7.774   2.913   6.728
13720TIP3   OH241102   7.916   3.242   7.147
13720TIP3    H141103   7.940   3.149   7.154
13720TIP3    H241104   7.976   3.271   7.074
13721TIP3   OH241105   6.711   2.968   8.020
13721TIP3    H141106   6.757   2.885   8.044
13721TIP3    H241107   6.784   3.032   8.018
13722TIP3   OH241108   6.516   3.236   8.090
13722TIP3    H141109   6.567   3.229   8.007
13722TIP3    H241110   6.551   3.317   8.128
13723TIP3   OH241111   8.101   2.910   6.832
13723TIP3    H141112   8.146   2.852   6.768
13723TIP3    H241113   8.165   2.985   6.839
13724TIP3   OH241114   6.506   2.735   7.594
13724TIP3    H141115   6.414   2.733   7.625
13724TIP3    H241116   6.500   2.797   7.518
13725TIP3   OH241117   7.667   4.443   7.103
13725TIP3    H141118   7.718   4.433   7.020
13725TIP3    H241119   7.716   4.511   7.150
13726TIP3   OH241120   6.645   2.809   8.427
13726TIP3    H141121   6.573   2.802   8.491
13726TIP3    H241122   6.605   2.867   8.359
13727TIP3   OH241123   6.767   4.246   8.500
13727TIP3    H141124   6.680   4.227   8.461
13727TIP3    H241125   6.754   4.212   8.589
13728TIP3   OH241126   6.945   4.289   8.039
13728TIP3    H141127   6.896   4.363   7.998
13728TIP3    H241128   7.030   4.301   7.992
13729TIP3   OH241129   6.620   4.537   8.063
13729TIP3    H141130   6.529   4.565   8.039
13729TIP3    H241131   6.634   4.590   8.143
13730TIP3   OH241132   6.857   4.521   7.921
13730TIP3    H141133   6.769   4.531   7.964
13730TIP3    H241134   6.838   4.550   7.830
13731TIP3   OH241135   7.269   4.532   7.706
13731TIP3    H141136   7.200   4.557   7.642
13731TIP3    H241137   7.289   4.619   7.748
13732TIP3   OH241138   7.534   4.478   7.771
13732TIP3    H141139   7.443   4.499   7.741
13732TIP3    H241140   7.583   4.557   7.741
13733TIP3   OH241141   7.680   4.692   7.650
13733TIP3    H141142   7.764   4.734   7.674
13733TIP3    H241143   7.713   4.614   7.600
13734TIP3   OH241144   6.530   4.331   7.803
13734TIP3    H141145   6.555   4.303   7.893
13734TIP3    H241146   6.601   4.287   7.752
13735TIP3   OH241147   6.725   4.203   7.664
13735TIP3    H141148   6.740   4.119   7.713
13735TIP3    H241149   6.816   4.238   7.657
13736TIP3   OH241150   6.992   4.297   7.665
13736TIP3    H141151   7.022   4.205   7.652
13736TIP3    H241152   7.039   4.317   7.749
13737TIP3   OH241153   6.791   2.689   7.765
13737TIP3    H141154   6.700   2.652   7.756
13737TIP3    H241155   6.844   2.606   7.763
13738TIP3   OH241156   6.602   2.533   7.416
13738TIP3    H141157   6.630   2.589   7.343
13738TIP3    H241158   6.573   2.599   7.483
13739TIP3   OH241159   7.233   2.708   7.650
13739TIP3    H141160   7.269   2.783   7.602
13739TIP3    H241161   7.232   2.740   7.742
13740TIP3   OH241162   7.829   2.773   7.185
13740TIP3    H141163   7.756   2.823   7.225
13740TIP3    H241164   7.830   2.693   7.240
13741TIP3   OH241165   6.317   4.107   7.192
13741TIP3    H141166   6.233   4.071   7.160
13741TIP3    H241167   6.306   4.200   7.166
13742TIP3   OH241168   6.718   2.688   7.179
13742TIP3    H141169   6.767   2.626   7.121
13742TIP3    H241170   6.791   2.743   7.214
13743TIP3   OH241171   7.223   2.871   7.272
13743TIP3    H141172   7.282   2.822   7.331
13743TIP3    H241173   7.247   2.963   7.297
13744TIP3   OH241174   7.090   4.288   6.775
13744TIP3    H141175   7.178   4.311   6.738
13744TIP3    H241176   7.067   4.213   6.715
13745TIP3   OH241177   7.813   4.410   6.871
13745TIP3    H141178   7.806   4.312   6.861
13745TIP3    H241179   7.763   4.439   6.791
13746TIP3   OH241180   6.396   4.131   6.832
13746TIP3    H141181   6.397   4.143   6.928
13746TIP3    H241182   6.482   4.085   6.816
13747TIP3   OH241183   8.264   3.424   7.130
13747TIP3    H141184   8.220   3.511   7.121
13747TIP3    H241185   8.222   3.376   7.057
13748TIP3   OH241186   8.156   3.971   6.819
13748TIP3    H141187   8.119   3.994   6.731
13748TIP3    H241188   8.194   4.056   6.848
13749TIP3   OH241189   8.540   3.658   6.756
13749TIP3    H141190   8.458   3.710   6.751
13749TIP3    H241191   8.561   3.650   6.850
13750TIP3   OH241192   8.188   4.298   7.406
13750TIP3    H141193   8.281   4.280   7.381
13750TIP3    H241194   8.188   4.273   7.498
13751TIP3   OH241195   8.850   4.614   6.549
13751TIP3    H141196   8.874   4.604   6.455
13751TIP3    H241197   8.878   4.704   6.569
13752TIP3   OH241198   8.382   4.498   6.923
13752TIP3    H141199   8.415   4.469   7.009
13752TIP3    H241200   8.327   4.422   6.898
13753TIP3   OH241201   8.715   3.202   6.482
13753TIP3    H141202   8.747   3.110   6.479
13753TIP3    H241203   8.654   3.207   6.407
13754TIP3   OH241204   8.273   3.129   6.862
13754TIP3    H141205   8.317   3.165   6.782
13754TIP3    H241206   8.213   3.203   6.881
13755TIP3   OH241207   8.601   3.443   6.570
13755TIP3    H141208   8.571   3.353   6.555
13755TIP3    H241209   8.688   3.442   6.527
13756TIP3   OH241210   8.862   3.956   6.607
13756TIP3    H141211   8.814   3.872   6.584
13756TIP3    H241212   8.842   3.963   6.702
13757TIP3   OH241213   9.007   4.077   6.401
13757TIP3    H141214   8.980   4.167   6.429
13757TIP3    H241215   8.976   4.025   6.478
13758TIP3   OH241216   8.702   4.269   6.870
13758TIP3    H141217   8.679   4.348   6.816
13758TIP3    H241218   8.625   4.260   6.927
13759TIP3   OH241219   8.250   3.559   6.599
13759TIP3    H141220   8.303   3.638   6.621
13759TIP3    H241221   8.181   3.563   6.669
13760TIP3   OH241222   8.821   4.027   6.885
13760TIP3    H141223   8.787   4.118   6.868
13760TIP3    H241224   8.754   3.994   6.948
13761TIP3   OH241225   8.605   4.502   6.753
13761TIP3    H141226   8.521   4.519   6.800
13761TIP3    H241227   8.654   4.585   6.766
13762TIP3   OH241228   8.688   4.104   6.216
13762TIP3    H141229   8.691   4.011   6.190
13762TIP3    H241230   8.669   4.097   6.312
13763TIP3   OH241231   8.639   4.112   6.485
13763TIP3    H141232   8.719   4.079   6.530
13763TIP3    H241233   8.645   4.209   6.500
13764TIP3   OH241234   8.337   3.820   6.679
13764TIP3    H141235   8.275   3.867   6.738
13764TIP3    H241236   8.359   3.889   6.614
13765TIP3   OH241237   8.909   4.323   6.458
13765TIP3    H141238   8.819   4.349   6.485
13765TIP3    H241239   8.926   4.392   6.391
13766TIP3   OH241240   8.644   4.384   6.503
13766TIP3    H141241   8.614   4.453   6.439
13766TIP3    H241242   8.636   4.434   6.587
13767TIP3   OH241243   8.369   4.020   6.484
13767TIP3    H141244   8.444   4.082   6.497
13767TIP3    H241245   8.411   3.959   6.420
13768TIP3   OH241246   8.303   3.285   6.638
13768TIP3    H141247   8.331   3.378   6.628
13768TIP3    H241248   8.229   3.282   6.577
13769TIP3   OH241249   8.238   4.238   6.880
13769TIP3    H141250   8.171   4.267   6.943
13769TIP3    H241251   8.203   4.276   6.796
13770TIP3   OH241252   8.850   4.304   6.130
13770TIP3    H141253   8.787   4.236   6.162
13770TIP3    H241254   8.934   4.259   6.147
13771TIP3   OH241255   8.506   3.828   6.346
13771TIP3    H141256   8.549   3.786   6.423
13771TIP3    H241257   8.581   3.831   6.283
13772TIP3   OH241258   8.996   4.009   6.143
13772TIP3    H141259   9.015   4.039   6.236
13772TIP3    H241260   8.920   3.953   6.160
13773TIP3   OH241261   8.719   3.729   6.567
13773TIP3    H141262   8.655   3.693   6.634
13773TIP3    H241263   8.747   3.645   6.524
13774TIP3   OH241264   8.825   3.521   6.414
13774TIP3    H141265   8.785   3.527   6.326
13774TIP3    H241266   8.918   3.507   6.390
13775TIP3   OH241267   8.605   4.588   6.318
13775TIP3    H141268   8.703   4.587   6.311
13775TIP3    H241269   8.584   4.637   6.236
13776TIP3   OH241270   8.100   3.972   6.534
13776TIP3    H141271   8.193   3.995   6.514
13776TIP3    H241272   8.094   3.883   6.495
13777TIP3   OH241273   8.014   4.583   6.944
13777TIP3    H141274   7.948   4.523   6.902
13777TIP3    H241275   8.060   4.520   7.003
13778TIP3   OH241276   8.149   4.419   7.118
13778TIP3    H141277   8.120   4.352   7.182
13778TIP3    H241278   8.196   4.480   7.178
13779TIP3   OH241279   8.113   4.366   6.680
13779TIP3    H141280   8.028   4.329   6.649
13779TIP3    H241281   8.103   4.457   6.647
13780TIP3   OH241282   8.497   2.983   6.651
13780TIP3    H141283   8.580   2.932   6.648
13780TIP3    H241284   8.511   3.037   6.732
13781TIP3   OH241285   8.872   4.540   6.275
13781TIP3    H141286   8.962   4.550   6.234
13781TIP3    H241287   8.839   4.470   6.215
13782TIP3   OH241288   8.190   4.384   6.318
13782TIP3    H141289   8.193   4.404   6.413
13782TIP3    H241290   8.278   4.341   6.304
13783TIP3   OH241291   1.872   5.077   8.289
13783TIP3    H141292   1.900   5.025   8.213
13783TIP3    H241293   1.949   5.133   8.310
13784TIP3   OH241294   1.570   4.349   8.069
13784TIP3    H141295   1.643   4.409   8.094
13784TIP3    H241296   1.618   4.285   8.013
13785TIP3   OH241297   1.785   4.505   8.131
13785TIP3    H141298   1.786   4.599   8.153
13785TIP3    H241299   1.808   4.511   8.035
13786TIP3   OH241300   2.090   5.115   7.741
13786TIP3    H141301   2.100   5.210   7.719
13786TIP3    H241302   2.182   5.083   7.727
13787TIP3   OH241303   1.396   5.432   8.207
13787TIP3    H141304   1.353   5.422   8.120
13787TIP3    H241305   1.365   5.521   8.236
13788TIP3   OH241306   1.603   5.336   7.857
13788TIP3    H141307   1.660   5.264   7.822
13788TIP3    H241308   1.636   5.343   7.949
13789TIP3   OH241309   1.657   5.389   8.129
13789TIP3    H141310   1.567   5.387   8.167
13789TIP3    H241311   1.710   5.350   8.200
13790TIP3   OH241312   1.850   4.557   7.881
13790TIP3    H141313   1.810   4.531   7.795
13790TIP3    H241314   1.936   4.593   7.851
13791TIP3   OH241315   1.516   4.865   8.066
13791TIP3    H141316   1.485   4.957   8.084
13791TIP3    H241317   1.481   4.820   8.144
13792TIP3   OH241318   2.336   4.366   8.072
13792TIP3    H141319   2.261   4.326   8.021
13792TIP3    H241320   2.327   4.458   8.040
13793TIP3   OH241321   2.033   5.185   8.002
13793TIP3    H141322   1.999   5.103   8.040
13793TIP3    H241323   2.047   5.158   7.909
13794TIP3   OH241324   1.775   4.920   7.906
13794TIP3    H141325   1.828   4.899   7.985
13794TIP3    H241326   1.686   4.893   7.936
13795TIP3   OH241327   2.118   5.390   7.725
13795TIP3    H141328   2.157   5.461   7.671
13795TIP3    H241329   2.038   5.436   7.756
13796TIP3   OH241330   1.946   4.876   8.119
13796TIP3    H141331   1.932   4.808   8.186
13796TIP3    H241332   2.042   4.861   8.098
13797TIP3   OH241333   1.148   4.895   7.909
13797TIP3    H141334   1.172   4.805   7.881
13797TIP3    H241335   1.105   4.877   7.995
13798TIP3   OH241336   1.409   5.110   8.114
13798TIP3    H141337   1.348   5.115   8.191
13798TIP3    H241338   1.378   5.185   8.061
13799TIP3   OH241339   0.977   5.197   8.149
13799TIP3    H141340   0.990   5.267   8.082
13799TIP3    H241341   1.004   5.243   8.229
13800TIP3   OH241342   1.306   5.097   7.811
13800TIP3    H141343   1.250   5.028   7.854
13800TIP3    H241344   1.381   5.043   7.780
13801TIP3   OH241345   1.748   5.139   7.731
13801TIP3    H141346   1.785   5.070   7.788
13801TIP3    H241347   1.801   5.132   7.649
13802TIP3   OH241348   0.921   4.649   7.975
13802TIP3    H141349   0.955   4.714   8.041
13802TIP3    H241350   1.004   4.628   7.927
13803TIP3   OH241351   1.452   4.804   7.812
13803TIP3    H141352   1.466   4.825   7.907
13803TIP3    H241353   1.461   4.706   7.816
13804TIP3   OH241354   1.206   4.370   8.079
13804TIP3    H141355   1.211   4.359   7.982
13804TIP3    H241356   1.300   4.373   8.105
13805TIP3   OH241357   2.082   4.645   7.766
13805TIP3    H141358   2.065   4.600   7.681
13805TIP3    H241359   2.047   4.735   7.743
13806TIP3   OH241360   1.077   5.394   7.990
13806TIP3    H141361   1.172   5.378   7.977
13806TIP3    H241362   1.058   5.451   7.913
13807TIP3   OH241363   2.209   4.844   8.082
13807TIP3    H141364   2.280   4.903   8.048
13807TIP3    H241365   2.257   4.796   8.153
13808TIP3   OH241366   2.377   4.690   8.232
13808TIP3    H141367   2.350   4.670   8.323
13808TIP3    H241368   2.436   4.764   8.246
13809TIP3   OH241369   2.287   4.607   7.940
13809TIP3    H141370   2.214   4.609   7.874
13809TIP3    H241371   2.259   4.680   7.999
13810TIP3   OH241372   2.144   4.281   7.900
13810TIP3    H141373   2.111   4.311   7.814
13810TIP3    H241374   2.126   4.184   7.893
13811TIP3   OH241375   2.097   4.013   7.888
13811TIP3    H141376   2.174   3.983   7.941
13811TIP3    H241377   2.023   3.963   7.925
13812TIP3   OH241378   2.343   3.962   8.011
13812TIP3    H141379   2.385   3.887   7.966
13812TIP3    H241380   2.416   4.027   8.012
13813TIP3   OH241381   1.945   5.436   8.299
13813TIP3    H141382   1.972   5.452   8.206
13813TIP3    H241383   1.969   5.519   8.342
13814TIP3   OH241384   1.341   5.336   7.940
13814TIP3    H141385   1.432   5.353   7.906
13814TIP3    H241386   1.318   5.259   7.883
13815TIP3   OH241387   2.057   5.457   8.044
13815TIP3    H141388   2.052   5.359   8.032
13815TIP3    H241389   2.012   5.488   7.964
13816TIP3   OH241390   3.553   4.969   7.996
13816TIP3    H141391   3.522   5.061   7.980
13816TIP3    H241392   3.475   4.920   7.966
13817TIP3   OH241393   3.525   4.980   8.368
13817TIP3    H141394   3.579   4.962   8.447
13817TIP3    H241395   3.493   4.892   8.344
13818TIP3   OH241396   3.794   5.274   8.066
13818TIP3    H141397   3.781   5.204   8.131
13818TIP3    H241398   3.828   5.347   8.120
13819TIP3   OH241399   2.823   5.293   8.460
13819TIP3    H141400   2.814   5.195   8.464
13819TIP3    H241401   2.921   5.299   8.455
13820TIP3   OH241402   2.556   4.479   8.203
13820TIP3    H141403   2.493   4.553   8.203
13820TIP3    H241404   2.494   4.407   8.187
13821TIP3   OH241405   2.709   4.753   8.447
13821TIP3    H141406   2.623   4.713   8.468
13821TIP3    H241407   2.702   4.775   8.354
13822TIP3   OH241408   3.445   5.735   8.082
13822TIP3    H141409   3.486   5.665   8.027
13822TIP3    H241410   3.440   5.691   8.167
13823TIP3   OH241411   3.348   5.200   8.408
13823TIP3    H141412   3.390   5.118   8.376
13823TIP3    H241413   3.427   5.242   8.448
13824TIP3   OH241414   4.360   4.530   8.408
13824TIP3    H141415   4.387   4.614   8.451
13824TIP3    H241416   4.389   4.545   8.317
13825TIP3   OH241417   3.746   4.679   8.462
13825TIP3    H141418   3.795   4.597   8.485
13825TIP3    H241419   3.727   4.664   8.368
13826TIP3   OH241420   3.140   4.343   8.385
13826TIP3    H141421   3.102   4.427   8.354
13826TIP3    H241422   3.076   4.281   8.345
13827TIP3   OH241423   3.795   4.449   8.045
13827TIP3    H141424   3.865   4.435   8.113
13827TIP3    H241425   3.849   4.483   7.972
13828TIP3   OH241426   3.173   4.758   8.329
13828TIP3    H141427   3.267   4.732   8.336
13828TIP3    H241428   3.132   4.676   8.293
13829TIP3   OH241429   4.434   4.730   8.594
13829TIP3    H141430   4.348   4.773   8.574
13829TIP3    H241431   4.421   4.705   8.686
13830TIP3   OH241432   3.437   5.190   7.869
13830TIP3    H141433   3.399   5.176   7.781
13830TIP3    H241434   3.392   5.273   7.896
13831TIP3   OH241435   3.999   4.456   8.224
13831TIP3    H141436   4.000   4.401   8.303
13831TIP3    H241437   4.054   4.531   8.250
13832TIP3   OH241438   2.419   5.003   7.989
13832TIP3    H141439   2.385   5.028   7.900
13832TIP3    H241440   2.454   5.088   8.022
13833TIP3   OH241441   3.865   5.519   8.227
13833TIP3    H141442   3.775   5.507   8.265
13833TIP3    H241443   3.856   5.605   8.182
13834TIP3   OH241444   4.138   4.458   8.573
13834TIP3    H141445   4.052   4.480   8.534
13834TIP3    H241446   4.203   4.488   8.508
13835TIP3   OH241447   3.560   5.563   7.899
13835TIP3    H141448   3.610   5.479   7.882
13835TIP3    H241449   3.624   5.627   7.860
13836TIP3   OH241450   3.705   5.348   7.815
13836TIP3    H141451   3.676   5.266   7.772
13836TIP3    H241452   3.742   5.313   7.899
13837TIP3   OH241453   4.089   5.429   8.571
13837TIP3    H141454   4.077   5.349   8.515
13837TIP3    H241455   4.070   5.501   8.508
13838TIP3   OH241456   3.380   4.822   7.831
13838TIP3    H141457   3.301   4.876   7.809
13838TIP3    H241458   3.427   4.819   7.746
13839TIP3   OH241459   3.339   4.609   7.545
13839TIP3    H141460   3.406   4.661   7.592
13839TIP3    H241461   3.397   4.546   7.497
13840TIP3   OH241462   4.283   5.064   8.420
13840TIP3    H141463   4.200   5.117   8.427
13840TIP3    H241464   4.313   5.091   8.330
13841TIP3   OH241465   3.730   4.905   7.799
13841TIP3    H141466   3.675   4.929   7.878
13841TIP3    H241467   3.814   4.881   7.843
13842TIP3   OH241468   3.956   4.974   8.682
13842TIP3    H141469   3.949   5.069   8.700
13842TIP3    H241470   3.873   4.960   8.632
13843TIP3   OH241471   2.963   4.908   8.218
13843TIP3    H141472   2.921   4.844   8.155
13843TIP3    H241473   3.036   4.855   8.255
13844TIP3   OH241474   3.092   5.317   8.367
13844TIP3    H141475   3.077   5.273   8.282
13844TIP3    H241476   3.179   5.278   8.393
13845TIP3   OH241477   3.097   4.887   8.561
13845TIP3    H141478   3.116   4.835   8.480
13845TIP3    H241479   3.186   4.899   8.596
13846TIP3   OH241480   3.623   5.508   8.345
13846TIP3    H141481   3.605   5.591   8.391
13846TIP3    H241482   3.600   5.439   8.410
13847TIP3   OH241483   3.565   4.765   7.628
13847TIP3    H141484   3.626   4.825   7.678
13847TIP3    H241485   3.593   4.786   7.535
13848TIP3   OH241486   3.312   5.442   7.904
13848TIP3    H141487   3.396   5.491   7.912
13848TIP3    H241488   3.255   5.507   7.860
13849TIP3   OH241489   4.085   4.003   7.678
13849TIP3    H141490   4.003   4.025   7.727
13849TIP3    H241491   4.100   4.085   7.626
13850TIP3   OH241492   2.822   4.744   8.028
13850TIP3    H141493   2.757   4.786   7.968
13850TIP3    H241494   2.791   4.652   8.029
13851TIP3   OH241495   3.885   5.370   7.228
13851TIP3    H141496   3.894   5.466   7.211
13851TIP3    H241497   3.977   5.339   7.214
13852TIP3   OH241498   4.325   5.778   8.620
13852TIP3    H141499   4.327   5.681   8.632
13852TIP3    H241500   4.237   5.797   8.662
13853TIP3   OH241501   3.193   5.685   7.709
13853TIP3    H141502   3.150   5.667   7.623
13853TIP3    H241503   3.162   5.775   7.730
13854TIP3   OH241504   2.625   5.546   8.087
13854TIP3    H141505   2.680   5.536   8.168
13854TIP3    H241506   2.578   5.461   8.087
13855TIP3   OH241507   3.393   5.589   7.346
13855TIP3    H141508   3.452   5.519   7.309
13855TIP3    H241509   3.430   5.599   7.436
13856TIP3   OH241510   3.445   5.639   7.616
13856TIP3    H141511   3.358   5.646   7.660
13856TIP3    H241512   3.499   5.600   7.686
13857TIP3   OH241513   3.645   4.809   7.374
13857TIP3    H141514   3.609   4.785   7.287
13857TIP3    H241515   3.730   4.850   7.349
13858TIP3   OH241516   3.355   4.184   7.676
13858TIP3    H141517   3.319   4.179   7.767
13858TIP3    H241518   3.317   4.101   7.640
13859TIP3   OH241519   3.029   4.547   8.233
13859TIP3    H141520   2.938   4.519   8.257
13859TIP3    H241521   3.038   4.505   8.145
13860TIP3   OH241522   3.520   4.624   7.963
13860TIP3    H141523   3.469   4.696   7.920
13860TIP3    H241524   3.576   4.592   7.890
13861TIP3   OH241525   3.672   4.648   8.198
13861TIP3    H141526   3.612   4.677   8.127
13861TIP3    H241527   3.708   4.568   8.155
13862TIP3   OH241528   3.012   4.158   7.639
13862TIP3    H141529   3.003   4.157   7.736
13862TIP3    H241530   2.934   4.212   7.613
13863TIP3   OH241531   2.539   4.187   8.033
13863TIP3    H141532   2.580   4.223   7.952
13863TIP3    H241533   2.468   4.253   8.045
13864TIP3   OH241534   3.697   4.923   8.572
13864TIP3    H141535   3.716   4.830   8.546
13864TIP3    H241536   3.668   4.914   8.665
13865TIP3   OH241537   3.386   4.371   8.271
13865TIP3    H141538   3.298   4.366   8.314
13865TIP3    H241539   3.444   4.381   8.349
13866TIP3   OH241540   2.800   4.400   8.284
13866TIP3    H141541   2.711   4.433   8.257
13866TIP3    H241542   2.821   4.336   8.214
13867TIP3   OH241543   3.054   4.414   7.995
13867TIP3    H141544   3.149   4.426   7.974
13867TIP3    H241545   3.009   4.432   7.909
13868TIP3   OH241546   3.849   4.431   8.515
13868TIP3    H141547   3.830   4.426   8.610
13868TIP3    H241548   3.777   4.375   8.478
13869TIP3   OH241549   2.902   4.447   7.770
13869TIP3    H141550   2.833   4.400   7.719
13869TIP3    H241551   2.955   4.485   7.698
13870TIP3   OH241552   4.042   6.113   8.702
13870TIP3    H141553   4.033   6.138   8.608
13870TIP3    H241554   4.066   6.198   8.743
13871TIP3   OH241555   3.442   4.689   8.378
13871TIP3    H141556   3.514   4.656   8.322
13871TIP3    H241557   3.473   4.665   8.467
13872TIP3   OH241558   2.984   4.179   8.217
13872TIP3    H141559   2.948   4.110   8.274
13872TIP3    H241560   3.043   4.131   8.158
13873TIP3   OH241561   3.148   4.975   7.776
13873TIP3    H141562   3.076   4.909   7.766
13873TIP3    H241563   3.130   5.009   7.867
13874TIP3   OH241564   4.052   5.212   8.406
13874TIP3    H141565   4.076   5.263   8.326
13874TIP3    H241566   3.967   5.171   8.380
13875TIP3   OH241567   3.609   4.283   7.652
13875TIP3    H141568   3.512   4.266   7.655
13875TIP3    H241569   3.616   4.378   7.670
13876TIP3   OH241570   3.677   4.537   7.748
13876TIP3    H141571   3.773   4.542   7.763
13876TIP3    H241572   3.659   4.616   7.694
13877TIP3   OH241573   2.846   5.022   8.444
13877TIP3    H141574   2.895   4.996   8.363
13877TIP3    H241575   2.834   4.934   8.485
13878TIP3   OH241576   3.297   5.124   7.602
13878TIP3    H141577   3.248   5.209   7.607
13878TIP3    H241578   3.243   5.069   7.663
13879TIP3   OH241579   3.713   5.531   8.711
13879TIP3    H141580   3.637   5.578   8.677
13879TIP3    H241581   3.754   5.596   8.772
13880TIP3   OH241582   4.117   4.629   7.583
13880TIP3    H141583   4.055   4.585   7.520
13880TIP3    H241584   4.115   4.718   7.542
13881TIP3   OH241585   4.331   5.502   8.660
13881TIP3    H141586   4.236   5.482   8.644
13881TIP3    H241587   4.369   5.460   8.580
13882TIP3   OH241588   3.820   5.445   7.491
13882TIP3    H141589   3.795   5.373   7.551
13882TIP3    H241590   3.834   5.399   7.406
13883TIP3   OH241591   3.818   5.082   8.313
13883TIP3    H141592   3.729   5.053   8.338
13883TIP3    H241593   3.853   5.000   8.273
13884TIP3   OH241594   2.946   5.303   8.081
13884TIP3    H141595   2.945   5.384   8.026
13884TIP3    H241596   2.852   5.283   8.088
13885TIP3   OH241597   2.513   4.604   7.785
13885TIP3    H141598   2.557   4.688   7.808
13885TIP3    H241599   2.435   4.606   7.845
13886TIP3   OH241600   3.076   5.066   8.018
13886TIP3    H141601   3.046   5.155   8.043
13886TIP3    H241602   3.047   5.014   8.095
13887TIP3   OH241603   3.205   5.651   8.536
13887TIP3    H141604   3.259   5.721   8.494
13887TIP3    H241605   3.271   5.595   8.579
13888TIP3   OH241606   2.860   5.545   7.931
13888TIP3    H141607   2.775   5.554   7.979
13888TIP3    H241608   2.894   5.637   7.936
13889TIP3   OH241609   3.605   5.281   8.512
13889TIP3    H141610   3.635   5.276   8.604
13889TIP3    H241611   3.679   5.237   8.469
13890TIP3   OH241612   3.579   5.175   7.394
13890TIP3    H141613   3.633   5.150   7.472
13890TIP3    H241614   3.492   5.144   7.422
13891TIP3   OH241615   3.843   5.808   8.554
13891TIP3    H141616   3.757   5.766   8.533
13891TIP3    H241617   3.842   5.880   8.488
13892TIP3   OH241618   3.916   5.645   7.210
13892TIP3    H141619   3.954   5.718   7.158
13892TIP3    H241620   3.836   5.690   7.244
13893TIP3   OH241621   3.739   5.109   7.610
13893TIP3    H141622   3.728   5.041   7.678
13893TIP3    H241623   3.836   5.103   7.596
13894TIP3   OH241624   2.939   5.154   7.393
13894TIP3    H141625   2.955   5.062   7.365
13894TIP3    H241626   2.919   5.141   7.488
13895TIP3   OH241627   2.884   5.158   7.668
13895TIP3    H141628   2.962   5.129   7.717
13895TIP3    H241629   2.890   5.256   7.674
13896TIP3   OH241630   2.619   4.849   7.868
13896TIP3    H141631   2.553   4.897   7.922
13896TIP3    H241632   2.637   4.916   7.799
13897TIP3   OH241633   3.655   4.235   7.927
13897TIP3    H141634   3.641   4.257   7.833
13897TIP3    H241635   3.694   4.319   7.961
13898TIP3   OH241636   3.152   5.352   7.612
13898TIP3    H141637   3.066   5.380   7.648
13898TIP3    H241638   3.170   5.425   7.550
13899TIP3   OH241639   3.337   4.424   8.010
13899TIP3    H141640   3.401   4.495   7.990
13899TIP3    H241641   3.353   4.414   8.106
13900TIP3   OH241642   3.484   4.145   8.122
13900TIP3    H141643   3.472   4.227   8.176
13900TIP3    H241644   3.550   4.178   8.056
13901TIP3   OH241645   2.898   5.431   7.681
13901TIP3    H141646   2.869   5.501   7.619
13901TIP3    H241647   2.882   5.474   7.768
13902TIP3   OH241648   2.997   4.144   7.913
13902TIP3    H141649   2.993   4.231   7.957
13902TIP3    H241650   3.094   4.128   7.918
13903TIP3   OH241651   3.900   4.831   8.203
13903TIP3    H141652   3.825   4.771   8.214
13903TIP3    H241653   3.972   4.785   8.252
13904TIP3   OH241654   2.617   5.057   7.671
13904TIP3    H141655   2.691   5.120   7.681
13904TIP3    H241656   2.658   4.997   7.605
13905TIP3   OH241657   2.558   4.333   7.804
13905TIP3    H141658   2.560   4.431   7.804
13905TIP3    H241659   2.479   4.315   7.753
13906TIP3   OH241660   3.870   5.790   8.151
13906TIP3    H141661   3.828   5.837   8.075
13906TIP3    H241662   3.965   5.808   8.130
13907TIP3   OH241663   2.485   5.276   8.056
13907TIP3    H141664   2.416   5.308   8.117
13907TIP3    H241665   2.455   5.317   7.972
13908TIP3   OH241666   3.105   5.355   7.303
13908TIP3    H141667   3.051   5.282   7.340
13908TIP3    H241668   3.181   5.306   7.268
13909TIP3   OH241669   3.539   5.394   7.216
13909TIP3    H141670   3.582   5.330   7.276
13909TIP3    H241671   3.596   5.391   7.137
13910TIP3   OH241672   2.750   4.869   7.529
13910TIP3    H141673   2.809   4.838   7.600
13910TIP3    H241674   2.816   4.875   7.455
13911TIP3   OH241675   3.262   5.071   7.334
13911TIP3    H141676   3.267   5.083   7.431
13911TIP3    H241677   3.265   4.973   7.327
13912TIP3   OH241678   3.860   5.293   8.673
13912TIP3    H141679   3.951   5.324   8.664
13912TIP3    H241680   3.814   5.377   8.693
13913TIP3   OH241681   2.953   4.778   7.743
13913TIP3    H141682   2.934   4.735   7.828
13913TIP3    H241683   2.994   4.705   7.692
13914TIP3   OH241684   3.061   4.574   7.587
13914TIP3    H141685   3.037   4.579   7.492
13914TIP3    H241686   3.159   4.575   7.581
13915TIP3   OH241687   3.878   4.900   7.254
13915TIP3    H141688   3.860   4.856   7.169
13915TIP3    H241689   3.845   4.990   7.232
13916TIP3   OH241690   2.869   5.637   7.496
13916TIP3    H141691   2.964   5.625   7.477
13916TIP3    H241692   2.842   5.685   7.415
13917TIP3   OH241693   2.348   5.014   7.711
13917TIP3    H141694   2.442   5.036   7.693
13917TIP3    H241695   2.341   4.925   7.669
13918TIP3   OH241696   2.261   5.629   8.117
13918TIP3    H141697   2.195   5.565   8.082
13918TIP3    H241698   2.304   5.574   8.186
13919TIP3   OH241699   2.395   5.487   8.307
13919TIP3    H141700   2.391   5.413   8.369
13919TIP3    H241701   2.447   5.552   8.358
13920TIP3   OH241702   4.124   5.879   8.110
13920TIP3    H141703   4.151   5.911   8.198
13920TIP3    H241704   4.191   5.919   8.052
13921TIP3   OH241705   4.150   5.898   8.391
13921TIP3    H141706   4.109   5.809   8.386
13921TIP3    H241707   4.227   5.876   8.446
13922TIP3   OH241708   4.016   5.088   7.584
13922TIP3    H141709   4.083   5.152   7.553
13922TIP3    H241710   4.062   5.050   7.663
13923TIP3   OH241711   4.145   4.955   7.789
13923TIP3    H141712   4.078   4.913   7.847
13923TIP3    H241713   4.210   4.991   7.852
13924TIP3   OH241714   4.202   5.351   8.219
13924TIP3    H141715   4.254   5.281   8.174
13924TIP3    H241716   4.198   5.422   8.153
13925TIP3   OH241717   4.029   5.649   8.411
13925TIP3    H141718   3.956   5.687   8.463
13925TIP3    H241719   3.982   5.601   8.340
13926TIP3   OH241720   4.082   4.864   7.434
13926TIP3    H141721   4.010   4.864   7.367
13926TIP3    H241722   4.053   4.939   7.489
13927TIP3   OH241723   3.951   4.537   7.389
13927TIP3    H141724   3.910   4.570   7.308
13927TIP3    H241725   3.928   4.442   7.383
13928TIP3   OH241726   3.957   4.814   7.934
13928TIP3    H141727   3.965   4.717   7.926
13928TIP3    H241728   3.942   4.826   8.030
13929TIP3   OH241729   4.218   5.227   8.775
13929TIP3    H141730   4.303   5.179   8.779
13929TIP3    H241731   4.244   5.315   8.746
13930TIP3   OH241732   4.417   5.043   8.799
13930TIP3    H141733   4.352   4.989   8.847
13930TIP3    H241734   4.490   4.981   8.790
13931TIP3   OH241735   3.895   4.272   7.375
13931TIP3    H141736   3.968   4.237   7.429
13931TIP3    H241737   3.822   4.210   7.393
13932TIP3   OH241738   3.955   4.530   7.826
13932TIP3    H141739   3.996   4.441   7.841
13932TIP3    H241740   4.013   4.562   7.755
13933TIP3   OH241741   4.112   4.704   8.328
13933TIP3    H141742   4.199   4.726   8.287
13933TIP3    H241743   4.127   4.740   8.417
13934TIP3   OH241744   4.185   4.849   8.563
13934TIP3    H141745   4.108   4.885   8.613
13934TIP3    H241746   4.216   4.929   8.516
13935TIP3   OH241747   4.063   4.280   7.866
13935TIP3    H141748   4.111   4.263   7.950
13935TIP3    H241749   4.002   4.203   7.865
13936TIP3   OH241750   4.142   4.209   7.501
13936TIP3    H141751   4.180   4.140   7.444
13936TIP3    H241752   4.209   4.280   7.496
13937TIP3   OH241753   2.549   4.027   8.247
13937TIP3    H141754   2.478   4.069   8.297
13937TIP3    H241755   2.562   4.094   8.176
13938TIP3   OH241756   3.706   5.748   7.766
13938TIP3    H141757   3.758   5.735   7.683
13938TIP3    H241758   3.762   5.810   7.814
13939TIP3   OH241759   2.977   5.595   8.695
13939TIP3    H141760   2.961   5.675   8.642
13939TIP3    H241761   3.068   5.575   8.667
13940TIP3   OH241762   3.596   5.971   8.666
13940TIP3    H141763   3.687   5.942   8.653
13940TIP3    H241764   3.604   6.016   8.754
13941TIP3   OH241765   2.893   5.828   8.577
13941TIP3    H141766   2.806   5.856   8.610
13941TIP3    H241767   2.886   5.852   8.483
13942TIP3   OH241768   3.330   5.848   8.378
13942TIP3    H141769   3.260   5.863   8.313
13942TIP3    H241770   3.338   5.936   8.419
13943TIP3   OH241771   3.595   5.772   8.428
13943TIP3    H141772   3.502   5.797   8.411
13943TIP3    H241773   3.642   5.849   8.392
13944TIP3   OH241774   3.798   5.973   8.344
13944TIP3    H141775   3.785   6.058   8.296
13944TIP3    H241776   3.826   5.913   8.272
13945TIP3   OH241777   2.592   5.647   8.440
13945TIP3    H141778   2.616   5.608   8.526
13945TIP3    H241779   2.660   5.603   8.385
13946TIP3   OH241780   2.778   5.507   8.304
13946TIP3    H141781   2.790   5.423   8.354
13946TIP3    H241782   2.870   5.542   8.308
13947TIP3   OH241783   3.039   5.594   8.327
13947TIP3    H141784   3.067   5.500   8.320
13947TIP3    H241785   3.089   5.618   8.408
13948TIP3   OH241786   3.635   4.276   8.418
13948TIP3    H141787   3.567   4.215   8.451
13948TIP3    H241788   3.696   4.217   8.371
13949TIP3   OH241789   4.131   4.142   8.323
13949TIP3    H141790   4.167   4.190   8.245
13949TIP3    H241791   4.035   4.153   8.311
13950TIP3   OH241792   4.227   4.232   8.083
13950TIP3    H141793   4.301   4.181   8.045
13950TIP3    H241794   4.261   4.324   8.069
13951TIP3   OH241795   2.625   3.841   8.058
13951TIP3    H141796   2.672   3.893   7.990
13951TIP3    H241797   2.613   3.907   8.129
13952TIP3   OH241798   3.307   4.018   8.298
13952TIP3    H141799   3.367   4.046   8.226
13952TIP3    H241800   3.335   4.081   8.368
13953TIP3   OH241801   3.849   4.136   8.289
13953TIP3    H141802   3.852   4.099   8.200
13953TIP3    H241803   3.825   4.057   8.343
13954TIP3   OH241804   3.880   4.067   7.858
13954TIP3    H141805   3.793   4.109   7.871
13954TIP3    H241806   3.865   3.981   7.903
13955TIP3   OH241807   2.361   5.407   7.856
13955TIP3    H141808   2.276   5.373   7.824
13955TIP3    H241809   2.352   5.500   7.829
13956TIP3   OH241810   2.766   3.987   7.845
13956TIP3    H141811   2.813   3.925   7.785
13956TIP3    H241812   2.840   4.042   7.876
13957TIP3   OH241813   3.271   4.168   7.941
13957TIP3    H141814   3.337   4.124   7.997
13957TIP3    H241815   3.294   4.262   7.960
13958TIP3   OH241816   3.135   5.590   7.441
13958TIP3    H141817   3.224   5.612   7.405
13958TIP3    H241818   3.113   5.515   7.381
13959TIP3   OH241819   3.853   5.711   7.535
13959TIP3    H141820   3.846   5.614   7.524
13959TIP3    H241821   3.809   5.742   7.453
13960TIP3   OH241822   2.440   5.428   7.495
13960TIP3    H141823   2.448   5.444   7.590
13960TIP3    H241824   2.526   5.384   7.475
13961TIP3   OH241825   4.072   5.841   8.714
13961TIP3    H141826   3.995   5.825   8.657
13961TIP3    H241827   4.064   5.938   8.728
13962TIP3   OH241828   5.347   5.228   7.484
13962TIP3    H141829   5.316   5.319   7.463
13962TIP3    H241830   5.272   5.177   7.451
13963TIP3   OH241831   5.347   5.229   7.870
13963TIP3    H141832   5.381   5.204   7.958
13963TIP3    H241833   5.305   5.146   7.842
13964TIP3   OH241834   4.643   5.120   8.231
13964TIP3    H141835   4.672   5.052   8.294
13964TIP3    H241836   4.724   5.174   8.225
13965TIP3   OH241837   5.592   5.530   7.552
13965TIP3    H141838   5.574   5.462   7.618
13965TIP3    H241839   5.621   5.605   7.607
13966TIP3   OH241840   4.618   5.533   7.956
13966TIP3    H141841   4.610   5.435   7.957
13966TIP3    H241842   4.715   5.542   7.949
13967TIP3   OH241843   4.323   4.733   7.739
13967TIP3    H141844   4.275   4.816   7.757
13967TIP3    H241845   4.253   4.681   7.696
13968TIP3   OH241846   4.381   5.022   7.918
13968TIP3    H141847   4.430   4.944   7.952
13968TIP3    H241848   4.440   5.056   7.850
13969TIP3   OH241849   5.243   5.992   7.569
13969TIP3    H141850   5.284   5.921   7.515
13969TIP3    H241851   5.231   5.947   7.654
13970TIP3   OH241852   5.144   5.454   7.917
13970TIP3    H141853   5.183   5.378   7.873
13970TIP3    H241854   5.227   5.500   7.943
13971TIP3   OH241855   6.159   4.771   7.916
13971TIP3    H141856   6.187   4.855   7.959
13971TIP3    H241857   6.180   4.789   7.823
13972TIP3   OH241858   5.557   4.953   7.946
13972TIP3    H141859   5.601   4.868   7.966
13972TIP3    H241860   5.525   4.936   7.856
13973TIP3   OH241861   4.899   4.614   7.911
13973TIP3    H141862   4.878   4.686   7.848
13973TIP3    H241863   4.850   4.540   7.868
13974TIP3   OH241864   5.591   4.707   7.533
13974TIP3    H141865   5.662   4.691   7.599
13974TIP3    H241866   5.644   4.741   7.459
13975TIP3   OH241867   4.528   4.815   8.020
13975TIP3    H141868   4.611   4.797   8.068
13975TIP3    H241869   4.542   4.760   7.940
13976TIP3   OH241870   4.968   5.013   7.817
13976TIP3    H141871   5.062   4.989   7.828
13976TIP3    H241872   4.930   4.929   7.783
13977TIP3   OH241873   6.228   4.980   8.088
13977TIP3    H141874   6.144   5.028   8.072
13977TIP3    H241875   6.259   5.022   8.171
13978TIP3   OH241876   4.894   4.602   8.342
13978TIP3    H141877   4.836   4.634   8.270
13978TIP3    H241878   4.842   4.629   8.420
13979TIP3   OH241879   5.235   5.448   7.354
13979TIP3    H141880   5.194   5.433   7.268
13979TIP3    H241881   5.190   5.531   7.382
13980TIP3   OH241882   4.998   5.374   8.140
13980TIP3    H141883   4.937   5.442   8.176
13980TIP3    H241884   5.041   5.422   8.066
13981TIP3   OH241885   5.797   4.711   7.710
13981TIP3    H141886   5.783   4.664   7.794
13981TIP3    H241887   5.848   4.789   7.738
13982TIP3   OH241888   4.764   4.712   8.128
13982TIP3    H141889   4.825   4.785   8.152
13982TIP3    H241890   4.813   4.673   8.053
13983TIP3   OH241891   4.825   5.570   8.240
13983TIP3    H141892   4.801   5.657   8.203
13983TIP3    H241893   4.746   5.553   8.294
13984TIP3   OH241894   4.217   5.258   7.475
13984TIP3    H141895   4.178   5.285   7.390
13984TIP3    H241896   4.250   5.343   7.510
13985TIP3   OH241897   5.660   5.776   7.719
13985TIP3    H141898   5.570   5.765   7.758
13985TIP3    H241899   5.649   5.861   7.671
13986TIP3   OH241900   5.951   4.669   8.079
13986TIP3    H141901   5.864   4.697   8.046
13986TIP3    H241902   6.012   4.703   8.011
13987TIP3   OH241903   5.246   4.312   8.065
13987TIP3    H141904   5.228   4.217   8.082
13987TIP3    H241905   5.169   4.352   8.111
13988TIP3   OH241906   5.358   5.818   7.387
13988TIP3    H141907   5.408   5.735   7.369
13988TIP3    H241908   5.421   5.883   7.348
13989TIP3   OH241909   5.504   5.603   7.301
13989TIP3    H141910   5.465   5.524   7.262
13989TIP3    H241911   5.541   5.568   7.385
13990TIP3   OH241912   5.872   5.687   8.051
13990TIP3    H141913   5.859   5.607   7.995
13990TIP3    H241914   5.854   5.760   7.989
13991TIP3   OH241915   5.177   5.079   7.319
13991TIP3    H141916   5.097   5.132   7.299
13991TIP3    H241917   5.222   5.077   7.233
13992TIP3   OH241918   5.135   4.866   7.031
13992TIP3    H141919   5.202   4.918   7.079
13992TIP3    H241920   5.193   4.802   6.984
13993TIP3   OH241921   6.085   5.332   7.908
13993TIP3    H141922   5.998   5.378   7.915
13993TIP3    H241923   6.106   5.350   7.814
13994TIP3   OH241924   5.526   5.162   7.287
13994TIP3    H141925   5.471   5.186   7.366
13994TIP3    H241926   5.610   5.138   7.332
13995TIP3   OH241927   5.755   5.187   8.197
13995TIP3    H141928   5.764   5.265   8.255
13995TIP3    H241929   5.669   5.206   8.155
13996TIP3   OH241930   4.757   5.158   7.707
13996TIP3    H141931   4.715   5.100   7.640
13996TIP3    H241932   4.833   5.104   7.737
13997TIP3   OH241933   4.886   5.571   7.854
13997TIP3    H141934   4.866   5.536   7.766
13997TIP3    H241935   4.975   5.534   7.871
13998TIP3   OH241936   4.892   5.130   8.061
13998TIP3    H141937   4.925   5.106   7.972
13998TIP3    H241938   4.937   5.216   8.078
13999TIP3   OH241939   5.419   5.769   7.839
13999TIP3    H141940   5.406   5.847   7.896
13999TIP3    H241941   5.403   5.694   7.901
14000TIP3   OH241942   5.031   5.685   8.385
14000TIP3    H141943   4.967   5.746   8.428
14000TIP3    H241944   4.969   5.631   8.332
14001TIP3   OH241945   5.364   5.020   7.115
14001TIP3    H141946   5.422   5.081   7.165
14001TIP3    H241947   5.390   5.041   7.022
14002TIP3   OH241948   4.789   5.241   8.479
14002TIP3    H141949   4.785   5.328   8.523
14002TIP3    H241950   4.695   5.215   8.488
14003TIP3   OH241951   5.110   5.697   7.393
14003TIP3    H141952   5.192   5.749   7.400
14003TIP3    H241953   5.050   5.758   7.347
14004TIP3   OH241954   4.821   5.836   8.468
14004TIP3    H141955   4.785   5.851   8.379
14004TIP3    H241956   4.741   5.834   8.524
14005TIP3   OH241957   5.881   4.259   7.165
14005TIP3    H141958   5.799   4.281   7.214
14005TIP3    H241959   5.895   4.342   7.114
14006TIP3   OH241960   4.623   5.002   7.511
14006TIP3    H141961   4.555   5.046   7.456
14006TIP3    H241962   4.586   4.914   7.521
14007TIP3   OH241963   5.681   5.626   6.713
14007TIP3    H141964   5.689   5.723   6.698
14007TIP3    H241965   5.774   5.597   6.701
14008TIP3   OH241966   4.402   5.390   8.420
14008TIP3    H141967   4.333   5.369   8.354
14008TIP3    H241968   4.441   5.302   8.440
14009TIP3   OH241969   4.259   5.580   8.048
14009TIP3    H141970   4.355   5.572   8.040
14009TIP3    H241971   4.251   5.657   8.106
14010TIP3   OH241972   5.222   5.814   8.238
14010TIP3    H141973   5.222   5.906   8.273
14010TIP3    H241974   5.154   5.772   8.294
14011TIP3   OH241975   4.992   5.943   7.194
14011TIP3    H141976   4.946   5.925   7.111
14011TIP3    H241977   4.958   6.030   7.220
14012TIP3   OH241978   4.428   5.793   7.580
14012TIP3    H141979   4.475   5.784   7.665
14012TIP3    H241980   4.377   5.710   7.578
14013TIP3   OH241981   5.191   5.847   6.832
14013TIP3    H141982   5.249   5.777   6.796
14013TIP3    H241983   5.225   5.857   6.923
14014TIP3   OH241984   5.243   5.895   7.101
14014TIP3    H141985   5.154   5.904   7.143
14014TIP3    H241986   5.294   5.857   7.175
14015TIP3   OH241987   6.037   5.166   8.349
14015TIP3    H141988   5.944   5.193   8.346
14015TIP3    H241989   6.031   5.068   8.346
14016TIP3   OH241990   4.604   5.572   8.404
14016TIP3    H141991   4.650   5.550   8.488
14016TIP3    H241992   4.529   5.509   8.408
14017TIP3   OH241993   5.008   4.391   8.191
14017TIP3    H141994   4.919   4.361   8.162
14017TIP3    H241995   4.982   4.472   8.239
14018TIP3   OH241996   5.540   4.509   8.388
14018TIP3    H141997   5.602   4.480   8.457
14018TIP3    H241998   5.453   4.491   8.429
14019TIP3   OH241999   5.776   4.934   8.305
14019TIP3    H142000   5.724   4.939   8.388
14019TIP3    H242001   5.760   5.021   8.264
14020TIP3   OH242002   5.442   5.061   6.860
14020TIP3    H142003   5.406   5.040   6.772
14020TIP3    H242004   5.524   5.108   6.835
14021TIP3   OH242005   5.154   4.439   7.164
14021TIP3    H142006   5.118   4.435   7.254
14021TIP3    H242007   5.113   4.358   7.127
14022TIP3   OH242008   4.940   4.908   8.209
14022TIP3    H142009   4.890   4.930   8.291
14022TIP3    H242010   4.925   4.990   8.156
14023TIP3   OH242011   4.824   4.794   7.724
14023TIP3    H142012   4.731   4.768   7.742
14023TIP3    H242013   4.836   4.754   7.635
14024TIP3   OH242014   5.315   4.879   7.454
14024TIP3    H142015   5.264   4.951   7.410
14024TIP3    H242016   5.369   4.846   7.380
14025TIP3   OH242017   5.474   5.156   8.530
14025TIP3    H142018   5.466   5.087   8.600
14025TIP3    H242019   5.559   5.196   8.549
14026TIP3   OH242020   5.470   4.906   7.690
14026TIP3    H142021   5.408   4.934   7.619
14026TIP3    H242022   5.506   4.826   7.645
14027TIP3   OH242023   4.760   4.938   8.418
14027TIP3    H142024   4.792   5.003   8.483
14027TIP3    H242025   4.748   4.858   8.473
14028TIP3   OH242026   4.811   4.416   7.128
14028TIP3    H142027   4.799   4.414   7.225
14028TIP3    H242028   4.732   4.467   7.102
14029TIP3   OH242029   4.351   4.456   8.002
14029TIP3    H142030   4.427   4.489   8.053
14029TIP3    H242031   4.390   4.427   7.918
14030TIP3   OH242032   4.319   4.438   7.519
14030TIP3    H142033   4.364   4.475   7.440
14030TIP3    H242034   4.258   4.512   7.538
14031TIP3   OH242035   5.473   5.152   8.107
14031TIP3    H142036   5.512   5.081   8.051
14031TIP3    H242037   5.445   5.098   8.184
14032TIP3   OH242038   5.156   4.614   7.784
14032TIP3    H142039   5.073   4.614   7.837
14032TIP3    H242040   5.224   4.612   7.854
14033TIP3   OH242041   4.585   4.673   7.792
14033TIP3    H142042   4.491   4.680   7.764
14033TIP3    H242043   4.608   4.581   7.769
14034TIP3   OH242044   4.851   4.668   7.483
14034TIP3    H142045   4.945   4.682   7.460
14034TIP3    H242046   4.803   4.689   7.399
14035TIP3   OH242047   5.644   4.690   7.988
14035TIP3    H142048   5.609   4.705   8.079
14035TIP3    H242049   5.576   4.630   7.952
14036TIP3   OH242050   4.700   4.703   7.259
14036TIP3    H142051   4.629   4.657   7.211
14036TIP3    H242052   4.752   4.740   7.185
14037TIP3   OH242053   4.749   5.484   8.631
14037TIP3    H142054   4.835   5.516   8.661
14037TIP3    H242055   4.711   5.444   8.711
14038TIP3   OH242056   5.233   4.945   7.882
14038TIP3    H142057   5.307   4.907   7.833
14038TIP3    H242058   5.240   4.902   7.969
14039TIP3   OH242059   4.754   4.431   7.765
14039TIP3    H142060   4.718   4.354   7.813
14039TIP3    H242061   4.798   4.388   7.690
14040TIP3   OH242062   5.209   4.843   8.172
14040TIP3    H142063   5.119   4.879   8.185
14040TIP3    H242064   5.266   4.906   8.220
14041TIP3   OH242065   4.947   5.231   7.267
14041TIP3    H142066   4.874   5.165   7.255
14041TIP3    H242067   4.926   5.265   7.358
14042TIP3   OH242068   5.845   5.464   7.892
14042TIP3    H142069   5.868   5.515   7.812
14042TIP3    H242070   5.760   5.421   7.867
14043TIP3   OH242071   5.405   4.541   7.134
14043TIP3    H142072   5.308   4.522   7.142
14043TIP3    H242073   5.411   4.636   7.158
14044TIP3   OH242074   5.343   5.555   8.264
14044TIP3    H142075   5.347   5.527   8.357
14044TIP3    H242076   5.300   5.641   8.270
14045TIP3   OH242077   5.472   4.792   7.236
14045TIP3    H142078   5.569   4.799   7.250
14045TIP3    H242079   5.453   4.873   7.184
14046TIP3   OH242080   4.641   5.256   7.941
14046TIP3    H142081   4.678   5.226   7.856
14046TIP3    H242082   4.683   5.195   8.004
14047TIP3   OH242083   5.093   5.381   7.092
14047TIP3    H142084   5.044   5.467   7.095
14047TIP3    H242085   5.038   5.326   7.152
14048TIP3   OH242086   4.526   5.175   8.542
14048TIP3    H142087   4.554   5.170   8.636
14048TIP3    H242088   4.449   5.116   8.540
14049TIP3   OH242089   5.232   5.290   8.560
14049TIP3    H142090   5.177   5.221   8.520
14049TIP3    H242091   5.321   5.252   8.549
14050TIP3   OH242092   5.501   5.814   8.149
14050TIP3    H142093   5.406   5.805   8.165
14050TIP3    H242094   5.530   5.851   8.235
14051TIP3   OH242095   5.915   4.885   7.069
14051TIP3    H142096   5.853   4.841   7.006
14051TIP3    H242097   5.911   4.975   7.029
14052TIP3   OH242098   6.130   5.694   8.134
14052TIP3    H142099   6.035   5.706   8.109
14052TIP3    H242100   6.171   5.687   8.045
14053TIP3   OH242101   5.620   5.701   6.979
14053TIP3    H142102   5.589   5.632   7.038
14053TIP3    H242103   5.630   5.654   6.894
14054TIP3   OH242104   5.611   5.331   7.809
14054TIP3    H142105   5.518   5.307   7.824
14054TIP3    H242106   5.645   5.250   7.766
14055TIP3   OH242107   4.743   5.560   7.570
14055TIP3    H142108   4.740   5.640   7.514
14055TIP3    H242109   4.649   5.540   7.579
14056TIP3   OH242110   4.307   4.861   7.275
14056TIP3    H142111   4.351   4.946   7.295
14056TIP3    H242112   4.229   4.865   7.334
14057TIP3   OH242113   4.874   5.322   7.510
14057TIP3    H142114   4.841   5.412   7.530
14057TIP3    H242115   4.839   5.272   7.586
14058TIP3   OH242116   5.011   5.901   8.035
14058TIP3    H142117   5.054   5.973   7.984
14058TIP3    H242118   5.087   5.862   8.081
14059TIP3   OH242119   4.659   5.798   7.420
14059TIP3    H142120   4.574   5.807   7.466
14059TIP3    H242121   4.692   5.890   7.422
14060TIP3   OH242122   5.396   5.536   7.997
14060TIP3    H142123   5.386   5.535   8.095
14060TIP3    H242124   5.476   5.482   7.986
14061TIP3   OH242125   5.375   5.431   6.878
14061TIP3    H142126   5.427   5.405   6.958
14061TIP3    H242127   5.286   5.402   6.904
14062TIP3   OH242128   5.631   6.078   8.055
14062TIP3    H142129   5.559   6.014   8.039
14062TIP3    H242130   5.623   6.136   7.977
14063TIP3   OH242131   5.712   5.902   6.697
14063TIP3    H142132   5.748   5.975   6.645
14063TIP3    H242133   5.632   5.946   6.732
14064TIP3   OH242134   4.718   4.675   8.549
14064TIP3    H142135   4.622   4.694   8.554
14064TIP3    H242136   4.715   4.578   8.557
14065TIP3   OH242137   5.535   5.363   7.094
14065TIP3    H142138   5.524   5.297   7.165
14065TIP3    H242139   5.632   5.359   7.082
14066TIP3   OH242140   4.447   5.763   8.194
14066TIP3    H142141   4.502   5.692   8.231
14066TIP3    H242142   4.476   5.839   8.247
14067TIP3   OH242143   4.739   5.409   6.880
14067TIP3    H142144   4.750   5.317   6.851
14067TIP3    H242145   4.717   5.398   6.974
14068TIP3   OH242146   4.681   5.415   7.152
14068TIP3    H142147   4.757   5.388   7.206
14068TIP3    H242148   4.685   5.513   7.158
14069TIP3   OH242149   4.417   5.107   7.355
14069TIP3    H142150   4.350   5.152   7.411
14069TIP3    H242151   4.430   5.175   7.287
14070TIP3   OH242152   5.569   4.746   8.247
14070TIP3    H142153   5.652   4.784   8.281
14070TIP3    H242154   5.558   4.665   8.302
14071TIP3   OH242155   5.451   4.492   7.415
14071TIP3    H142156   5.437   4.513   7.321
14071TIP3    H242157   5.490   4.575   7.450
14072TIP3   OH242158   4.951   5.611   7.100
14072TIP3    H142159   4.863   5.636   7.136
14072TIP3    H242160   4.965   5.682   7.036
14073TIP3   OH242161   5.136   4.676   7.514
14073TIP3    H142162   5.200   4.749   7.497
14073TIP3    H242163   5.142   4.668   7.612
14074TIP3   OH242164   5.404   4.991   8.315
14074TIP3    H142165   5.426   5.045   8.394
14074TIP3    H242166   5.461   4.912   8.326
14075TIP3   OH242167   5.279   4.398   7.615
14075TIP3    H142168   5.268   4.477   7.670
14075TIP3    H242169   5.342   4.431   7.547
14076TIP3   OH242170   4.696   5.687   7.168
14076TIP3    H142171   4.665   5.757   7.106
14076TIP3    H242172   4.679   5.730   7.255
14077TIP3   OH242173   4.793   4.402   7.405
14077TIP3    H142174   4.791   4.492   7.442
14077TIP3    H242175   4.889   4.384   7.412
14078TIP3   OH242176   6.043   4.886   8.309
14078TIP3    H142177   5.944   4.887   8.307
14078TIP3    H242178   6.062   4.853   8.220
14079TIP3   OH242179   5.698   5.087   7.689
14079TIP3    H142180   5.621   5.028   7.702
14079TIP3    H242181   5.769   5.039   7.738
14080TIP3   OH242182   4.412   5.312   7.159
14080TIP3    H142183   4.482   5.379   7.167
14080TIP3    H242184   4.454   5.255   7.092
14081TIP3   OH242185   4.353   4.591   7.295
14081TIP3    H142186   4.354   4.688   7.292
14081TIP3    H242187   4.276   4.570   7.241
14082TIP3   OH242188   5.660   6.041   7.635
14082TIP3    H142189   5.617   6.088   7.560
14082TIP3    H242190   5.754   6.060   7.615
14083TIP3   OH242191   4.743   4.314   8.163
14083TIP3    H142192   4.712   4.279   8.077
14083TIP3    H242193   4.732   4.236   8.222
14084TIP3   OH242194   4.280   5.530   7.543
14084TIP3    H142195   4.214   5.560   7.607
14084TIP3    H242196   4.247   5.573   7.461
14085TIP3   OH242197   4.443   6.062   8.593
14085TIP3    H142198   4.525   6.031   8.633
14085TIP3    H242199   4.389   5.982   8.597
14086TIP3   OH242200   4.902   5.612   6.790
14086TIP3    H142201   4.847   5.539   6.827
14086TIP3    H242202   4.976   5.561   6.753
14087TIP3   OH242203   5.548   5.910   8.405
14087TIP3    H142204   5.548   5.858   8.485
14087TIP3    H242205   5.616   5.977   8.424
14088TIP3   OH242206   5.337   5.652   6.703
14088TIP3    H142207   5.379   5.586   6.763
14088TIP3    H242208   5.394   5.647   6.624
14089TIP3   OH242209   4.547   5.127   7.014
14089TIP3    H142210   4.604   5.097   7.086
14089TIP3    H242211   4.613   5.133   6.941
14090TIP3   OH242212   5.213   5.564   8.570
14090TIP3    H142213   5.142   5.588   8.508
14090TIP3    H242214   5.211   5.466   8.572
14091TIP3   OH242215   5.065   5.329   6.822
14091TIP3    H142216   5.064   5.340   6.919
14091TIP3    H242217   5.063   5.231   6.815
14092TIP3   OH242218   5.664   5.576   8.201
14092TIP3    H142219   5.741   5.618   8.158
14092TIP3    H242220   5.594   5.641   8.182
14093TIP3   OH242221   4.703   5.181   8.772
14093TIP3    H142222   4.795   5.153   8.760
14093TIP3    H242223   4.687   5.163   8.866
14094TIP3   OH242224   4.753   5.035   7.232
14094TIP3    H142225   4.726   4.992   7.315
14094TIP3    H242226   4.791   4.959   7.182
14095TIP3   OH242227   5.024   5.094   8.459
14095TIP3    H142228   4.947   5.155   8.460
14095TIP3    H242229   5.075   5.127   8.381
14096TIP3   OH242230   4.856   4.830   7.073
14096TIP3    H142231   4.831   4.837   6.979
14096TIP3    H242232   4.954   4.832   7.066
14097TIP3   OH242233   5.676   5.156   6.740
14097TIP3    H142234   5.655   5.112   6.655
14097TIP3    H242235   5.643   5.247   6.719
14098TIP3   OH242236   5.154   4.889   8.587
14098TIP3    H142237   5.152   4.810   8.531
14098TIP3    H242238   5.107   4.955   8.531
14099TIP3   OH242239   5.151   4.675   8.397
14099TIP3    H142240   5.180   4.717   8.313
14099TIP3    H242241   5.059   4.651   8.376
14100TIP3   OH242242   5.172   5.202   8.263
14100TIP3    H142243   5.258   5.219   8.225
14100TIP3    H242244   5.116   5.271   8.221
14101TIP3   OH242245   5.792   5.394   8.363
14101TIP3    H142246   5.735   5.463   8.321
14101TIP3    H242247   5.881   5.431   8.343
14102TIP3   OH242248   4.978   5.009   8.795
14102TIP3    H142249   4.934   4.921   8.799
14102TIP3    H242250   5.048   4.992   8.729
14103TIP3   OH242251   5.283   4.436   8.464
14103TIP3    H142252   5.231   4.517   8.444
14103TIP3    H242253   5.214   4.367   8.455
14104TIP3   OH242254   5.409   4.935   8.683
14104TIP3    H142255   5.392   4.921   8.777
14104TIP3    H242256   5.321   4.913   8.645
14105TIP3   OH242257   5.639   4.891   8.538
14105TIP3    H142258   5.553   4.896   8.586
14105TIP3    H242259   5.695   4.852   8.606
14106TIP3   OH242260   4.866   4.765   8.851
14106TIP3    H142261   4.906   4.701   8.791
14106TIP3    H242262   4.888   4.726   8.937
14107TIP3   OH242263   5.401   4.438   8.714
14107TIP3    H142264   5.455   4.359   8.700
14107TIP3    H242265   5.345   4.441   8.634
14108TIP3   OH242266   4.665   5.891   6.982
14108TIP3    H142267   4.760   5.882   6.961
14108TIP3    H242268   4.636   5.940   6.902
14109TIP3   OH242269   4.143   5.271   7.195
14109TIP3    H142270   4.238   5.292   7.180
14109TIP3    H242271   4.136   5.182   7.154
14110TIP3   OH242272   4.058   5.883   7.613
14110TIP3    H142273   3.993   5.821   7.573
14110TIP3    H242274   4.103   5.824   7.676
14111TIP3   OH242275   4.193   5.730   7.798
14111TIP3    H142276   4.182   5.659   7.864
14111TIP3    H242277   4.246   5.793   7.849
14112TIP3   OH242278   5.916   6.119   7.596
14112TIP3    H142279   5.948   6.155   7.681
14112TIP3    H242280   5.976   6.162   7.532
14113TIP3   OH242281   5.979   6.136   7.874
14113TIP3    H142282   5.926   6.053   7.871
14113TIP3    H242283   5.960   6.167   7.963
14114TIP3   OH242284   5.814   5.343   7.071
14114TIP3    H142285   5.879   5.409   7.041
14114TIP3    H242286   5.859   5.306   7.150
14115TIP3   OH242287   5.941   5.211   7.276
14115TIP3    H142288   5.874   5.169   7.333
14115TIP3    H242289   6.004   5.248   7.342
14116TIP3   OH242290   5.996   5.604   7.707
14116TIP3    H142291   6.045   5.536   7.657
14116TIP3    H242292   5.997   5.680   7.646
14117TIP3   OH242293   5.821   5.916   7.900
14117TIP3    H142294   5.750   5.947   7.959
14117TIP3    H242295   5.771   5.869   7.830
14118TIP3   OH242296   5.878   5.120   6.921
14118TIP3    H142297   5.807   5.121   6.853
14118TIP3    H242298   5.849   5.195   6.976
14119TIP3   OH242299   5.750   4.791   6.874
14119TIP3    H142300   5.703   4.828   6.799
14119TIP3    H242301   5.727   4.696   6.866
14120TIP3   OH242302   5.754   5.070   7.420
14120TIP3    H142303   5.760   4.974   7.412
14120TIP3    H242304   5.739   5.082   7.517
14121TIP3   OH242305   4.378   5.141   8.170
14121TIP3    H142306   4.376   5.108   8.077
14121TIP3    H242307   4.475   5.143   8.186
14122TIP3   OH242308   6.033   5.478   8.269
14122TIP3    H142309   6.117   5.436   8.295
14122TIP3    H242310   6.064   5.554   8.218
14123TIP3   OH242311   6.257   5.317   8.326
14123TIP3    H142312   6.172   5.269   8.342
14123TIP3    H242313   6.315   5.237   8.322
14124TIP3   OH242314   5.692   4.525   6.857
14124TIP3    H142315   5.764   4.493   6.915
14124TIP3    H242316   5.617   4.468   6.879
14125TIP3   OH242317   5.752   4.786   7.314
14125TIP3    H142318   5.792   4.697   7.329
14125TIP3    H242319   5.809   4.818   7.242
14126TIP3   OH242320   5.910   4.954   7.811
14126TIP3    H142321   5.996   4.980   7.770
14126TIP3    H242322   5.924   4.995   7.899
14127TIP3   OH242323   5.981   5.103   8.038
14127TIP3    H142324   5.905   5.134   8.092
14127TIP3    H242325   6.012   5.187   7.999
14128TIP3   OH242326   5.859   4.536   7.353
14128TIP3    H142327   5.907   4.519   7.437
14128TIP3    H242328   5.798   4.459   7.351
14129TIP3   OH242329   4.559   4.523   8.174
14129TIP3    H142330   4.618   4.447   8.183
14129TIP3    H242331   4.623   4.596   8.163
14130TIP3   OH242332   4.361   4.792   8.246
14130TIP3    H142333   4.410   4.791   8.162
14130TIP3    H242334   4.384   4.879   8.281
14131TIP3   OH242335   6.289   4.833   8.412
14131TIP3    H142336   6.196   4.860   8.395
14131TIP3    H242337   6.292   4.750   8.363
14132TIP3   OH242338   5.937   4.467   6.988
14132TIP3    H142339   5.976   4.396   6.932
14132TIP3    H242340   6.005   4.537   6.983
14133TIP3   OH242341   4.346   4.300   7.749
14133TIP3    H142342   4.253   4.292   7.774
14133TIP3    H242343   4.341   4.357   7.670
14134TIP3   OH242344   5.504   6.000   7.252
14134TIP3    H142345   5.557   5.992   7.170
14134TIP3    H242346   5.553   6.069   7.301
14135TIP3   OH242347   4.584   4.425   8.537
14135TIP3    H142348   4.554   4.358   8.602
14135TIP3    H242349   4.502   4.444   8.489
14136TIP3   OH242350   4.601   5.818   8.647
14136TIP3    H142351   4.512   5.791   8.615
14136TIP3    H242352   4.612   5.761   8.723
14137TIP3   OH242353   4.783   5.840   8.182
14137TIP3    H142354   4.737   5.918   8.144
14137TIP3    H242355   4.870   5.854   8.140
14138TIP3   OH242356   5.239   6.082   8.331
14138TIP3    H142357   5.293   6.064   8.409
14138TIP3    H242358   5.302   6.134   8.277
14139TIP3   OH242359   5.432   6.230   8.197
14139TIP3    H142360   5.486   6.171   8.141
14139TIP3    H242361   5.473   6.316   8.179
14140TIP3   OH242362   6.203   4.593   8.277
14140TIP3    H142363   6.114   4.588   8.238
14140TIP3    H242364   6.234   4.500   8.265
14141TIP3   OH242365   4.459   6.092   8.212
14141TIP3    H142366   4.369   6.125   8.188
14141TIP3    H242367   4.473   6.139   8.295
14142TIP3   OH242368   4.697   6.076   8.070
14142TIP3    H142369   4.609   6.087   8.113
14142TIP3    H242370   4.679   6.108   7.979
14143TIP3   OH242371   5.120   6.101   7.866
14143TIP3    H142372   5.050   6.118   7.799
14143TIP3    H242373   5.131   6.191   7.905
14144TIP3   OH242374   5.387   6.042   7.921
14144TIP3    H142375   5.294   6.060   7.896
14144TIP3    H242376   5.435   6.110   7.870
14145TIP3   OH242377   5.592   6.225   7.828
14145TIP3    H142378   5.577   6.310   7.781
14145TIP3    H242379   5.618   6.166   7.755
14146TIP3   OH242380   4.370   5.887   7.953
14146TIP3    H142381   4.396   5.860   8.044
14146TIP3    H242382   4.442   5.845   7.902
14147TIP3   OH242383   4.566   5.761   7.813
14147TIP3    H142384   4.581   5.677   7.863
14147TIP3    H242385   4.657   5.796   7.808
14148TIP3   OH242386   4.833   5.853   7.817
14148TIP3    H142387   4.863   5.761   7.806
14148TIP3    H242388   4.880   5.875   7.900
14149TIP3   OH242389   5.409   4.511   7.907
14149TIP3    H142390   5.365   4.439   7.955
14149TIP3    H242391   5.480   4.464   7.859
14150TIP3   OH242392   5.927   4.393   7.808
14150TIP3    H142393   5.964   4.444   7.732
14150TIP3    H242394   5.832   4.410   7.799
14151TIP3   OH242395   6.023   4.489   7.571
14151TIP3    H142396   6.097   4.438   7.532
14151TIP3    H242397   6.057   4.581   7.556
14152TIP3   OH242398   4.654   4.218   7.917
14152TIP3    H142399   4.562   4.186   7.920
14152TIP3    H242400   4.702   4.132   7.913
14153TIP3   OH242401   4.447   4.091   7.568
14153TIP3    H142402   4.474   4.146   7.493
14153TIP3    H242403   4.418   4.157   7.634
14154TIP3   OH242404   5.102   4.249   7.799
14154TIP3    H142405   5.158   4.298   7.736
14154TIP3    H242406   5.126   4.291   7.883
14155TIP3   OH242407   5.644   4.399   7.780
14155TIP3    H142408   5.645   4.358   7.693
14155TIP3    H242409   5.633   4.320   7.838
14156TIP3   OH242410   5.676   4.324   7.345
14156TIP3    H142411   5.589   4.366   7.361
14156TIP3    H242412   5.662   4.237   7.390
14157TIP3   OH242413   4.158   5.665   7.344
14157TIP3    H142414   4.073   5.631   7.311
14157TIP3    H242415   4.149   5.758   7.318
14158TIP3   OH242416   4.561   4.246   7.329
14158TIP3    H142417   4.608   4.183   7.271
14158TIP3    H242418   4.635   4.300   7.364
14159TIP3   OH242419   5.070   4.426   7.427
14159TIP3    H142420   5.129   4.377   7.487
14159TIP3    H242421   5.093   4.518   7.453
14160TIP3   OH242422   4.932   5.846   6.928
14160TIP3    H142423   5.019   5.869   6.891
14160TIP3    H242424   4.909   5.772   6.867
14161TIP3   OH242425   5.651   5.969   7.021
14161TIP3    H142426   5.644   5.871   7.010
14161TIP3    H242427   5.604   5.999   6.941
14162TIP3   OH242428   4.235   5.684   6.981
14162TIP3    H142429   4.241   5.704   7.076
14162TIP3    H242430   4.322   5.640   6.964
14163TIP3   OH242431   7.104   5.493   7.384
14163TIP3    H142432   7.158   5.428   7.431
14163TIP3    H242433   7.079   5.440   7.307
14164TIP3   OH242434   6.437   5.346   7.695
14164TIP3    H142435   6.463   5.287   7.767
14164TIP3    H242436   6.510   5.409   7.698
14165TIP3   OH242437   6.418   5.791   7.444
14165TIP3    H142438   6.406   5.694   7.448
14165TIP3    H242439   6.513   5.795   7.424
14166TIP3   OH242440   6.120   4.991   7.225
14166TIP3    H142441   6.070   5.073   7.244
14166TIP3    H242442   6.050   4.937   7.184
14167TIP3   OH242443   6.179   5.279   7.404
14167TIP3    H142444   6.228   5.201   7.439
14167TIP3    H242445   6.233   5.303   7.328
14168TIP3   OH242446   6.922   5.705   7.357
14168TIP3    H142447   6.952   5.613   7.344
14168TIP3    H242448   7.005   5.752   7.342
14169TIP3   OH242449   7.342   5.202   7.421
14169TIP3    H142450   7.368   5.107   7.426
14169TIP3    H242451   7.305   5.203   7.330
14170TIP3   OH242452   6.696   4.870   7.397
14170TIP3    H142453   6.673   4.943   7.335
14170TIP3    H242454   6.647   4.796   7.355
14171TIP3   OH242455   7.390   4.963   7.022
14171TIP3    H142456   7.464   4.944   7.085
14171TIP3    H242457   7.440   5.000   6.947
14172TIP3   OH242458   6.323   5.071   7.506
14172TIP3    H142459   6.406   5.054   7.554
14172TIP3    H242460   6.338   5.015   7.427
14173TIP3   OH242461   6.765   5.269   7.297
14173TIP3    H142462   6.858   5.242   7.312
14173TIP3    H242463   6.725   5.185   7.265
14174TIP3   OH242464   6.685   4.852   7.834
14174TIP3    H142465   6.625   4.890   7.767
14174TIP3    H242466   6.633   4.870   7.915
14175TIP3   OH242467   6.792   5.620   7.597
14175TIP3    H142468   6.721   5.681   7.624
14175TIP3    H242469   6.841   5.672   7.531
14176TIP3   OH242470   7.597   4.952   7.204
14176TIP3    H142471   7.556   4.902   7.276
14176TIP3    H242472   7.631   5.029   7.251
14177TIP3   OH242473   6.558   4.966   7.616
14177TIP3    H142474   6.621   5.037   7.641
14177TIP3    H242475   6.608   4.927   7.541
14178TIP3   OH242476   6.014   5.515   6.962
14178TIP3    H142477   5.973   5.541   6.878
14178TIP3    H242478   6.045   5.601   6.997
14179TIP3   OH242479   7.034   4.571   7.545
14179TIP3    H142480   7.022   4.476   7.565
14179TIP3    H242481   6.958   4.609   7.594
14180TIP3   OH242482   6.959   5.311   6.787
14180TIP3    H142483   6.890   5.379   6.778
14180TIP3    H242484   7.033   5.351   6.737
14181TIP3   OH242485   6.926   5.126   6.516
14181TIP3    H142486   6.976   5.174   6.583
14181TIP3    H242487   6.996   5.071   6.475
14182TIP3   OH242488   6.550   5.415   7.195
14182TIP3    H142489   6.507   5.358   7.127
14182TIP3    H242490   6.627   5.361   7.221
14183TIP3   OH242491   6.680   5.830   7.329
14183TIP3    H142492   6.641   5.808   7.242
14183TIP3    H242493   6.759   5.772   7.331
14184TIP3   OH242494   6.697   5.370   7.545
14184TIP3    H142495   6.720   5.346   7.453
14184TIP3    H242496   6.739   5.458   7.555
14185TIP3   OH242497   7.182   5.284   6.609
14185TIP3    H142498   7.228   5.361   6.650
14185TIP3    H242499   7.201   5.302   6.515
14186TIP3   OH242500   6.515   5.521   7.912
14186TIP3    H142501   6.464   5.596   7.880
14186TIP3    H242502   6.449   5.473   7.966
14187TIP3   OH242503   6.863   5.989   6.899
14187TIP3    H142504   6.952   6.018   6.924
14187TIP3    H242505   6.836   6.051   6.830
14188TIP3   OH242506   7.677   4.514   6.653
14188TIP3    H142507   7.594   4.535   6.700
14188TIP3    H242508   7.692   4.596   6.602
14189TIP3   OH242509   6.417   5.260   7.001
14189TIP3    H142510   6.351   5.304   6.943
14189TIP3    H242511   6.381   5.171   7.007
14190TIP3   OH242512   7.476   5.886   6.207
14190TIP3    H142513   7.486   5.983   6.197
14190TIP3    H242514   7.566   5.856   6.180
14191TIP3   OH242515   6.216   5.630   7.883
14191TIP3    H142516   6.141   5.619   7.820
14191TIP3    H242517   6.230   5.540   7.914
14192TIP3   OH242518   6.055   5.832   7.551
14192TIP3    H142519   6.145   5.844   7.517
14192TIP3    H242520   6.026   5.922   7.572
14193TIP3   OH242521   6.784   6.206   6.678
14193TIP3    H142522   6.732   6.182   6.600
14193TIP3    H242523   6.742   6.288   6.708
14194TIP3   OH242524   6.219   6.048   7.059
14194TIP3    H142525   6.262   6.038   7.147
14194TIP3    H242526   6.164   5.968   7.057
14195TIP3   OH242527   6.984   6.094   6.314
14195TIP3    H142528   7.041   6.026   6.273
14195TIP3    H242529   7.023   6.099   6.403
14196TIP3   OH242530   7.027   6.126   6.595
14196TIP3    H142531   6.940   6.157   6.630
14196TIP3    H242532   7.029   6.036   6.632
14197TIP3   OH242533   6.804   4.649   7.680
14197TIP3    H142534   6.716   4.617   7.650
14197TIP3    H242535   6.775   4.728   7.730
14198TIP3   OH242536   7.329   4.751   7.854
14198TIP3    H142537   7.392   4.774   7.923
14198TIP3    H242538   7.244   4.747   7.900
14199TIP3   OH242539   7.234   5.314   6.343
14199TIP3    H142540   7.203   5.293   6.253
14199TIP3    H242541   7.315   5.364   6.325
14200TIP3   OH242542   6.950   4.694   6.650
14200TIP3    H142543   6.914   4.692   6.740
14200TIP3    H242544   6.909   4.613   6.614
14201TIP3   OH242545   6.741   5.153   7.695
14201TIP3    H142546   6.693   5.176   7.777
14201TIP3    H242547   6.723   5.233   7.640
14202TIP3   OH242548   6.620   5.051   7.210
14202TIP3    H142549   6.527   5.025   7.228
14202TIP3    H242550   6.632   5.011   7.121
14203TIP3   OH242551   7.106   5.139   6.937
14203TIP3    H142552   7.050   5.205   6.890
14203TIP3    H242553   7.163   5.109   6.862
14204TIP3   OH242554   7.256   5.160   7.166
14204TIP3    H142555   7.194   5.184   7.093
14204TIP3    H242556   7.294   5.080   7.123
14205TIP3   OH242557   6.568   5.185   7.906
14205TIP3    H142558   6.618   5.236   7.971
14205TIP3    H242559   6.546   5.105   7.958
14206TIP3   OH242560   6.606   4.672   6.615
14206TIP3    H142561   6.595   4.669   6.712
14206TIP3    H242562   6.528   4.725   6.590
14207TIP3   OH242563   6.147   4.713   7.488
14207TIP3    H142564   6.224   4.745   7.540
14207TIP3    H242565   6.187   4.682   7.405
14208TIP3   OH242566   6.115   4.695   7.005
14208TIP3    H142567   6.161   4.731   6.927
14208TIP3    H242568   6.054   4.768   7.024
14209TIP3   OH242569   6.951   4.872   7.270
14209TIP3    H142570   6.867   4.870   7.320
14209TIP3    H242571   7.016   4.865   7.342
14210TIP3   OH242572   6.382   4.929   7.278
14210TIP3    H142573   6.288   4.938   7.250
14210TIP3    H242574   6.403   4.837   7.256
14211TIP3   OH242575   6.649   4.926   6.969
14211TIP3    H142576   6.742   4.940   6.944
14211TIP3    H242577   6.600   4.946   6.886
14212TIP3   OH242578   7.397   4.936   7.435
14212TIP3    H142579   7.395   4.916   7.529
14212TIP3    H242580   7.332   4.871   7.401
14213TIP3   OH242581   6.496   4.958   6.746
14213TIP3    H142582   6.426   4.913   6.697
14213TIP3    H242583   6.548   4.996   6.672
14214TIP3   OH242584   7.023   5.195   7.367
14214TIP3    H142585   7.095   5.155   7.316
14214TIP3    H242586   7.032   5.154   7.455
14215TIP3   OH242587   6.551   4.687   7.252
14215TIP3    H142588   6.514   4.610   7.301
14215TIP3    H242589   6.593   4.644   7.176
14216TIP3   OH242590   7.009   5.101   7.652
14216TIP3    H142591   6.914   5.124   7.664
14216TIP3    H242592   7.049   5.134   7.734
14217TIP3   OH242593   6.744   5.492   6.756
14217TIP3    H142594   6.673   5.426   6.744
14217TIP3    H242595   6.724   5.525   6.847
14218TIP3   OH242596   7.202   4.798   6.622
14218TIP3    H142597   7.105   4.779   6.628
14218TIP3    H242598   7.207   4.893   6.643
14219TIP3   OH242599   7.267   5.052   6.721
14219TIP3    H142600   7.363   5.060   6.734
14219TIP3    H242601   7.246   5.137   6.677
14220TIP3   OH242602   6.445   5.518   7.432
14220TIP3    H142603   6.478   5.484   7.346
14220TIP3    H242604   6.464   5.444   7.490
14221TIP3   OH242605   6.880   5.636   6.556
14221TIP3    H142606   6.841   5.724   6.576
14221TIP3    H242607   6.845   5.584   6.632
14222TIP3   OH242608   6.305   5.400   8.060
14222TIP3    H142609   6.281   5.380   8.153
14222TIP3    H242610   6.229   5.359   8.013
14223TIP3   OH242611   7.720   5.142   6.554
14223TIP3    H142612   7.658   5.095   6.494
14223TIP3    H242613   7.709   5.231   6.513
14224TIP3   OH242614   7.364   5.939   6.459
14224TIP3    H142615   7.389   5.865   6.516
14224TIP3    H242616   7.407   5.914   6.374
14225TIP3   OH242617   6.541   5.823   7.073
14225TIP3    H142618   6.542   5.897   7.008
14225TIP3    H242619   6.449   5.795   7.065
14226TIP3   OH242620   6.102   5.118   6.760
14226TIP3    H142621   6.146   5.203   6.781
14226TIP3    H242622   6.025   5.122   6.821
14227TIP3   OH242623   6.670   5.581   7.002
14227TIP3    H142624   6.640   5.671   7.023
14227TIP3    H242625   6.631   5.530   7.075
14228TIP3   OH242626   6.456   6.050   6.908
14228TIP3    H142627   6.370   6.062   6.951
14228TIP3    H242628   6.492   6.142   6.912
14229TIP3   OH242629   7.170   5.677   6.378
14229TIP3    H142630   7.212   5.652   6.462
14229TIP3    H242631   7.078   5.653   6.397
14230TIP3   OH242632   7.496   6.162   6.198
14230TIP3    H142633   7.543   6.185   6.116
14230TIP3    H242634   7.417   6.220   6.196
14231TIP3   OH242635   6.525   4.933   8.049
14231TIP3    H142636   6.429   4.938   8.065
14231TIP3    H242637   6.554   4.875   8.121
14232TIP3   OH242638   6.261   6.030   7.688
14232TIP3    H142639   6.258   5.937   7.714
14232TIP3    H242640   6.227   6.075   7.766
14233TIP3   OH242641   6.532   5.667   6.366
14233TIP3    H142642   6.549   5.575   6.339
14233TIP3    H242643   6.512   5.656   6.461
14234TIP3   OH242644   6.480   5.671   6.639
14234TIP3    H142645   6.561   5.644   6.684
14234TIP3    H242646   6.483   5.769   6.647
14235TIP3   OH242647   6.213   5.363   6.842
14235TIP3    H142648   6.146   5.409   6.897
14235TIP3    H242649   6.227   5.431   6.773
14236TIP3   OH242650   7.249   4.748   6.901
14236TIP3    H142651   7.231   4.769   6.807
14236TIP3    H242652   7.285   4.833   6.934
14237TIP3   OH242653   6.750   5.875   6.587
14237TIP3    H142654   6.663   5.895   6.626
14237TIP3    H242655   6.754   5.942   6.518
14238TIP3   OH242656   6.936   4.931   7.000
14238TIP3    H142657   6.996   5.007   6.981
14238TIP3    H242658   6.940   4.927   7.098
14239TIP3   OH242659   7.075   4.656   7.102
14239TIP3    H142660   7.059   4.737   7.154
14239TIP3    H242661   7.138   4.689   7.034
14240TIP3   OH242662   6.491   5.944   6.654
14240TIP3    H142663   6.460   6.014   6.593
14240TIP3    H242664   6.474   5.985   6.742
14241TIP3   OH242665   6.589   4.659   6.892
14241TIP3    H142666   6.587   4.749   6.929
14241TIP3    H242667   6.685   4.640   6.899
14242TIP3   OH242668   7.524   5.279   7.202
14242TIP3    H142669   7.439   5.235   7.183
14242TIP3    H242670   7.554   5.233   7.282
14243TIP3   OH242671   6.209   5.569   6.646
14243TIP3    H142672   6.280   5.635   6.655
14243TIP3    H242673   6.252   5.511   6.579
14244TIP3   OH242674   6.149   4.848   6.781
14244TIP3    H142675   6.151   4.946   6.778
14244TIP3    H242676   6.068   4.829   6.733
14245TIP3   OH242677   6.540   4.568   7.650
14245TIP3    H142678   6.509   4.534   7.564
14245TIP3    H242679   6.529   4.491   7.708
14246TIP3   OH242680   6.074   5.784   7.030
14246TIP3    H142681   6.011   5.817   7.095
14246TIP3    H242682   6.041   5.827   6.948
14247TIP3   OH242683   6.697   5.868   6.277
14247TIP3    H142684   6.640   5.796   6.314
14247TIP3    H242685   6.773   5.816   6.245
14248TIP3   OH242686   7.135   5.904   6.190
14248TIP3    H142687   7.187   5.853   6.254
14248TIP3    H242688   7.189   5.900   6.109
14249TIP3   OH242689   6.344   5.383   6.502
14249TIP3    H142690   6.402   5.354   6.575
14249TIP3    H242691   6.410   5.389   6.429
14250TIP3   OH242692   6.849   5.580   6.294
14250TIP3    H142693   6.852   5.596   6.391
14250TIP3    H242694   6.851   5.482   6.293
14251TIP3   OH242695   6.548   5.292   6.718
14251TIP3    H142696   6.524   5.249   6.801
14251TIP3    H242697   6.588   5.219   6.667
14252TIP3   OH242698   6.830   5.339   7.927
14252TIP3    H142699   6.777   5.392   7.989
14252TIP3    H242700   6.836   5.397   7.850
14253TIP3   OH242701   6.652   5.086   6.560
14253TIP3    H142702   6.627   5.094   6.466
14253TIP3    H242703   6.750   5.090   6.553
14254TIP3   OH242704   7.470   5.412   6.224
14254TIP3    H142705   7.448   5.370   6.139
14254TIP3    H242706   7.439   5.503   6.206
14255TIP3   OH242707   2.019   0.228   3.185
14255TIP3    H142708   2.033   0.157   3.120
14255TIP3    H242709   1.986   0.300   3.128
14256TIP3   OH242710   6.945   4.922   7.879
14256TIP3    H142711   6.971   4.957   7.792
14256TIP3    H242712   6.849   4.903   7.865
14257TIP3   OH242713   7.079   4.700   7.971
14257TIP3    H142714   7.027   4.778   7.940
14257TIP3    H242715   7.015   4.627   7.952
14258TIP3   OH242716   6.645   5.028   8.363
14258TIP3    H142717   6.656   4.945   8.313
14258TIP3    H242718   6.708   5.015   8.435
14259TIP3   OH242719   7.175   4.694   8.231
14259TIP3    H142720   7.243   4.637   8.196
14259TIP3    H242721   7.123   4.709   8.149
14260TIP3   OH242722   6.461   6.148   6.467
14260TIP3    H142723   6.556   6.140   6.445
14260TIP3    H242724   6.430   6.199   6.390
14261TIP3   OH242725   5.939   5.528   6.682
14261TIP3    H142726   6.034   5.549   6.667
14261TIP3    H242727   5.933   5.440   6.641
14262TIP3   OH242728   5.855   6.141   7.095
14262TIP3    H142729   5.788   6.082   7.055
14262TIP3    H242730   5.899   6.079   7.157
14263TIP3   OH242731   5.984   5.975   7.271
14263TIP3    H142732   5.960   5.908   7.337
14263TIP3    H242733   6.034   6.039   7.326
14264TIP3   OH242734   7.635   5.570   6.575
14264TIP3    H142735   7.663   5.646   6.523
14264TIP3    H242736   7.552   5.602   6.622
14265TIP3   OH242737   7.787   5.442   6.767
14265TIP3    H142738   7.714   5.385   6.806
14265TIP3    H242739   7.732   5.513   6.729
14266TIP3   OH242740   7.672   5.361   6.399
14266TIP3    H142741   7.598   5.368   6.335
14266TIP3    H242742   7.648   5.433   6.461
14267TIP3   OH242743   7.556   5.043   6.363
14267TIP3    H142744   7.503   5.089   6.297
14267TIP3    H242745   7.526   4.950   6.350
14268TIP3   OH242746   7.603   5.303   6.899
14268TIP3    H142747   7.558   5.219   6.880
14268TIP3    H242748   7.531   5.356   6.937
14269TIP3   OH242749   6.171   5.395   7.653
14269TIP3    H142750   6.163   5.362   7.560
14269TIP3    H242751   6.268   5.388   7.664
14270TIP3   OH242752   7.488   4.778   6.344
14270TIP3    H142753   7.555   4.746   6.407
14270TIP3    H242754   7.409   4.725   6.363
14271TIP3   OH242755   7.545   5.040   6.799
14271TIP3    H142756   7.584   4.950   6.812
14271TIP3    H242757   7.601   5.074   6.727
14272TIP3   OH242758   6.380   5.074   8.313
14272TIP3    H142759   6.477   5.070   8.326
14272TIP3    H242760   6.353   4.996   8.366
14273TIP3   OH242761   7.652   4.790   6.842
14273TIP3    H142762   7.695   4.766   6.926
14273TIP3    H242763   7.587   4.716   6.834
14274TIP3   OH242764   6.355   4.777   7.660
14274TIP3    H142765   6.417   4.701   7.669
14274TIP3    H242766   6.418   4.851   7.651
14275TIP3   OH242767   6.155   5.050   7.731
14275TIP3    H142768   6.204   5.045   7.647
14275TIP3    H242769   6.188   5.134   7.766
14276TIP3   OH242770   7.738   4.721   6.479
14276TIP3    H142771   7.772   4.652   6.418
14276TIP3    H242772   7.802   4.794   6.467
14277TIP3   OH242773   6.142   4.557   7.236
14277TIP3    H142774   6.049   4.549   7.262
14277TIP3    H242775   6.136   4.614   7.156
14278TIP3   OH242776   6.362   4.630   8.045
14278TIP3    H142777   6.313   4.630   8.129
14278TIP3    H242778   6.297   4.670   7.985
14279TIP3   OH242779   6.147   6.123   7.441
14279TIP3    H142780   6.195   6.121   7.526
14279TIP3    H242781   6.220   6.090   7.384
14280TIP3   OH242782   6.340   6.006   7.296
14280TIP3    H142783   6.365   5.926   7.348
14280TIP3    H242784   6.429   6.046   7.281
14281TIP3   OH242785   6.588   6.108   7.273
14281TIP3    H142786   6.638   6.036   7.233
14281TIP3    H242787   6.658   6.165   7.308
14282TIP3   OH242788   7.195   4.751   7.389
14282TIP3    H142789   7.146   4.685   7.442
14282TIP3    H242790   7.257   4.695   7.340
14283TIP3   OH242791   7.732   4.646   7.283
14283TIP3    H142792   7.764   4.707   7.213
14283TIP3    H242793   7.636   4.666   7.284
14284TIP3   OH242794   7.833   4.757   7.050
14284TIP3    H142795   7.900   4.697   7.011
14284TIP3    H242796   7.857   4.841   7.011
14285TIP3   OH242797   6.450   4.475   7.403
14285TIP3    H142798   6.358   4.443   7.407
14285TIP3    H242799   6.498   4.389   7.400
14286TIP3   OH242800   6.240   4.347   7.056
14286TIP3    H142801   6.270   4.402   6.981
14286TIP3    H242802   6.213   4.414   7.122
14287TIP3   OH242803   6.898   4.507   7.285
14287TIP3    H142804   6.955   4.555   7.223
14287TIP3    H242805   6.922   4.546   7.370
14288TIP3   OH242806   7.449   4.653   7.264
14288TIP3    H142807   7.441   4.609   7.178
14288TIP3    H242808   7.436   4.578   7.326
14289TIP3   OH242809   7.471   4.580   6.832
14289TIP3    H142810   7.385   4.623   6.847
14289TIP3    H242811   7.456   4.494   6.876
14290TIP3   OH242812   5.955   5.921   6.831
14290TIP3    H142813   5.869   5.888   6.799
14290TIP3    H242814   5.946   6.015   6.806
14291TIP3   OH242815   6.357   4.505   6.814
14291TIP3    H142816   6.405   4.440   6.758
14291TIP3    H242817   6.432   4.557   6.850
14292TIP3   OH242818   6.865   4.683   6.913
14292TIP3    H142819   6.923   4.632   6.972
14292TIP3    H242820   6.890   4.774   6.939
14293TIP3   OH242821   6.727   6.103   6.411
14293TIP3    H142822   6.815   6.123   6.374
14293TIP3    H242823   6.703   6.028   6.352
14294TIP3   OH242824   7.440   6.201   6.484
14294TIP3    H142825   7.406   6.108   6.489
14294TIP3    H242826   7.472   6.201   6.393
14295TIP3   OH242827   6.650   4.749   8.279
14295TIP3    H142828   6.612   4.683   8.340
14295TIP3    H242829   6.743   4.748   8.310
14296TIP3   OH242830   6.901   4.737   8.385
14296TIP3    H142831   6.991   4.731   8.349
14296TIP3    H242832   6.908   4.691   8.470
14297TIP3   OH242833   6.031   5.940   6.467
14297TIP3    H142834   6.032   5.964   6.561
14297TIP3    H242835   6.119   5.898   6.455
14298TIP3   OH242836   7.761   5.748   6.405
14298TIP3    H142837   7.744   5.760   6.310
14298TIP3    H242838   7.722   5.831   6.440
14299TIP3   OH242839   8.787   4.917   6.086
14299TIP3    H142840   8.752   4.976   6.153
14299TIP3    H242841   8.719   4.846   6.082
14300TIP3   OH242842   8.405   4.932   6.105
14300TIP3    H142843   8.385   4.925   6.201
14300TIP3    H242844   8.327   4.982   6.074
14301TIP3   OH242845   7.916   4.953   6.498
14301TIP3    H142846   7.958   4.987   6.416
14301TIP3    H242847   7.852   5.025   6.515
14302TIP3   OH242848   8.473   5.156   6.433
14302TIP3    H142849   8.544   5.221   6.420
14302TIP3    H242850   8.411   5.182   6.361
14303TIP3   OH242851   8.294   5.217   6.241
14303TIP3    H142852   8.219   5.174   6.197
14303TIP3    H242853   8.348   5.240   6.162
14304TIP3   OH242854   8.372   4.938   6.742
14304TIP3    H142855   8.312   4.870   6.778
14304TIP3    H242856   8.380   4.912   6.649
14305TIP3   OH242857   7.891   5.352   6.240
14305TIP3    H142858   7.926   5.444   6.248
14305TIP3    H242859   7.812   5.358   6.298
14306TIP3   OH242860   8.351   5.880   5.804
14306TIP3    H142861   8.306   5.807   5.756
14306TIP3    H242862   8.409   5.827   5.860
14307TIP3   OH242863   7.962   5.606   6.282
14307TIP3    H142864   7.894   5.636   6.345
14307TIP3    H242865   8.002   5.692   6.261
14308TIP3   OH242866   8.372   4.904   6.382
14308TIP3    H142867   8.390   4.997   6.408
14308TIP3    H242868   8.463   4.869   6.389
14309TIP3   OH242869   7.996   5.867   6.097
14309TIP3    H142870   8.030   5.860   6.189
14309TIP3    H242871   8.050   5.802   6.049
14310TIP3   OH242872   7.950   5.091   6.266
14310TIP3    H142873   7.946   5.189   6.264
14310TIP3    H242874   7.872   5.069   6.216
14311TIP3   OH242875   8.172   5.676   6.001
14311TIP3    H142876   8.210   5.608   6.060
14311TIP3    H242877   8.219   5.653   5.917
14312TIP3   OH242878   8.324   5.514   6.168
14312TIP3    H142879   8.353   5.470   6.248
14312TIP3    H242880   8.368   5.458   6.102
14313TIP3   OH242881   8.451   5.317   6.030
14313TIP3    H142882   8.418   5.314   5.938
14313TIP3    H242883   8.535   5.363   6.017
14314TIP3   OH242884   7.727   5.786   6.139
14314TIP3    H142885   7.814   5.821   6.112
14314TIP3    H242886   7.726   5.700   6.091
14315TIP3   OH242887   7.927   4.818   6.734
14315TIP3    H142888   7.831   4.807   6.746
14315TIP3    H242889   7.930   4.876   6.654
14316TIP3   OH242890   8.242   4.744   6.902
14316TIP3    H142891   8.150   4.711   6.897
14316TIP3    H242892   8.290   4.660   6.905
14317TIP3   OH242893   8.046   4.602   6.543
14317TIP3    H142894   8.069   4.656   6.465
14317TIP3    H242895   8.008   4.669   6.603
14318TIP3   OH242896   8.147   4.755   6.303
14318TIP3    H142897   8.196   4.694   6.245
14318TIP3    H242898   8.219   4.810   6.338
14319TIP3   OH242899   8.645   4.906   6.444
14319TIP3    H142900   8.696   4.839   6.491
14319TIP3    H242901   8.629   4.973   6.512
14320TIP3   OH242902   7.779   6.123   6.000
14320TIP3    H142903   7.817   6.200   6.045
14320TIP3    H242904   7.847   6.102   5.935
14321TIP3   OH242905   2.117   6.119   8.509
14321TIP3    H142906   2.146   6.138   8.599
14321TIP3    H242907   2.164   6.189   8.457
14322TIP3   OH242908   1.646   5.990   8.190
14322TIP3    H142909   1.705   5.996   8.270
14322TIP3    H242910   1.693   6.047   8.129
14323TIP3   OH242911   1.845   6.025   8.389
14323TIP3    H142912   1.839   5.942   8.439
14323TIP3    H242913   1.931   6.058   8.419
14324TIP3   OH242914   1.166   6.203   7.890
14324TIP3    H142915   1.159   6.187   7.977
14324TIP3    H242916   1.221   6.305   7.897
14325TIP3   OH242917   1.228   6.129   7.615
14325TIP3    H142918   1.280   6.192   7.672
14325TIP3    H242919   1.198   6.069   7.684
14326TIP3   OH242920   1.591   6.424   7.959
14326TIP3    H142921   1.571   6.494   8.026
14326TIP3    H242922   1.674   6.388   7.991
14327TIP3   OH242923   1.410   6.320   7.772
14327TIP3    H142924   1.477   6.362   7.822
14327TIP3    H242925   1.392   6.387   7.701
14328TIP3   OH242926   1.924   5.566   7.824
14328TIP3    H142927   1.842   5.583   7.875
14328TIP3    H242928   1.931   5.648   7.772
14329TIP3   OH242929   1.742   6.918   7.345
14329TIP3    H142930   1.754   7.014   7.332
14329TIP3    H242931   1.834   6.887   7.353
14330TIP3   OH242932   1.547   6.367   7.473
14330TIP3    H142933   1.476   6.353   7.408
14330TIP3    H242934   1.526   6.446   7.516
14331TIP3   OH242935   1.186   5.759   7.800
14331TIP3    H142936   1.172   5.753   7.897
14331TIP3    H242937   1.160   5.668   7.775
14332TIP3   OH242938   1.377   6.176   8.106
14332TIP3    H142939   1.358   6.249   8.047
14332TIP3    H242940   1.440   6.125   8.050
14333TIP3   OH242941   1.452   5.829   7.803
14333TIP3    H142942   1.355   5.813   7.802
14333TIP3    H242943   1.459   5.926   7.816
14334TIP3   OH242944   1.527   6.084   7.896
14334TIP3    H142945   1.621   6.093   7.910
14334TIP3    H242946   1.509   6.152   7.825
14335TIP3   OH242947   1.958   6.183   7.741
14335TIP3    H142948   1.909   6.123   7.682
14335TIP3    H242949   1.947   6.268   7.691
14336TIP3   OH242950   1.410   6.734   7.516
14336TIP3    H142951   1.456   6.689   7.588
14336TIP3    H242952   1.318   6.713   7.541
14337TIP3   OH242953   1.821   7.245   7.323
14337TIP3    H142954   1.796   7.292   7.241
14337TIP3    H242955   1.734   7.228   7.363
14338TIP3   OH242956   1.547   6.576   7.699
14338TIP3    H142957   1.553   6.573   7.796
14338TIP3    H242958   1.634   6.611   7.678
14339TIP3   OH242959   1.501   5.787   8.078
14339TIP3    H142960   1.484   5.810   7.984
14339TIP3    H242961   1.547   5.868   8.112
14340TIP3   OH242962   1.179   6.001   8.190
14340TIP3    H142963   1.269   6.030   8.166
14340TIP3    H242964   1.189   5.974   8.282
14341TIP3   OH242965   1.334   5.693   8.273
14341TIP3    H142966   1.352   5.746   8.352
14341TIP3    H242967   1.393   5.733   8.205
14342TIP3   OH242968   1.381   6.958   7.347
14342TIP3    H142969   1.419   6.895   7.411
14342TIP3    H242970   1.436   6.946   7.267
14343TIP3   OH242971   1.122   6.647   7.488
14343TIP3    H142972   1.134   6.646   7.585
14343TIP3    H242973   1.103   6.552   7.472
14344TIP3   OH242974   0.928   6.150   7.788
14344TIP3    H142975   0.923   6.143   7.688
14344TIP3    H242976   1.022   6.162   7.804
14345TIP3   OH242977   1.785   6.471   7.361
14345TIP3    H142978   1.708   6.412   7.370
14345TIP3    H242979   1.736   6.555   7.344
14346TIP3   OH242980   1.866   6.640   7.735
14346TIP3    H142981   1.932   6.700   7.694
14346TIP3    H242982   1.921   6.596   7.805
14347TIP3   OH242983   1.992   6.502   7.935
14347TIP3    H142984   1.944   6.459   8.006
14347TIP3    H242985   2.071   6.540   7.984
14348TIP3   OH242986   1.922   6.409   7.586
14348TIP3    H142987   1.870   6.422   7.502
14348TIP3    H242988   1.888   6.483   7.638
14349TIP3   OH242989   1.824   6.342   8.107
14349TIP3    H142990   1.826   6.250   8.082
14349TIP3    H242991   1.781   6.337   8.197
14350TIP3   OH242992   1.800   6.099   7.975
14350TIP3    H142993   1.828   6.001   7.988
14350TIP3    H242994   1.862   6.122   7.906
14351TIP3   OH242995   1.892   5.843   8.005
14351TIP3    H142996   1.948   5.828   8.083
14351TIP3    H242997   1.833   5.765   8.008
14352TIP3   OH242998   1.991   5.779   7.645
14352TIP3    H142999   2.023   5.703   7.593
14352TIP3    H243000   2.066   5.841   7.642
14353TIP3   OH243001   1.994   5.697   8.410
14353TIP3    H143002   2.032   5.751   8.338
14353TIP3    H243003   1.899   5.696   8.388
14354TIP3   OH243004   2.091   5.828   8.192
14354TIP3    H143005   2.154   5.758   8.162
14354TIP3    H243006   2.138   5.907   8.161
14355TIP3   OH243007   1.731   5.671   8.388
14355TIP3    H143008   1.667   5.663   8.317
14355TIP3    H243009   1.708   5.595   8.445
14356TIP3   OH243010   1.721   5.625   8.008
14356TIP3    H143011   1.633   5.666   8.020
14356TIP3    H243012   1.706   5.537   8.050
14357TIP3   OH243013   1.156   5.739   8.066
14357TIP3    H143014   1.197   5.696   8.143
14357TIP3    H243015   1.123   5.821   8.105
14358TIP3   OH243016   3.189   6.785   7.634
14358TIP3    H143017   3.160   6.876   7.615
14358TIP3    H243018   3.110   6.736   7.606
14359TIP3   OH243019   3.197   6.767   8.007
14359TIP3    H143020   3.222   6.755   8.101
14359TIP3    H243021   3.147   6.686   7.989
14360TIP3   OH243022   3.433   7.086   7.699
14360TIP3    H143023   3.415   7.020   7.767
14360TIP3    H243024   3.469   7.160   7.750
14361TIP3   OH243025   2.173   6.274   7.898
14361TIP3    H143026   2.154   6.367   7.919
14361TIP3    H243027   2.097   6.249   7.848
14362TIP3   OH243028   2.242   6.569   8.035
14362TIP3    H143029   2.278   6.571   8.124
14362TIP3    H243030   2.287   6.647   7.999
14363TIP3   OH243031   3.088   7.530   7.725
14363TIP3    H143032   3.132   7.472   7.659
14363TIP3    H243033   3.114   7.485   7.807
14364TIP3   OH243034   3.019   6.977   8.040
14364TIP3    H143035   3.065   6.901   7.999
14364TIP3    H243036   3.098   7.026   8.073
14365TIP3   OH243037   3.998   6.329   8.065
14365TIP3    H143038   4.027   6.411   8.110
14365TIP3    H243039   4.023   6.348   7.973
14366TIP3   OH243040   3.391   6.514   8.101
14366TIP3    H143041   3.441   6.431   8.120
14366TIP3    H243042   3.365   6.498   8.009
14367TIP3   OH243043   2.703   6.154   8.083
14367TIP3    H143044   2.700   6.244   8.044
14367TIP3    H243045   2.722   6.101   8.004
14368TIP3   OH243046   3.432   6.265   7.683
14368TIP3    H143047   3.503   6.250   7.750
14368TIP3    H243048   3.486   6.298   7.609
14369TIP3   OH243049   2.812   6.561   7.947
14369TIP3    H143050   2.905   6.548   7.974
14369TIP3    H243051   2.782   6.470   7.932
14370TIP3   OH243052   4.071   6.534   8.241
14370TIP3    H143053   3.988   6.585   8.223
14370TIP3    H243054   4.106   6.581   8.319
14371TIP3   OH243055   2.734   6.170   8.473
14371TIP3    H143056   2.674   6.231   8.428
14371TIP3    H243057   2.714   6.185   8.566
14372TIP3   OH243058   3.079   7.005   7.502
14372TIP3    H143059   3.036   6.988   7.418
14372TIP3    H243060   3.035   7.088   7.529
14373TIP3   OH243061   3.636   6.270   7.862
14373TIP3    H143062   3.632   6.222   7.945
14373TIP3    H243063   3.690   6.348   7.886
14374TIP3   OH243064   2.055   6.810   7.626
14374TIP3    H143065   2.032   6.843   7.537
14374TIP3    H243066   2.113   6.879   7.663
14375TIP3   OH243067   3.521   7.322   7.850
14375TIP3    H143068   3.434   7.306   7.893
14375TIP3    H243069   3.504   7.409   7.809
14376TIP3   OH243070   3.791   6.226   8.228
14376TIP3    H143071   3.706   6.258   8.194
14376TIP3    H243072   3.855   6.260   8.162
14377TIP3   OH243073   3.084   5.867   8.209
14377TIP3    H143074   3.074   5.772   8.232
14377TIP3    H243075   3.008   5.905   8.258
14378TIP3   OH243076   3.206   7.376   7.531
14378TIP3    H143077   3.254   7.292   7.514
14378TIP3    H243078   3.270   7.440   7.493
14379TIP3   OH243079   3.348   7.158   7.447
14379TIP3    H143080   3.308   7.078   7.411
14379TIP3    H243081   3.385   7.124   7.532
14380TIP3   OH243082   3.724   7.251   8.164
14380TIP3    H143083   3.717   7.156   8.138
14380TIP3    H243084   3.744   7.293   8.079
14381TIP3   OH243085   3.017   6.634   7.468
14381TIP3    H143086   2.939   6.689   7.446
14381TIP3    H243087   3.066   6.633   7.384
14382TIP3   OH243088   2.976   6.423   7.182
14382TIP3    H143089   3.042   6.476   7.230
14382TIP3    H243090   3.035   6.361   7.134
14383TIP3   OH243091   3.928   6.876   8.054
14383TIP3    H143092   3.843   6.925   8.062
14383TIP3    H243093   3.954   6.903   7.963
14384TIP3   OH243094   3.366   6.719   7.437
14384TIP3    H143095   3.312   6.743   7.516
14384TIP3    H243096   3.451   6.695   7.480
14385TIP3   OH243097   3.592   6.729   8.334
14385TIP3    H143098   3.608   6.807   8.392
14385TIP3    H243099   3.515   6.760   8.284
14386TIP3   OH243100   2.604   6.712   7.860
14386TIP3    H143101   2.566   6.657   7.789
14386TIP3    H243102   2.683   6.660   7.888
14387TIP3   OH243103   2.770   7.080   8.042
14387TIP3    H143104   2.723   7.029   7.975
14387TIP3    H243105   2.863   7.049   8.029
14388TIP3   OH243106   3.277   7.289   7.961
14388TIP3    H143107   3.275   7.351   8.036
14388TIP3    H243108   3.256   7.204   8.004
14389TIP3   OH243109   3.203   6.580   7.265
14389TIP3    H143110   3.263   6.639   7.315
14389TIP3    H243111   3.230   6.600   7.172
14390TIP3   OH243112   2.954   7.249   7.533
14390TIP3    H143113   3.031   7.304   7.555
14390TIP3    H243114   2.886   7.315   7.512
14391TIP3   OH243115   3.722   5.817   7.315
14391TIP3    H143116   3.641   5.840   7.364
14391TIP3    H243117   3.737   5.899   7.264
14392TIP3   OH243118   2.469   6.551   7.658
14392TIP3    H143119   2.409   6.608   7.606
14392TIP3    H243120   2.414   6.472   7.666
14393TIP3   OH243121   3.522   7.184   6.864
14393TIP3    H143122   3.531   7.280   6.848
14393TIP3    H243123   3.615   7.154   6.851
14394TIP3   OH243124   2.842   7.505   7.329
14394TIP3    H143125   2.796   7.471   7.250
14394TIP3    H243126   2.787   7.580   7.355
14395TIP3   OH243127   3.030   7.402   6.983
14395TIP3    H143128   3.088   7.332   6.946
14395TIP3    H243129   3.068   7.412   7.073
14396TIP3   OH243130   3.092   7.445   7.252
14396TIP3    H143131   3.004   7.458   7.292
14396TIP3    H243132   3.140   7.404   7.326
14397TIP3   OH243133   3.872   6.716   8.524
14397TIP3    H143134   3.785   6.746   8.497
14397TIP3    H243135   3.870   6.620   8.504
14398TIP3   OH243136   2.844   5.947   8.335
14398TIP3    H143137   2.754   5.923   8.306
14398TIP3    H243138   2.825   6.034   8.375
14399TIP3   OH243139   3.386   6.073   8.529
14399TIP3    H143140   3.460   6.032   8.581
14399TIP3    H243141   3.306   6.042   8.577
14400TIP3   OH243142   3.612   6.485   8.460
14400TIP3    H143143   3.574   6.505   8.547
14400TIP3    H243144   3.601   6.570   8.412
14401TIP3   OH243145   3.281   6.622   7.010
14401TIP3    H143146   3.247   6.599   6.922
14401TIP3    H243147   3.366   6.664   6.987
14402TIP3   OH243148   2.991   5.999   7.314
14402TIP3    H143149   2.957   5.994   7.405
14402TIP3    H243150   2.955   5.915   7.278
14403TIP3   OH243151   2.664   6.332   7.883
14403TIP3    H143152   2.580   6.378   7.871
14403TIP3    H243153   2.681   6.299   7.792
14404TIP3   OH243154   3.153   6.434   7.602
14404TIP3    H143155   3.104   6.507   7.559
14404TIP3    H243156   3.211   6.403   7.530
14405TIP3   OH243157   3.309   6.462   7.842
14405TIP3    H143158   3.250   6.494   7.771
14405TIP3    H243159   3.346   6.384   7.797
14406TIP3   OH243160   2.648   5.971   7.279
14406TIP3    H143161   2.639   5.971   7.376
14406TIP3    H243162   2.571   6.025   7.253
14407TIP3   OH243163   2.172   5.998   7.675
14407TIP3    H143164   2.209   6.031   7.590
14407TIP3    H243165   2.120   6.075   7.700
14408TIP3   OH243166   3.299   6.711   8.261
14408TIP3    H143167   3.343   6.645   8.202
14408TIP3    H243168   3.279   6.653   8.338
14409TIP3   OH243169   2.993   6.173   7.938
14409TIP3    H143170   2.923   6.178   8.004
14409TIP3    H243171   3.073   6.165   7.993
14410TIP3   OH243172   2.399   6.140   7.999
14410TIP3    H143173   2.306   6.195   7.988
14410TIP3    H243174   2.418   6.134   7.911
14411TIP3   OH243175   2.690   6.223   7.634
14411TIP3    H143176   2.785   6.239   7.616
14411TIP3    H243177   2.647   6.248   7.549
14412TIP3   OH243178   3.484   6.253   8.141
14412TIP3    H143179   3.447   6.265   8.231
14412TIP3    H243180   3.421   6.190   8.102
14413TIP3   OH243181   2.540   6.257   7.406
14413TIP3    H143182   2.474   6.212   7.351
14413TIP3    H243183   2.595   6.300   7.336
14414TIP3   OH243184   3.075   6.499   8.029
14414TIP3    H143185   3.151   6.468   7.977
14414TIP3    H243186   3.091   6.458   8.116
14415TIP3   OH243187   2.605   5.973   7.914
14415TIP3    H143188   2.570   5.883   7.930
14415TIP3    H243189   2.650   5.959   7.826
14416TIP3   OH243190   3.045   6.408   8.332
14416TIP3    H143191   2.982   6.481   8.332
14416TIP3    H243192   3.122   6.451   8.376
14417TIP3   OH243193   2.789   6.785   7.410
14417TIP3    H143194   2.713   6.723   7.401
14417TIP3    H243195   2.778   6.814   7.504
14418TIP3   OH243196   3.691   7.011   8.037
14418TIP3    H143197   3.710   7.064   7.958
14418TIP3    H243198   3.602   6.974   8.017
14419TIP3   OH243199   3.245   6.098   7.287
14419TIP3    H143200   3.148   6.082   7.292
14419TIP3    H243201   3.254   6.193   7.307
14420TIP3   OH243202   3.314   6.351   7.385
14420TIP3    H143203   3.411   6.355   7.400
14420TIP3    H243204   3.297   6.431   7.332
14421TIP3   OH243205   2.450   6.752   8.082
14421TIP3    H143206   2.511   6.748   8.006
14421TIP3    H243207   2.496   6.702   8.150
14422TIP3   OH243208   2.934   6.938   7.238
14422TIP3    H143209   2.885   7.023   7.243
14422TIP3    H243210   2.880   6.882   7.298
14423TIP3   OH243211   3.753   6.443   7.220
14423TIP3    H143212   3.691   6.399   7.157
14423TIP3    H243213   3.751   6.532   7.180
14424TIP3   OH243214   3.978   7.249   8.276
14424TIP3    H143215   3.887   7.261   8.243
14424TIP3    H243216   4.026   7.234   8.192
14425TIP3   OH243217   3.457   7.260   7.128
14425TIP3    H143218   3.432   7.190   7.191
14425TIP3    H243219   3.471   7.211   7.045
14426TIP3   OH243220   3.450   6.888   7.959
14426TIP3    H143221   3.357   6.861   7.970
14426TIP3    H243222   3.486   6.808   7.915
14427TIP3   OH243223   2.574   7.064   7.668
14427TIP3    H143224   2.616   7.139   7.714
14427TIP3    H243225   2.489   7.059   7.713
14428TIP3   OH243226   2.145   6.424   7.414
14428TIP3    H143227   2.193   6.507   7.438
14428TIP3    H243228   2.071   6.426   7.478
14429TIP3   OH243229   2.739   6.853   7.662
14429TIP3    H143230   2.687   6.936   7.659
14429TIP3    H243231   2.704   6.813   7.744
14430TIP3   OH243232   3.259   7.076   8.131
14430TIP3    H143233   3.264   7.136   8.208
14430TIP3    H243234   3.344   7.030   8.137
14431TIP3   OH243235   3.215   6.990   7.031
14431TIP3    H143236   3.271   6.964   7.108
14431TIP3    H243237   3.128   6.960   7.061
14432TIP3   OH243238   3.555   7.459   6.845
14432TIP3    H143239   3.592   7.533   6.796
14432TIP3    H243240   3.474   7.503   6.879
14433TIP3   OH243241   3.376   6.919   7.243
14433TIP3    H143242   3.366   6.853   7.314
14433TIP3    H243243   3.474   6.916   7.231
14434TIP3   OH243244   2.574   6.970   7.031
14434TIP3    H143245   2.591   6.878   7.003
14434TIP3    H243246   2.559   6.959   7.127
14435TIP3   OH243247   2.521   6.976   7.305
14435TIP3    H143248   2.590   6.948   7.366
14435TIP3    H243249   2.525   7.074   7.315
14436TIP3   OH243250   2.261   6.662   7.506
14436TIP3    H143251   2.195   6.707   7.563
14436TIP3    H243252   2.277   6.731   7.439
14437TIP3   OH243253   3.406   6.311   8.399
14437TIP3    H143254   3.493   6.348   8.424
14437TIP3    H243255   3.400   6.228   8.452
14438TIP3   OH243256   3.289   6.051   7.566
14438TIP3    H143257   3.278   6.072   7.471
14438TIP3    H243258   3.331   6.133   7.600
14439TIP3   OH243259   2.788   7.164   7.246
14439TIP3    H143260   2.703   7.192   7.286
14439TIP3    H243261   2.805   7.238   7.186
14440TIP3   OH243262   2.970   6.236   7.666
14440TIP3    H143263   3.036   6.306   7.645
14440TIP3    H243264   2.983   6.227   7.763
14441TIP3   OH243265   3.240   6.546   8.470
14441TIP3    H143266   3.264   6.614   8.535
14441TIP3    H243267   3.309   6.478   8.480
14442TIP3   OH243268   3.120   5.953   7.762
14442TIP3    H143269   3.121   6.027   7.825
14442TIP3    H243270   3.182   5.987   7.694
14443TIP3   OH243271   2.535   7.252   7.319
14443TIP3    H143272   2.505   7.317   7.253
14443TIP3    H243273   2.534   7.306   7.400
14444TIP3   OH243274   2.634   5.959   7.558
14444TIP3    H143275   2.637   6.053   7.587
14444TIP3    H243276   2.729   5.938   7.562
14445TIP3   OH243277   3.883   6.445   8.459
14445TIP3    H143278   3.785   6.437   8.455
14445TIP3    H243279   3.908   6.417   8.370
14446TIP3   OH243280   3.539   6.645   7.840
14446TIP3    H143281   3.464   6.585   7.853
14446TIP3    H243282   3.611   6.599   7.888
14447TIP3   OH243283   2.260   6.872   7.311
14447TIP3    H143284   2.335   6.935   7.320
14447TIP3    H243285   2.299   6.814   7.242
14448TIP3   OH243286   2.186   6.153   7.451
14448TIP3    H143287   2.198   6.250   7.448
14448TIP3    H243288   2.147   6.138   7.364
14449TIP3   OH243289   3.514   7.582   7.768
14449TIP3    H143290   3.462   7.647   7.717
14449TIP3    H243291   3.602   7.623   7.763
14450TIP3   OH243292   2.573   5.895   8.290
14450TIP3    H143293   2.539   5.833   8.223
14450TIP3    H243294   2.560   5.839   8.370
14451TIP3   OH243295   2.742   7.169   6.939
14451TIP3    H143296   2.687   7.097   6.978
14451TIP3    H243297   2.818   7.118   6.906
14452TIP3   OH243298   3.177   7.208   6.853
14452TIP3    H143299   3.218   7.144   6.915
14452TIP3    H243300   3.236   7.204   6.776
14453TIP3   OH243301   2.390   6.684   7.167
14453TIP3    H143302   2.449   6.655   7.239
14453TIP3    H243303   2.454   6.689   7.093
14454TIP3   OH243304   2.898   6.886   6.970
14454TIP3    H143305   2.903   6.897   7.067
14454TIP3    H243306   2.901   6.788   6.964
14455TIP3   OH243307   3.506   7.093   8.297
14455TIP3    H143308   3.583   7.148   8.274
14455TIP3    H243309   3.452   7.156   8.348
14456TIP3   OH243310   2.587   6.594   7.380
14456TIP3    H143311   2.568   6.553   7.466
14456TIP3    H243312   2.630   6.520   7.331
14457TIP3   OH243313   2.698   6.388   7.226
14457TIP3    H143314   2.674   6.394   7.131
14457TIP3    H243315   2.796   6.389   7.219
14458TIP3   OH243316   3.514   6.715   6.891
14458TIP3    H143317   3.496   6.670   6.806
14458TIP3    H243318   3.481   6.805   6.869
14459TIP3   OH243319   2.932   6.429   8.694
14459TIP3    H143320   2.971   6.341   8.682
14459TIP3    H243321   2.996   6.486   8.650
14460TIP3   OH243322   3.002   6.205   8.524
14460TIP3    H143323   3.029   6.265   8.452
14460TIP3    H243324   2.907   6.195   8.505
14461TIP3   OH243325   3.012   6.757   8.382
14461TIP3    H143326   3.105   6.760   8.356
14461TIP3    H243327   2.983   6.847   8.366
14462TIP3   OH243328   3.645   6.934   8.496
14462TIP3    H143329   3.599   7.011   8.461
14462TIP3    H243330   3.738   6.966   8.488
14463TIP3   OH243331   3.141   5.982   8.611
14463TIP3    H143332   3.092   6.065   8.593
14463TIP3    H243333   3.069   5.917   8.612
14464TIP3   OH243334   3.495   6.449   8.718
14464TIP3    H143335   3.414   6.422   8.765
14464TIP3    H243336   3.553   6.373   8.736
14465TIP3   OH243337   2.510   7.463   7.139
14465TIP3    H143338   2.603   7.445   7.115
14465TIP3    H243339   2.479   7.504   7.056
14466TIP3   OH243340   1.997   6.823   7.349
14466TIP3    H143341   2.090   6.846   7.328
14466TIP3    H243342   1.986   6.739   7.300
14467TIP3   OH243343   3.743   7.734   7.751
14467TIP3    H143344   3.810   7.766   7.816
14467TIP3    H243345   3.800   7.722   7.674
14468TIP3   OH243346   3.654   6.902   7.222
14468TIP3    H143347   3.721   6.966   7.191
14468TIP3    H243348   3.698   6.864   7.301
14469TIP3   OH243349   3.781   6.770   7.426
14469TIP3    H143350   3.716   6.728   7.485
14469TIP3    H243351   3.849   6.804   7.488
14470TIP3   OH243352   3.835   7.162   7.854
14470TIP3    H143353   3.886   7.094   7.807
14470TIP3    H243354   3.819   7.229   7.785
14471TIP3   OH243355   3.736   7.466   7.964
14471TIP3    H143356   3.699   7.553   7.981
14471TIP3    H243357   3.663   7.421   7.918
14472TIP3   OH243358   3.719   6.678   7.071
14472TIP3    H143359   3.647   6.679   7.004
14472TIP3    H243360   3.690   6.754   7.127
14473TIP3   OH243361   3.587   6.352   7.026
14473TIP3    H143362   3.547   6.384   6.945
14473TIP3    H243363   3.565   6.256   7.020
14474TIP3   OH243364   3.593   6.628   7.571
14474TIP3    H143365   3.603   6.532   7.563
14474TIP3    H243366   3.579   6.641   7.667
14475TIP3   OH243367   3.883   7.011   8.379
14475TIP3    H143368   3.960   6.968   8.421
14475TIP3    H243369   3.918   7.098   8.356
14476TIP3   OH243370   4.094   6.863   8.476
14476TIP3    H143371   4.013   6.817   8.508
14476TIP3    H243372   4.153   6.786   8.468
14477TIP3   OH243373   3.532   6.086   7.012
14477TIP3    H143374   3.608   6.053   7.064
14477TIP3    H243375   3.461   6.023   7.031
14478TIP3   OH243376   3.591   6.343   7.463
14478TIP3    H143377   3.632   6.255   7.478
14478TIP3    H243378   3.650   6.376   7.392
14479TIP3   OH243379   3.750   6.514   7.961
14479TIP3    H143380   3.836   6.538   7.918
14479TIP3    H243381   3.767   6.553   8.049
14480TIP3   OH243382   3.825   6.657   8.190
14480TIP3    H143383   3.746   6.689   8.238
14480TIP3    H243384   3.859   6.740   8.149
14481TIP3   OH243385   3.699   6.094   7.504
14481TIP3    H143386   3.749   6.077   7.587
14481TIP3    H243387   3.640   6.016   7.503
14482TIP3   OH243388   2.236   6.317   8.369
14482TIP3    H143389   2.243   6.341   8.275
14482TIP3    H243390   2.316   6.364   8.401
14483TIP3   OH243391   4.128   6.392   8.568
14483TIP3    H143392   4.037   6.419   8.547
14483TIP3    H243393   4.135   6.309   8.518
14484TIP3   OH243394   3.778   6.025   7.137
14484TIP3    H143395   3.818   5.954   7.082
14484TIP3    H243396   3.846   6.095   7.134
14485TIP3   OH243397   2.180   5.862   7.910
14485TIP3    H143398   2.084   5.852   7.922
14485TIP3    H243399   2.184   5.922   7.832
14486TIP3   OH243400   3.357   7.561   7.403
14486TIP3    H143401   3.396   7.545   7.315
14486TIP3    H243402   3.420   7.623   7.440
14487TIP3   OH243403   4.043   6.152   8.425
14487TIP3    H143404   3.953   6.144   8.389
14487TIP3    H243405   4.076   6.059   8.415
14488TIP3   OH243406   3.240   6.065   8.045
14488TIP3    H143407   3.206   5.993   8.101
14488TIP3    H243408   3.321   6.025   8.006
14489TIP3   OH243409   3.767   5.949   7.957
14489TIP3    H143410   3.805   6.000   7.881
14489TIP3    H243411   3.672   5.970   7.949
14490TIP3   OH243412   3.864   6.048   7.721
14490TIP3    H143413   3.937   5.995   7.683
14490TIP3    H243414   3.899   6.138   7.706
14491TIP3   OH243415   2.485   5.781   8.060
14491TIP3    H143416   2.394   5.745   8.066
14491TIP3    H243417   2.535   5.695   8.062
14492TIP3   OH243418   2.287   5.648   7.717
14492TIP3    H143419   2.317   5.701   7.641
14492TIP3    H243420   2.258   5.715   7.781
14493TIP3   OH243421   2.936   5.817   7.954
14493TIP3    H143422   2.993   5.856   7.886
14493TIP3    H243423   2.981   5.843   8.036
14494TIP3   OH243424   3.479   5.957   7.933
14494TIP3    H143425   3.490   5.916   7.846
14494TIP3    H243426   3.470   5.877   7.990
14495TIP3   OH243427   3.517   5.881   7.496
14495TIP3    H143428   3.430   5.922   7.510
14495TIP3    H243429   3.504   5.794   7.541
14496TIP3   OH243430   2.401   5.806   7.477
14496TIP3    H143431   2.448   5.742   7.419
14496TIP3    H243432   2.477   5.858   7.511
14497TIP3   OH243433   2.909   5.984   7.579
14497TIP3    H143434   2.973   5.937   7.635
14497TIP3    H243435   2.933   6.076   7.603
14498TIP3   OH243436   2.771   7.403   7.076
14498TIP3    H143437   2.860   7.424   7.041
14498TIP3    H243438   2.749   7.328   7.016
14499TIP3   OH243439   3.492   7.526   7.168
14499TIP3    H143440   3.484   7.428   7.158
14499TIP3    H243441   3.447   7.556   7.086
14500TIP3   OH243442   2.084   7.240   7.127
14500TIP3    H143443   2.075   7.246   7.222
14500TIP3    H243444   2.172   7.197   7.115
14501TIP3   OH243445   4.983   7.042   7.122
14501TIP3    H143446   4.952   7.133   7.101
14501TIP3    H243447   4.908   6.990   7.088
14502TIP3   OH243448   4.958   7.036   7.513
14502TIP3    H143449   5.001   7.010   7.597
14502TIP3    H243450   4.923   6.950   7.483
14503TIP3   OH243451   4.277   6.935   7.871
14503TIP3    H143452   4.306   6.864   7.932
14503TIP3    H243453   4.356   6.992   7.873
14504TIP3   OH243454   5.231   7.335   7.194
14504TIP3    H143455   5.215   7.255   7.248
14504TIP3    H243456   5.239   7.400   7.264
14505TIP3   OH243457   4.248   7.346   7.592
14505TIP3    H143458   4.240   7.248   7.588
14505TIP3    H243459   4.340   7.353   7.621
14506TIP3   OH243460   3.960   6.546   7.375
14506TIP3    H143461   3.914   6.630   7.394
14506TIP3    H243462   3.889   6.495   7.333
14507TIP3   OH243463   4.018   6.835   7.554
14507TIP3    H143464   4.067   6.757   7.589
14507TIP3    H243465   4.081   6.872   7.492
14508TIP3   OH243466   4.852   7.800   7.197
14508TIP3    H143467   4.894   7.727   7.147
14508TIP3    H243468   4.898   7.790   7.283
14509TIP3   OH243469   4.777   7.270   7.545
14509TIP3    H143470   4.814   7.185   7.512
14509TIP3    H243471   4.860   7.317   7.563
14510TIP3   OH243472   5.730   6.559   7.496
14510TIP3    H143473   5.805   6.583   7.554
14510TIP3    H243474   5.769   6.574   7.409
14511TIP3   OH243475   5.191   6.770   7.583
14511TIP3    H143476   5.239   6.688   7.604
14511TIP3    H243477   5.162   6.751   7.492
14512TIP3   OH243478   4.535   6.428   7.549
14512TIP3    H143479   4.515   6.501   7.487
14512TIP3    H243480   4.486   6.355   7.506
14513TIP3   OH243481   5.230   6.521   7.172
14513TIP3    H143482   5.300   6.507   7.239
14513TIP3    H243483   5.283   6.556   7.098
14514TIP3   OH243484   4.165   6.630   7.657
14514TIP3    H143485   4.248   6.612   7.706
14514TIP3    H243486   4.181   6.574   7.578
14515TIP3   OH243487   4.607   6.828   7.451
14515TIP3    H143488   4.701   6.802   7.463
14515TIP3    H243489   4.568   6.743   7.419
14516TIP3   OH243490   4.528   6.412   7.985
14516TIP3    H143491   4.469   6.450   7.917
14516TIP3    H243492   4.476   6.430   8.066
14517TIP3   OH243493   4.871   7.263   6.993
14517TIP3    H143494   4.833   7.246   6.906
14517TIP3    H243495   4.826   7.347   7.017
14518TIP3   OH243496   4.636   7.186   7.776
14518TIP3    H143497   4.572   7.249   7.818
14518TIP3    H243498   4.675   7.242   7.707
14519TIP3   OH243499   5.435   6.523   7.348
14519TIP3    H143500   5.425   6.477   7.432
14519TIP3    H243501   5.498   6.593   7.372
14520TIP3   OH243502   4.399   6.526   7.768
14520TIP3    H143503   4.459   6.600   7.793
14520TIP3    H243504   4.450   6.487   7.694
14521TIP3   OH243505   4.441   7.366   7.853
14521TIP3    H143506   4.453   7.463   7.857
14521TIP3    H243507   4.375   7.356   7.925
14522TIP3   OH243508   3.855   7.073   7.113
14522TIP3    H143509   3.816   7.101   7.028
14522TIP3    H243510   3.889   7.158   7.148
14523TIP3   OH243511   5.561   6.468   7.700
14523TIP3    H143512   5.473   6.495   7.670
14523TIP3    H243513   5.619   6.503   7.629
14524TIP3   OH243514   4.882   6.127   7.701
14524TIP3    H143515   4.865   6.033   7.718
14524TIP3    H243516   4.805   6.167   7.747
14525TIP3   OH243517   4.996   7.631   7.037
14525TIP3    H143518   5.044   7.547   7.016
14525TIP3    H243519   5.054   7.692   6.987
14526TIP3   OH243520   5.141   7.419   6.945
14526TIP3    H143521   5.109   7.342   6.896
14526TIP3    H243522   5.175   7.377   7.027
14527TIP3   OH243523   4.814   6.894   6.956
14527TIP3    H143524   4.734   6.946   6.933
14527TIP3    H243525   4.860   6.890   6.870
14528TIP3   OH243526   4.772   6.681   6.668
14528TIP3    H143527   4.839   6.732   6.716
14528TIP3    H243528   4.829   6.618   6.621
14529TIP3   OH243529   5.162   6.978   6.924
14529TIP3    H143530   5.109   7.000   7.004
14529TIP3    H243531   5.247   6.952   6.966
14530TIP3   OH243532   4.395   6.973   7.344
14530TIP3    H143533   4.354   6.915   7.277
14530TIP3    H243534   4.472   6.920   7.374
14531TIP3   OH243535   4.534   7.406   7.489
14531TIP3    H143536   4.500   7.361   7.410
14531TIP3    H243537   4.617   7.357   7.506
14532TIP3   OH243538   4.527   6.945   7.695
14532TIP3    H143539   4.564   6.921   7.607
14532TIP3    H243540   4.573   7.030   7.716
14533TIP3   OH243541   4.999   6.837   6.752
14533TIP3    H143542   5.060   6.896   6.803
14533TIP3    H243543   5.027   6.857   6.660
14534TIP3   OH243544   4.421   7.056   8.120
14534TIP3    H143545   4.421   7.144   8.161
14534TIP3    H243546   4.328   7.029   8.136
14535TIP3   OH243547   4.743   7.510   7.024
14535TIP3    H143548   4.819   7.565   7.048
14535TIP3    H243549   4.682   7.574   6.985
14536TIP3   OH243550   5.518   6.073   6.802
14536TIP3    H143551   5.436   6.095   6.851
14536TIP3    H243552   5.533   6.156   6.751
14537TIP3   OH243553   4.261   6.817   7.147
14537TIP3    H143554   4.192   6.859   7.092
14537TIP3    H243555   4.226   6.728   7.160
14538TIP3   OH243556   5.317   7.440   6.353
14538TIP3    H143557   5.326   7.536   6.335
14538TIP3    H243558   5.409   7.410   6.338
14539TIP3   OH243559   4.065   7.191   8.023
14539TIP3    H143560   3.991   7.168   7.963
14539TIP3    H243561   4.099   7.103   8.049
14540TIP3   OH243562   3.891   7.401   7.679
14540TIP3    H143563   3.986   7.383   7.677
14540TIP3    H243564   3.879   7.446   7.764
14541TIP3   OH243565   4.625   7.755   6.832
14541TIP3    H143566   4.581   7.740   6.746
14541TIP3    H243567   4.596   7.845   6.856
14542TIP3   OH243568   4.063   7.605   7.215
14542TIP3    H143569   4.110   7.597   7.302
14542TIP3    H243570   4.016   7.519   7.213
14543TIP3   OH243571   4.826   7.661   6.466
14543TIP3    H143572   4.886   7.590   6.431
14543TIP3    H243573   4.860   7.670   6.558
14544TIP3   OH243574   4.877   7.710   6.734
14544TIP3    H143575   4.791   7.717   6.781
14544TIP3    H243576   4.933   7.671   6.803
14545TIP3   OH243577   4.247   7.392   8.044
14545TIP3    H143578   4.288   7.373   8.130
14545TIP3    H243579   4.179   7.322   8.039
14546TIP3   OH243580   4.645   6.206   7.831
14546TIP3    H143581   4.557   6.176   7.801
14546TIP3    H243582   4.619   6.287   7.878
14547TIP3   OH243583   5.175   6.321   8.027
14547TIP3    H143584   5.236   6.288   8.095
14547TIP3    H243585   5.087   6.306   8.069
14548TIP3   OH243586   5.078   6.879   6.498
14548TIP3    H143587   5.043   6.856   6.410
14548TIP3    H243588   5.163   6.921   6.473
14549TIP3   OH243589   4.789   6.254   6.801
14549TIP3    H143590   4.754   6.250   6.892
14549TIP3    H243591   4.750   6.172   6.764
14550TIP3   OH243592   4.574   6.722   7.844
14550TIP3    H143593   4.535   6.749   7.929
14550TIP3    H243594   4.560   6.804   7.791
14551TIP3   OH243595   4.461   6.609   7.361
14551TIP3    H143596   4.368   6.582   7.380
14551TIP3    H243597   4.473   6.568   7.272
14552TIP3   OH243598   4.951   6.693   7.089
14552TIP3    H143599   4.901   6.765   7.045
14552TIP3    H243600   5.007   6.660   7.016
14553TIP3   OH243601   5.102   6.717   7.328
14553TIP3    H143602   5.042   6.745   7.256
14553TIP3    H243603   5.141   6.639   7.284
14554TIP3   OH243604   4.390   6.750   8.055
14554TIP3    H143605   4.437   6.812   8.113
14554TIP3    H243606   4.385   6.669   8.110
14555TIP3   OH243607   4.446   6.230   6.765
14555TIP3    H143608   4.437   6.228   6.862
14555TIP3    H243609   4.368   6.282   6.740
14556TIP3   OH243610   3.989   6.270   7.638
14556TIP3    H143611   4.064   6.304   7.692
14556TIP3    H243612   4.032   6.242   7.556
14557TIP3   OH243613   3.955   6.252   7.156
14557TIP3    H143614   4.002   6.288   7.078
14557TIP3    H243615   3.895   6.326   7.175
14558TIP3   OH243616   5.087   6.961   7.747
14558TIP3    H143617   5.136   6.896   7.691
14558TIP3    H243618   5.064   6.903   7.823
14559TIP3   OH243619   4.792   6.428   7.421
14559TIP3    H143620   4.711   6.428   7.476
14559TIP3    H243621   4.862   6.426   7.489
14560TIP3   OH243622   4.223   6.487   7.429
14560TIP3    H143623   4.128   6.494   7.400
14560TIP3    H243624   4.246   6.395   7.406
14561TIP3   OH243625   4.488   6.481   7.120
14561TIP3    H143626   4.582   6.496   7.099
14561TIP3    H243627   4.442   6.503   7.035
14562TIP3   OH243628   5.279   6.506   7.624
14562TIP3    H143629   5.246   6.521   7.716
14562TIP3    H243630   5.210   6.447   7.589
14563TIP3   OH243631   4.336   6.518   6.895
14563TIP3    H143632   4.266   6.472   6.846
14563TIP3    H243633   4.389   6.555   6.821
14564TIP3   OH243634   4.388   7.300   8.273
14564TIP3    H143635   4.477   7.318   8.306
14564TIP3    H243636   4.352   7.244   8.344
14565TIP3   OH243637   4.870   6.758   7.517
14565TIP3    H143638   4.946   6.720   7.469
14565TIP3    H243639   4.876   6.713   7.604
14566TIP3   OH243640   4.390   6.246   7.401
14566TIP3    H143641   4.355   6.169   7.450
14566TIP3    H243642   4.438   6.204   7.329
14567TIP3   OH243643   4.842   6.654   7.804
14567TIP3    H143644   4.753   6.692   7.820
14567TIP3    H243645   4.900   6.714   7.856
14568TIP3   OH243646   4.582   7.046   6.902
14568TIP3    H143647   4.510   6.980   6.891
14568TIP3    H243648   4.563   7.080   6.993
14569TIP3   OH243649   5.042   6.355   6.773
14569TIP3    H143650   4.945   6.336   6.779
14569TIP3    H243651   5.048   6.450   6.795
14570TIP3   OH243652   5.110   6.607   6.873
14570TIP3    H143653   5.206   6.612   6.888
14570TIP3    H243654   5.093   6.687   6.820
14571TIP3   OH243655   4.274   7.068   7.578
14571TIP3    H143656   4.316   7.039   7.494
14571TIP3    H243657   4.321   7.014   7.643
14572TIP3   OH243658   4.729   7.195   6.726
14572TIP3    H143659   4.681   7.280   6.730
14572TIP3    H243660   4.675   7.140   6.787
14573TIP3   OH243661   4.160   6.984   8.189
14573TIP3    H143662   4.164   6.981   8.286
14573TIP3    H243663   4.082   6.929   8.170
14574TIP3   OH243664   5.551   6.699   6.707
14574TIP3    H143665   5.489   6.655   6.644
14574TIP3    H243666   5.549   6.789   6.666
14575TIP3   OH243667   5.255   7.527   6.614
14575TIP3    H143668   5.233   7.457   6.677
14575TIP3    H243669   5.268   7.478   6.531
14576TIP3   OH243670   5.189   7.170   7.420
14576TIP3    H143671   5.113   7.110   7.425
14576TIP3    H243672   5.264   7.108   7.413
14577TIP3   OH243673   4.379   7.375   7.208
14577TIP3    H143674   4.377   7.455   7.153
14577TIP3    H243675   4.285   7.354   7.215
14578TIP3   OH243676   3.943   6.676   6.910
14578TIP3    H143677   3.988   6.760   6.932
14578TIP3    H243678   3.866   6.680   6.971
14579TIP3   OH243679   4.510   7.137   7.145
14579TIP3    H143680   4.479   7.227   7.168
14579TIP3    H243681   4.478   7.085   7.222
14580TIP3   OH243682   4.294   7.613   7.055
14580TIP3    H143683   4.209   7.621   7.103
14580TIP3    H243684   4.326   7.706   7.059
14581TIP3   OH243685   5.044   7.328   7.632
14581TIP3    H143686   5.039   7.261   7.700
14581TIP3    H243687   5.099   7.284   7.564
14582TIP3   OH243688   5.012   7.247   6.518
14582TIP3    H143689   5.067   7.222   6.596
14582TIP3    H243690   4.925   7.215   6.546
14583TIP3   OH243691   5.345   7.715   6.332
14583TIP3    H143692   5.385   7.790   6.284
14583TIP3    H243693   5.261   7.758   6.360
14584TIP3   OH243694   4.370   6.490   8.201
14584TIP3    H143695   4.274   6.493   8.216
14584TIP3    H243696   4.398   6.432   8.274
14585TIP3   OH243697   5.172   7.181   6.734
14585TIP3    H143698   5.161   7.113   6.803
14585TIP3    H243699   5.269   7.175   6.720
14586TIP3   OH243700   4.114   7.594   7.858
14586TIP3    H143701   4.126   7.498   7.850
14586TIP3    H243702   4.180   7.610   7.927
14587TIP3   OH243703   4.372   7.224   6.516
14587TIP3    H143704   4.388   7.132   6.489
14587TIP3    H243705   4.353   7.213   6.611
14588TIP3   OH243706   4.318   7.229   6.789
14588TIP3    H143707   4.394   7.200   6.842
14588TIP3    H243708   4.323   7.327   6.797
14589TIP3   OH243709   4.053   6.920   6.992
14589TIP3    H143710   3.987   6.965   7.048
14589TIP3    H243711   4.068   6.989   6.924
14590TIP3   OH243712   5.214   6.557   7.886
14590TIP3    H143713   5.298   6.581   7.929
14590TIP3    H243714   5.190   6.476   7.935
14591TIP3   OH243715   5.088   6.307   7.053
14591TIP3    H143716   5.074   6.328   6.959
14591TIP3    H243717   5.128   6.390   7.087
14592TIP3   OH243718   4.586   7.424   6.735
14592TIP3    H143719   4.500   7.450   6.772
14592TIP3    H243720   4.603   7.499   6.677
14593TIP3   OH243721   4.771   6.491   7.152
14593TIP3    H143722   4.836   6.563   7.134
14593TIP3    H243723   4.779   6.482   7.249
14594TIP3   OH243724   5.026   6.795   7.957
14594TIP3    H143725   5.011   6.809   8.053
14594TIP3    H243726   5.098   6.731   7.960
14595TIP3   OH243727   4.916   6.211   7.251
14595TIP3    H143728   4.909   6.289   7.309
14595TIP3    H243729   4.979   6.245   7.183
14596TIP3   OH243730   4.332   7.502   6.805
14596TIP3    H143731   4.302   7.573   6.744
14596TIP3    H243732   4.316   7.544   6.892
14597TIP3   OH243733   4.430   6.216   7.042
14597TIP3    H143734   4.429   6.306   7.080
14597TIP3    H243735   4.526   6.197   7.049
14598TIP3   OH243736   5.325   6.907   7.315
14598TIP3    H143737   5.253   6.846   7.337
14598TIP3    H243738   5.400   6.871   7.368
14599TIP3   OH243739   4.050   7.127   6.795
14599TIP3    H143740   4.122   7.192   6.805
14599TIP3    H243741   4.092   7.068   6.729
14600TIP3   OH243742   3.990   6.406   6.933
14600TIP3    H143743   3.992   6.504   6.929
14600TIP3    H243744   3.913   6.385   6.879
14601TIP3   OH243745   4.380   6.126   7.801
14601TIP3    H143746   4.350   6.092   7.714
14601TIP3    H243747   4.369   6.048   7.859
14602TIP3   OH243748   3.918   7.348   7.180
14602TIP3    H143749   3.851   7.375   7.245
14602TIP3    H243750   3.884   7.389   7.098
14603TIP3   OH243751   4.538   7.426   6.426
14603TIP3    H143752   4.482   7.354   6.465
14603TIP3    H243753   4.614   7.374   6.394
14604TIP3   OH243754   4.974   7.464   6.340
14604TIP3    H143755   5.015   7.400   6.401
14604TIP3    H243756   5.032   7.460   6.262
14605TIP3   OH243757   4.184   6.941   6.651
14605TIP3    H143758   4.241   6.909   6.724
14605TIP3    H243759   4.251   6.946   6.579
14606TIP3   OH243760   4.696   7.143   6.457
14606TIP3    H143761   4.700   7.154   6.554
14606TIP3    H243762   4.699   7.045   6.450
14607TIP3   OH243763   4.367   7.048   8.444
14607TIP3    H143764   4.429   6.978   8.417
14607TIP3    H243765   4.329   7.009   8.524
14608TIP3   OH243766   4.388   6.850   6.868
14608TIP3    H143767   4.364   6.808   6.952
14608TIP3    H243768   4.428   6.774   6.819
14609TIP3   OH243769   4.650   6.896   8.087
14609TIP3    H143770   4.584   6.968   8.096
14609TIP3    H243771   4.717   6.939   8.029
14610TIP3   OH243772   4.494   6.645   6.710
14610TIP3    H143773   4.470   6.650   6.616
14610TIP3    H243774   4.592   6.646   6.704
14611TIP3   OH243775   5.311   6.972   6.378
14611TIP3    H143776   5.292   6.927   6.293
14611TIP3    H243777   5.278   7.062   6.356
14612TIP3   OH243778   4.770   6.696   8.228
14612TIP3    H143779   4.775   6.619   8.167
14612TIP3    H243780   4.727   6.764   8.170
14613TIP3   OH243781   4.788   6.486   8.031
14613TIP3    H143782   4.815   6.529   7.948
14613TIP3    H243783   4.694   6.464   8.013
14614TIP3   OH243784   4.807   7.013   7.900
14614TIP3    H143785   4.889   7.021   7.851
14614TIP3    H243786   4.750   7.083   7.861
14615TIP3   OH243787   4.631   6.828   8.436
14615TIP3    H143788   4.582   6.749   8.464
14615TIP3    H243789   4.688   6.790   8.366
14616TIP3   OH243790   4.921   6.255   8.115
14616TIP3    H143791   4.870   6.334   8.088
14616TIP3    H243792   4.855   6.184   8.100
14617TIP3   OH243793   5.042   6.756   8.237
14617TIP3    H143794   5.067   6.773   8.329
14617TIP3    H243795   4.948   6.730   8.248
14618TIP3   OH243796   4.498   6.591   8.506
14618TIP3    H143797   4.503   6.502   8.465
14618TIP3    H243798   4.541   6.575   8.591
14619TIP3   OH243799   5.005   6.248   8.386
14619TIP3    H143800   5.076   6.183   8.369
14619TIP3    H243801   4.971   6.260   8.295
14620TIP3   OH243802   4.302   7.707   6.618
14620TIP3    H143803   4.397   7.696   6.599
14620TIP3    H243804   4.275   7.757   6.538
14621TIP3   OH243805   3.780   7.087   6.831
14621TIP3    H143806   3.875   7.108   6.816
14621TIP3    H243807   3.774   6.997   6.791
14622TIP3   OH243808   3.694   7.698   7.251
14622TIP3    H143809   3.629   7.637   7.210
14622TIP3    H243810   3.739   7.638   7.315
14623TIP3   OH243811   3.827   7.545   7.438
14623TIP3    H143812   3.821   7.473   7.503
14623TIP3    H243813   3.888   7.604   7.486
14624TIP3   OH243814   5.448   7.159   6.709
14624TIP3    H143815   5.516   7.222   6.675
14624TIP3    H243816   5.495   7.122   6.787
14625TIP3   OH243817   5.577   7.031   6.914
14625TIP3    H143818   5.511   6.985   6.970
14625TIP3    H243819   5.641   7.065   6.980
14626TIP3   OH243820   5.515   6.935   6.558
14626TIP3    H143821   5.443   6.936   6.491
14626TIP3    H243822   5.487   7.011   6.614
14627TIP3   OH243823   5.385   6.607   6.513
14627TIP3    H143824   5.343   6.641   6.433
14627TIP3    H243825   5.362   6.512   6.506
14628TIP3   OH243826   5.391   6.884   7.052
14628TIP3    H143827   5.399   6.787   7.047
14628TIP3    H243828   5.372   6.897   7.148
14629TIP3   OH243829   4.015   6.960   7.803
14629TIP3    H143830   4.014   6.923   7.712
14629TIP3    H243831   4.112   6.958   7.821
14630TIP3   OH243832   5.330   6.341   6.495
14630TIP3    H143833   5.402   6.308   6.552
14630TIP3    H243834   5.255   6.282   6.516
14631TIP3   OH243835   5.388   6.600   6.950
14631TIP3    H143836   5.428   6.511   6.965
14631TIP3    H243837   5.446   6.633   6.879
14632TIP3   OH243838   5.539   6.797   7.445
14632TIP3    H143839   5.629   6.809   7.408
14632TIP3    H243840   5.558   6.826   7.536
14633TIP3   OH243841   4.228   6.626   8.461
14633TIP3    H143842   4.325   6.627   8.473
14633TIP3    H243843   4.203   6.548   8.515
14634TIP3   OH243844   5.496   6.350   6.990
14634TIP3    H143845   5.544   6.334   7.074
14634TIP3    H243846   5.435   6.274   6.989
14635TIP3   OH243847   4.195   6.335   7.812
14635TIP3    H143848   4.257   6.260   7.820
14635TIP3    H243849   4.258   6.409   7.802
14636TIP3   OH243850   3.995   6.607   7.881
14636TIP3    H143851   4.048   6.606   7.798
14636TIP3    H243852   4.026   6.688   7.923
14637TIP3   OH243853   5.575   6.281   6.626
14637TIP3    H143854   5.615   6.212   6.569
14637TIP3    H243855   5.642   6.353   6.622
14638TIP3   OH243856   3.983   6.111   7.384
14638TIP3    H143857   3.890   6.106   7.412
14638TIP3    H243858   3.978   6.170   7.306
14639TIP3   OH243859   5.147   7.785   6.873
14639TIP3    H143860   5.190   7.798   6.787
14639TIP3    H243861   5.086   7.863   6.881
14640TIP3   OH243862   4.204   6.191   8.196
14640TIP3    H143863   4.153   6.189   8.278
14640TIP3    H243864   4.138   6.229   8.134
14641TIP3   OH243865   4.444   7.639   7.813
14641TIP3    H143866   4.378   7.709   7.800
14641TIP3    H243867   4.459   7.613   7.722
14642TIP3   OH243868   5.850   6.395   7.887
14642TIP3    H143869   5.755   6.403   7.876
14642TIP3    H243870   5.866   6.303   7.865
14643TIP3   OH243871   4.338   7.832   7.649
14643TIP3    H143872   4.307   7.880   7.730
14643TIP3    H243873   4.324   7.903   7.582
14644TIP3   OH243874   4.005   7.695   7.596
14644TIP3    H143875   4.040   7.682   7.687
14644TIP3    H243876   4.079   7.655   7.545
14645TIP3   OH243877   4.199   7.573   7.448
14645TIP3    H143878   4.217   7.488   7.495
14645TIP3    H243879   4.290   7.605   7.430
14646TIP3   OH243880   4.462   7.671   7.431
14646TIP3    H143881   4.505   7.584   7.446
14646TIP3    H243882   4.452   7.707   7.520
14647TIP3   OH243883   5.044   6.325   7.540
14647TIP3    H143884   5.002   6.252   7.590
14647TIP3    H243885   5.118   6.279   7.496
14648TIP3   OH243886   5.563   6.200   7.440
14648TIP3    H143887   5.602   6.256   7.369
14648TIP3    H243888   5.470   6.226   7.437
14649TIP3   OH243889   5.661   6.303   7.207
14649TIP3    H143890   5.735   6.253   7.167
14649TIP3    H243891   5.693   6.395   7.192
14650TIP3   OH243892   4.291   6.032   7.554
14650TIP3    H143893   4.199   6.000   7.557
14650TIP3    H243894   4.340   5.947   7.550
14651TIP3   OH243895   4.080   5.905   7.205
14651TIP3    H143896   4.111   5.960   7.131
14651TIP3    H243897   4.054   5.972   7.271
14652TIP3   OH243898   4.738   6.065   7.436
14652TIP3    H143899   4.793   6.112   7.372
14652TIP3    H243900   4.765   6.106   7.520
14653TIP3   OH243901   5.278   6.214   7.420
14653TIP3    H143902   5.282   6.175   7.332
14653TIP3    H243903   5.268   6.134   7.476
14654TIP3   OH243904   5.313   6.138   6.982
14654TIP3    H143905   5.227   6.180   6.997
14654TIP3    H243906   5.299   6.051   7.027
14655TIP3   OH243907   3.795   7.478   6.979
14655TIP3    H143908   3.710   7.444   6.947
14655TIP3    H243909   3.785   7.572   6.956
14656TIP3   OH243910   4.199   6.061   6.966
14656TIP3    H143911   4.246   5.998   6.908
14656TIP3    H243912   4.273   6.114   7.000
14657TIP3   OH243913   4.707   6.240   7.065
14657TIP3    H143914   4.768   6.193   7.124
14657TIP3    H243915   4.729   6.333   7.090
14658TIP3   OH243916   4.568   7.661   6.564
14658TIP3    H143917   4.657   7.683   6.527
14658TIP3    H243918   4.546   7.585   6.505
14659TIP3   OH243919   5.296   7.800   6.645
14659TIP3    H143920   5.296   7.702   6.642
14659TIP3    H243921   5.253   7.820   6.560
14660TIP3   OH243922   4.491   6.315   8.439
14660TIP3    H143923   4.451   6.247   8.496
14660TIP3    H243924   4.586   6.305   8.466
14661TIP3   OH243925   4.749   6.289   8.537
14661TIP3    H143926   4.831   6.294   8.483
14661TIP3    H243927   4.783   6.256   8.620
14662TIP3   OH243928   3.873   7.500   6.619
14662TIP3    H143929   3.876   7.516   6.714
14662TIP3    H243930   3.960   7.456   6.603
14663TIP3   OH243931   5.749   6.805   6.868
14663TIP3    H143932   5.701   6.889   6.881
14663TIP3    H243933   5.680   6.753   6.822
14664TIP3   OH243934   5.812   7.097   7.042
14664TIP3    H143935   5.866   7.032   7.091
14664TIP3    H243936   5.857   7.100   6.957
14665TIP3   OH243937   6.293   6.712   7.066
14665TIP3    H143938   6.285   6.769   6.987
14665TIP3    H243939   6.267   6.627   7.025
14666TIP3   OH243940   5.972   6.891   7.146
14666TIP3    H143941   6.066   6.870   7.161
14666TIP3    H243942   5.954   6.831   7.071
14667TIP3   OH243943   5.647   7.318   6.595
14667TIP3    H143944   5.607   7.348   6.512
14667TIP3    H243945   5.679   7.404   6.631
14668TIP3   OH243946   6.610   6.913   6.223
14668TIP3    H143947   6.685   6.974   6.227
14668TIP3    H243948   6.640   6.855   6.150
14669TIP3   OH243949   7.278   6.325   6.228
14669TIP3    H143950   7.215   6.305   6.299
14669TIP3    H243951   7.276   6.423   6.234
14670TIP3   OH243952   6.033   7.074   6.671
14670TIP3    H143953   5.975   7.112   6.602
14670TIP3    H243954   6.051   6.986   6.636
14671TIP3   OH243955   6.877   7.152   5.934
14671TIP3    H143956   6.830   7.111   5.859
14671TIP3    H243957   6.969   7.128   5.914
14672TIP3   OH243958   6.588   6.513   6.285
14672TIP3    H143959   6.554   6.505   6.376
14672TIP3    H243960   6.548   6.433   6.246
14673TIP3   OH243961   6.241   6.863   6.843
14673TIP3    H143962   6.150   6.833   6.866
14673TIP3    H243963   6.241   6.846   6.747
14674TIP3   OH243964   6.239   6.495   6.250
14674TIP3    H143965   6.229   6.487   6.347
14674TIP3    H243966   6.164   6.555   6.230
14675TIP3   OH243967   5.779   6.528   7.119
14675TIP3    H143968   5.854   6.565   7.170
14675TIP3    H243969   5.821   6.497   7.037
14676TIP3   OH243970   5.752   6.508   6.644
14676TIP3    H143971   5.794   6.543   6.563
14676TIP3    H243972   5.692   6.582   6.664
14677TIP3   OH243973   6.008   6.739   6.917
14677TIP3    H143974   5.915   6.744   6.886
14677TIP3    H243975   6.035   6.647   6.895
14678TIP3   OH243976   6.190   6.506   6.891
14678TIP3    H143977   6.156   6.428   6.940
14678TIP3    H243978   6.218   6.466   6.807
14679TIP3   OH243979   6.342   7.323   6.377
14679TIP3    H143980   6.297   7.236   6.380
14679TIP3    H243981   6.357   7.340   6.471
14680TIP3   OH243982   6.835   6.628   6.270
14680TIP3    H143983   6.742   6.598   6.267
14680TIP3    H243984   6.833   6.714   6.227
14681TIP3   OH243985   5.738   6.932   6.394
14681TIP3    H143986   5.783   7.016   6.418
14681TIP3    H243987   5.663   6.933   6.457
14682TIP3   OH243988   6.167   7.471   5.985
14682TIP3    H143989   6.181   7.380   5.952
14682TIP3    H243990   6.142   7.452   6.078
14683TIP3   OH243991   6.153   7.474   6.260
14683TIP3    H143992   6.225   7.416   6.294
14683TIP3    H243993   6.199   7.557   6.245
14684TIP3   OH243994   5.849   7.175   6.476
14684TIP3    H143995   5.784   7.218   6.535
14684TIP3    H243996   5.860   7.246   6.410
14685TIP3   OH243997   6.854   6.607   6.547
14685TIP3    H143998   6.860   6.622   6.450
14685TIP3    H243999   6.948   6.621   6.574
14686TIP3   OH244000   6.601   6.787   6.595
14686TIP3    H144001   6.689   6.749   6.606
14686TIP3    H244002   6.581   6.816   6.687
14687TIP3   OH244003   6.713   6.486   6.747
14687TIP3    H144004   6.752   6.534   6.822
14687TIP3    H244005   6.767   6.523   6.673
14688TIP3   OH244006   6.219   6.484   6.525
14688TIP3    H144007   6.214   6.580   6.541
14688TIP3    H244008   6.315   6.469   6.539
14689TIP3   OH244009   5.841   7.384   6.284
14689TIP3    H144010   5.896   7.462   6.299
14689TIP3    H244011   5.895   7.335   6.217
14690TIP3   OH244012   5.776   6.657   6.418
14690TIP3    H144013   5.796   6.752   6.412
14690TIP3    H244014   5.695   6.650   6.367
14691TIP3   OH244015   6.133   6.378   7.301
14691TIP3    H144016   6.135   6.351   7.207
14691TIP3    H244017   6.159   6.296   7.346
14692TIP3   OH244018   5.697   7.577   6.650
14692TIP3    H144019   5.641   7.627   6.712
14692TIP3    H244020   5.701   7.636   6.573
14693TIP3   OH244021   6.331   7.680   5.917
14693TIP3    H144022   6.274   7.604   5.943
14693TIP3    H244023   6.411   7.633   5.889
14694TIP3   OH244024   5.980   7.202   6.132
14694TIP3    H144025   6.026   7.158   6.205
14694TIP3    H244026   6.051   7.203   6.064
14695TIP3   OH244027   6.480   7.395   5.958
14695TIP3    H144028   6.457   7.399   6.051
14695TIP3    H244029   6.494   7.299   5.945
14696TIP3   OH244030   6.206   7.085   6.385
14696TIP3    H144031   6.180   7.015   6.447
14696TIP3    H244032   6.239   7.028   6.311
14697TIP3   OH244033   6.306   6.922   6.194
14697TIP3    H144034   6.256   6.903   6.112
14697TIP3    H244035   6.397   6.906   6.168
14698TIP3   OH244036   5.573   7.343   6.313
14698TIP3    H144037   5.669   7.362   6.303
14698TIP3    H244038   5.568   7.253   6.275
14699TIP3   OH244039   7.102   6.855   6.041
14699TIP3    H144040   7.127   6.919   5.972
14699TIP3    H244041   7.129   6.770   6.003
14700TIP3   OH244042   7.134   6.580   5.966
14700TIP3    H144043   7.208   6.578   6.029
14700TIP3    H244044   7.060   6.544   6.016
14701TIP3   OH244045   5.979   6.600   7.287
14701TIP3    H144046   6.032   6.518   7.293
14701TIP3    H244047   6.042   6.667   7.317
14702TIP3   OH244048   5.797   6.886   7.385
14702TIP3    H144049   5.858   6.875   7.311
14702TIP3    H244050   5.778   6.982   7.382
14703TIP3   OH244051   7.414   6.582   6.043
14703TIP3    H144052   7.455   6.498   6.026
14703TIP3    H244053   7.465   6.618   6.117
14704TIP3   OH244054   5.779   6.366   6.872
14704TIP3    H144055   5.686   6.362   6.900
14704TIP3    H244056   5.774   6.426   6.794
14705TIP3   OH244057   6.090   6.290   7.035
14705TIP3    H144058   5.997   6.260   7.040
14705TIP3    H244059   6.136   6.204   7.031
14706TIP3   OH244060   5.880   6.161   6.691
14706TIP3    H144061   5.907   6.218   6.616
14706TIP3    H244062   5.851   6.227   6.757
14707TIP3   OH244063   6.540   6.316   6.927
14707TIP3    H144064   6.589   6.378   6.871
14707TIP3    H244065   6.517   6.370   7.004
14708TIP3   OH244066   7.084   6.357   6.447
14708TIP3    H144067   7.010   6.419   6.457
14708TIP3    H244068   7.054   6.280   6.499
14709TIP3   OH244069   5.609   7.737   6.430
14709TIP3    H144070   5.522   7.697   6.413
14709TIP3    H244071   5.582   7.829   6.445
14710TIP3   OH244072   5.993   6.316   6.456
14710TIP3    H144073   6.041   6.256   6.397
14710TIP3    H244074   6.064   6.373   6.490
14711TIP3   OH244075   6.500   6.507   6.552
14711TIP3    H144076   6.564   6.471   6.616
14711TIP3    H244077   6.499   6.601   6.578
14712TIP3   OH244078   5.675   7.755   6.112
14712TIP3    H144079   5.662   7.748   6.208
14712TIP3    H244080   5.762   7.711   6.099
14713TIP3   OH244081   2.644   8.243   6.793
14713TIP3    H144082   2.701   8.316   6.821
14713TIP3    H244083   2.703   8.194   6.732
14714TIP3   OH244084   3.362   7.628   6.945
14714TIP3    H144085   3.283   7.647   7.000
14714TIP3    H244086   3.374   7.714   6.900
14715TIP3   OH244087   2.912   8.410   6.646
14715TIP3    H144088   2.884   8.391   6.555
14715TIP3    H244089   2.984   8.473   6.632
14716TIP3   OH244090   2.611   7.831   6.949
14716TIP3    H144091   2.613   7.811   7.044
14716TIP3    H244092   2.576   7.746   6.913
14717TIP3   OH244093   2.288   7.781   6.889
14717TIP3    H144094   2.276   7.807   6.983
14717TIP3    H244095   2.207   7.818   6.850
14718TIP3   OH244096   2.881   7.895   6.923
14718TIP3    H144097   2.783   7.893   6.917
14718TIP3    H244098   2.904   7.986   6.894
14719TIP3   OH244099   2.978   8.144   6.864
14719TIP3    H144100   3.050   8.146   6.929
14719TIP3    H244101   2.955   8.238   6.858
14720TIP3   OH244102   3.394   8.254   6.825
14720TIP3    H144103   3.325   8.205   6.776
14720TIP3    H244104   3.385   8.340   6.779
14721TIP3   OH244105   2.970   7.869   7.181
14721TIP3    H144106   2.944   7.870   7.086
14721TIP3    H244107   2.977   7.964   7.199
14722TIP3   OH244108   3.149   8.544   6.525
14722TIP3    H144109   3.125   8.490   6.447
14722TIP3    H244110   3.149   8.632   6.487
14723TIP3   OH244111   3.354   8.504   6.700
14723TIP3    H144112   3.278   8.491   6.639
14723TIP3    H244113   3.360   8.601   6.696
14724TIP3   OH244114   3.218   8.166   6.637
14724TIP3    H144115   3.158   8.186   6.564
14724TIP3    H244116   3.200   8.070   6.647
14725TIP3   OH244117   3.172   7.898   6.647
14725TIP3    H144118   3.249   7.870   6.701
14725TIP3    H244119   3.102   7.836   6.672
14726TIP3   OH244120   3.243   8.133   7.059
14726TIP3    H144121   3.282   8.050   7.092
14726TIP3    H244122   3.322   8.177   7.024
14727TIP3   OH244123   3.354   7.893   7.133
14727TIP3    H144124   3.392   7.889   7.223
14727TIP3    H244125   3.291   7.819   7.136
14728TIP3   OH244126   3.415   7.841   6.772
14728TIP3    H144127   3.456   7.769   6.720
14728TIP3    H244128   3.485   7.910   6.771
14729TIP3   OH244129   3.416   7.792   7.602
14729TIP3    H144130   3.455   7.822   7.516
14729TIP3    H244131   3.322   7.776   7.575
14730TIP3   OH244132   3.511   7.873   7.361
14730TIP3    H144133   3.583   7.821   7.318
14730TIP3    H244134   3.540   7.965   7.341
14731TIP3   OH244135   3.153   7.750   7.569
14731TIP3    H144136   3.104   7.735   7.487
14731TIP3    H244137   3.118   7.679   7.627
14732TIP3   OH244138   3.169   7.685   7.132
14732TIP3    H144139   3.093   7.741   7.156
14732TIP3    H244140   3.146   7.601   7.177
14733TIP3   OH244141   2.042   7.609   7.096
14733TIP3    H144142   2.074   7.540   7.034
14733TIP3    H244143   2.104   7.595   7.169
14734TIP3   OH244144   3.604   8.321   6.986
14734TIP3    H144145   3.586   8.415   6.994
14734TIP3    H244146   3.526   8.290   6.934
14735TIP3   OH244147   4.173   8.242   7.177
14735TIP3    H144148   4.147   8.313   7.115
14735TIP3    H244149   4.126   8.166   7.136
14736TIP3   OH244150   4.868   8.299   6.793
14736TIP3    H144151   4.912   8.294   6.880
14736TIP3    H244152   4.862   8.394   6.781
14737TIP3   OH244153   4.256   8.627   7.102
14737TIP3    H144154   4.341   8.588   7.082
14737TIP3    H244155   4.195   8.557   7.068
14738TIP3   OH244156   4.039   8.350   7.392
14738TIP3    H144157   4.095   8.429   7.393
14738TIP3    H244158   4.086   8.298   7.323
14739TIP3   OH244159   4.494   7.934   7.312
14739TIP3    H144160   4.501   7.843   7.346
14739TIP3    H244161   4.429   7.972   7.375
14740TIP3   OH244162   4.445   8.686   6.580
14740TIP3    H144163   4.370   8.748   6.572
14740TIP3    H244164   4.497   8.705   6.501
14741TIP3   OH244165   4.406   8.494   6.300
14741TIP3    H144166   4.461   8.532   6.371
14741TIP3    H244167   4.470   8.434   6.257
14742TIP3   OH244168   4.049   8.770   6.926
14742TIP3    H144169   4.052   8.678   6.896
14742TIP3    H244170   4.115   8.772   6.997
14743TIP3   OH244171   4.652   8.669   6.394
14743TIP3    H144172   4.705   8.742   6.427
14743TIP3    H244173   4.674   8.670   6.298
14744TIP3   OH244174   5.147   7.889   6.430
14744TIP3    H144175   5.068   7.909   6.483
14744TIP3    H244176   5.162   7.973   6.383
14745TIP3   OH244177   3.918   8.588   6.751
14745TIP3    H144178   3.862   8.666   6.768
14745TIP3    H244179   3.863   8.515   6.781
14746TIP3   OH244180   4.285   8.032   7.466
14746TIP3    H144181   4.191   8.007   7.448
14746TIP3    H244182   4.275   8.119   7.506
14747TIP3   OH244183   4.734   8.673   6.140
14747TIP3    H144184   4.699   8.646   6.053
14747TIP3    H244185   4.762   8.764   6.121
14748TIP3   OH244186   4.423   8.068   6.436
14748TIP3    H144187   4.391   8.065   6.528
14748TIP3    H244188   4.385   7.985   6.403
14749TIP3   OH244189   4.100   8.429   6.990
14749TIP3    H144190   4.010   8.393   7.005
14749TIP3    H244191   4.118   8.389   6.902
14750TIP3   OH244192   4.584   8.502   6.725
14750TIP3    H144193   4.532   8.576   6.685
14750TIP3    H244194   4.628   8.465   6.646
14751TIP3   OH244195   4.081   8.043   6.402
14751TIP3    H144196   4.075   8.042   6.499
14751TIP3    H244197   4.003   8.098   6.380
14752TIP3   OH244198   3.636   8.103   7.268
14752TIP3    H144199   3.719   8.113   7.317
14752TIP3    H244200   3.663   8.059   7.185
14753TIP3   OH244201   3.596   8.056   6.787
14753TIP3    H144202   3.651   8.091   6.715
14753TIP3    H244203   3.536   8.133   6.800
14754TIP3   OH244204   4.426   8.262   7.060
14754TIP3    H144205   4.342   8.249   7.108
14754TIP3    H244206   4.490   8.220   7.120
14755TIP3   OH244207   3.870   8.304   7.041
14755TIP3    H144208   3.773   8.308   7.034
14755TIP3    H244209   3.887   8.208   7.032
14756TIP3   OH244210   4.128   8.295   6.755
14756TIP3    H144211   4.221   8.308   6.729
14756TIP3    H244212   4.078   8.317   6.673
14757TIP3   OH244213   3.975   8.325   6.531
14757TIP3    H144214   3.900   8.285   6.483
14757TIP3    H244215   4.025   8.365   6.458
14758TIP3   OH244216   4.032   8.053   7.038
14758TIP3    H144217   3.995   7.977   7.089
14758TIP3    H244218   4.079   8.008   6.967
14759TIP3   OH244219   4.221   8.844   6.548
14759TIP3    H144220   4.143   8.785   6.534
14759TIP3    H244221   4.199   8.885   6.633
14760TIP3   OH244222   4.673   8.165   6.399
14760TIP3    H144223   4.578   8.141   6.411
14760TIP3    H244224   4.674   8.259   6.425
14761TIP3   OH244225   4.709   8.418   6.495
14761TIP3    H144226   4.805   8.416   6.512
14761TIP3    H244227   4.698   8.510   6.457
14762TIP3   OH244228   4.322   9.018   6.360
14762TIP3    H144229   4.296   9.092   6.417
14762TIP3    H244230   4.295   8.944   6.419
14763TIP3   OH244231   5.192   8.511   6.316
14763TIP3    H144232   5.241   8.434   6.282
14763TIP3    H244233   5.264   8.575   6.329
14764TIP3   OH244234   3.585   8.488   6.544
14764TIP3    H144235   3.626   8.574   6.566
14764TIP3    H244236   3.509   8.488   6.606
14765TIP3   OH244237   4.697   8.976   6.157
14765TIP3    H144238   4.752   9.048   6.190
14765TIP3    H244239   4.610   9.019   6.148
14766TIP3   OH244240   3.979   8.981   6.210
14766TIP3    H144241   4.040   8.908   6.188
14766TIP3    H244242   4.020   9.021   6.287
14767TIP3   OH244243   3.674   8.738   6.628
14767TIP3    H144244   3.718   8.780   6.705
14767TIP3    H244245   3.689   8.805   6.559
14768TIP3   OH244246   4.714   8.106   6.678
14768TIP3    H144247   4.702   8.133   6.585
14768TIP3    H244248   4.767   8.180   6.716
14769TIP3   OH244249   4.410   8.302   6.789
14769TIP3    H144250   4.474   8.375   6.770
14769TIP3    H244251   4.413   8.301   6.887
14770TIP3   OH244252   4.553   8.028   6.888
14770TIP3    H144253   4.539   8.114   6.933
14770TIP3    H244254   4.613   8.055   6.815
14771TIP3   OH244255   4.068   8.030   6.678
14771TIP3    H144256   4.065   8.120   6.717
14771TIP3    H244257   4.164   8.012   6.686
14772TIP3   OH244258   3.695   8.954   6.443
14772TIP3    H144259   3.731   9.045   6.438
14772TIP3    H244260   3.751   8.908   6.377
14773TIP3   OH244261   3.631   8.216   6.565
14773TIP3    H144262   3.635   8.314   6.560
14773TIP3    H244263   3.544   8.197   6.529
14774TIP3   OH244264   4.025   7.933   7.438
14774TIP3    H144265   3.997   7.896   7.352
14774TIP3    H244266   4.015   7.857   7.498
14775TIP3   OH244267   3.819   8.744   6.300
14775TIP3    H144268   3.871   8.712   6.375
14775TIP3    H244269   3.891   8.753   6.232
14776TIP3   OH244270   4.241   8.916   6.102
14776TIP3    H144271   4.280   8.948   6.185
14776TIP3    H244272   4.289   8.832   6.090
14777TIP3   OH244273   4.014   8.661   6.502
14777TIP3    H144274   3.985   8.623   6.588
14777TIP3    H244275   4.056   8.583   6.460
14778TIP3   OH244276   4.130   8.457   6.348
14778TIP3    H144277   4.106   8.458   6.253
14778TIP3    H244278   4.228   8.461   6.342
14779TIP3   OH244279   4.951   8.802   5.995
14779TIP3    H144280   4.926   8.749   5.918
14779TIP3    H244281   4.935   8.892   5.961
14780TIP3   OH244282   3.431   8.876   6.485
14780TIP3    H144283   3.520   8.909   6.463
14780TIP3    H244284   3.424   8.797   6.428
14781TIP3   OH244285   5.087   8.762   6.221
14781TIP3    H144286   5.040   8.794   6.140
14781TIP3    H244287   5.169   8.814   6.206
14782TIP3   OH244288   4.973   8.445   6.119
14782TIP3    H144289   4.951   8.436   6.025
14782TIP3    H244290   4.966   8.349   6.143
14783TIP3   OH244291   4.944   8.182   6.153
14783TIP3    H144292   5.028   8.139   6.181
14783TIP3    H244293   4.881   8.108   6.153
14784TIP3   OH244294   4.975   8.406   6.549
14784TIP3    H144295   4.989   8.323   6.598
14784TIP3    H244296   5.020   8.470   6.605
14785TIP3   OH244297   5.116   8.172   6.651
14785TIP3    H144298   5.136   8.159   6.746
14785TIP3    H244299   5.054   8.097   6.637
14786TIP3   OH244300   3.856   8.147   7.429
14786TIP3    H144301   3.917   8.071   7.437
14786TIP3    H244302   3.919   8.220   7.410
14787TIP3   OH244303   5.190   8.093   6.230
14787TIP3    H144304   5.228   8.014   6.187
14787TIP3    H244305   5.266   8.153   6.234
14788TIP3   OH244306   3.621   7.931   7.028
14788TIP3    H144307   3.527   7.916   7.051
14788TIP3    H244308   3.614   7.986   6.947
14789TIP3   OH244309   4.634   8.121   7.175
14789TIP3    H144310   4.591   8.044   7.219
14789TIP3    H244311   4.696   8.077   7.115
14790TIP3   OH244312   3.929   7.844   7.192
14790TIP3    H144313   3.836   7.812   7.196
14790TIP3    H244314   3.976   7.758   7.187
14791TIP3   OH244315   3.715   7.720   6.842
14791TIP3    H144316   3.746   7.776   6.768
14791TIP3    H244317   3.691   7.787   6.909
14792TIP3   OH244318   4.369   7.881   7.071
14792TIP3    H144319   4.433   7.924   7.012
14792TIP3    H244320   4.404   7.905   7.159
14793TIP3   OH244321   4.961   7.950   6.994
14793TIP3    H144322   4.947   8.043   7.025
14793TIP3    H244323   4.924   7.900   7.069
14794TIP3   OH244324   4.947   7.953   6.621
14794TIP3    H144325   4.857   7.990   6.634
14794TIP3    H244326   4.933   7.864   6.662
14795TIP3   OH244327   3.836   7.878   6.601
14795TIP3    H144328   3.884   7.814   6.545
14795TIP3    H244329   3.911   7.931   6.637
14796TIP3   OH244330   4.344   8.054   6.700
14796TIP3    H144331   4.402   8.003   6.759
14796TIP3    H244332   4.368   8.145   6.727
14797TIP3   OH244333   5.864   8.317   5.903
14797TIP3    H144334   5.838   8.282   5.988
14797TIP3    H244335   5.780   8.348   5.865
14798TIP3   OH244336   5.388   8.316   6.285
14798TIP3    H144337   5.396   8.334   6.188
14798TIP3    H244338   5.461   8.373   6.318
14799TIP3   OH244339   5.379   8.426   6.045
14799TIP3    H144340   5.422   8.512   6.038
14799TIP3    H244341   5.324   8.419   5.963
14800TIP3   OH244342   5.349   8.122   6.468
14800TIP3    H144343   5.273   8.153   6.522
14800TIP3    H244344   5.365   8.201   6.412
14801TIP3   OH244345   5.482   7.964   6.288
14801TIP3    H144346   5.519   8.029   6.226
14801TIP3    H244347   5.440   8.019   6.357
14802TIP3   OH244348   5.626   8.132   6.095
14802TIP3    H144349   5.662   8.063   6.034
14802TIP3    H244350   5.705   8.154   6.147
   8.50000   8.01388   6.94022   0.00000   0.00000  -2.83333   0.00000  -2.83333  -4.00694
